 Entering Gaussian System, Link 0=g16
 Input=SDI0017_2.com
 Output=SDI0017_2.log
 Initial command:
 /uufs/chpc.utah.edu/sys/installdir/gaussian16/C01/AVX/g16/l1.exe "/scratch/general/vast/u1414944/3119853-notchpeak.peaks/Gau-924384.inp" -scrdir="/scratch/general/vast/u1414944/3119853-notchpeak.peaks/"
 Entering Link 1 = /uufs/chpc.utah.edu/sys/installdir/gaussian16/C01/AVX/g16/l1.exe PID=    924385.
  
 Copyright (c) 1988-2019, Gaussian, Inc.  All Rights Reserved.
  
 This is part of the Gaussian(R) 16 program.  It is based on
 the Gaussian(R) 09 system (copyright 2009, Gaussian, Inc.),
 the Gaussian(R) 03 system (copyright 2003, Gaussian, Inc.),
 the Gaussian(R) 98 system (copyright 1998, Gaussian, Inc.),
 the Gaussian(R) 94 system (copyright 1995, Gaussian, Inc.),
 the Gaussian 92(TM) system (copyright 1992, Gaussian, Inc.),
 the Gaussian 90(TM) system (copyright 1990, Gaussian, Inc.),
 the Gaussian 88(TM) system (copyright 1988, Gaussian, Inc.),
 the Gaussian 86(TM) system (copyright 1986, Carnegie Mellon
 University), and the Gaussian 82(TM) system (copyright 1983,
 Carnegie Mellon University). Gaussian is a federally registered
 trademark of Gaussian, Inc.
  
 This software contains proprietary and confidential information,
 including trade secrets, belonging to Gaussian, Inc.
  
 This software is provided under written license and may be
 used, copied, transmitted, or stored only in accord with that
 written license.
  
 The following legend is applicable only to US Government
 contracts under FAR:
  
                    RESTRICTED RIGHTS LEGEND
  
 Use, reproduction and disclosure by the US Government is
 subject to restrictions as set forth in subparagraphs (a)
 and (c) of the Commercial Computer Software - Restricted
 Rights clause in FAR 52.227-19.
  
 Gaussian, Inc.
 340 Quinnipiac St., Bldg. 40, Wallingford CT 06492
  
  
 ---------------------------------------------------------------
 Warning -- This program may not be used in any manner that
 competes with the business of Gaussian, Inc. or will provide
 assistance to any competitor of Gaussian, Inc.  The licensee
 of this program is prohibited from giving any competitor of
 Gaussian, Inc. access to this program.  By using this program,
 the user acknowledges that Gaussian, Inc. is engaged in the
 business of creating and licensing software in the field of
 computational chemistry and represents and warrants to the
 licensee that it is not a competitor of Gaussian, Inc. and that
 it will not use this program in any manner prohibited above.
 ---------------------------------------------------------------
  

 Cite this work as:
 Gaussian 16, Revision C.01,
 M. J. Frisch, G. W. Trucks, H. B. Schlegel, G. E. Scuseria, 
 M. A. Robb, J. R. Cheeseman, G. Scalmani, V. Barone, 
 G. A. Petersson, H. Nakatsuji, X. Li, M. Caricato, A. V. Marenich, 
 J. Bloino, B. G. Janesko, R. Gomperts, B. Mennucci, H. P. Hratchian, 
 J. V. Ortiz, A. F. Izmaylov, J. L. Sonnenberg, D. Williams-Young, 
 F. Ding, F. Lipparini, F. Egidi, J. Goings, B. Peng, A. Petrone, 
 T. Henderson, D. Ranasinghe, V. G. Zakrzewski, J. Gao, N. Rega, 
 G. Zheng, W. Liang, M. Hada, M. Ehara, K. Toyota, R. Fukuda, 
 J. Hasegawa, M. Ishida, T. Nakajima, Y. Honda, O. Kitao, H. Nakai, 
 T. Vreven, K. Throssell, J. A. Montgomery, Jr., J. E. Peralta, 
 F. Ogliaro, M. J. Bearpark, J. J. Heyd, E. N. Brothers, K. N. Kudin, 
 V. N. Staroverov, T. A. Keith, R. Kobayashi, J. Normand, 
 K. Raghavachari, A. P. Rendell, J. C. Burant, S. S. Iyengar, 
 J. Tomasi, M. Cossi, J. M. Millam, M. Klene, C. Adamo, R. Cammi, 
 J. W. Ochterski, R. L. Martin, K. Morokuma, O. Farkas, 
 J. B. Foresman, and D. J. Fox, Gaussian, Inc., Wallingford CT, 2019.
 
 ******************************************
 Gaussian 16:  ES64L-G16RevC.01  3-Jul-2019
                10-Feb-2025 
 ******************************************
 %NProcShared=16
 Will use up to   16 processors via shared memory.
 %Mem=40GB
 %chk=SDI0017_2.chk
 ----------------------------------------------------------------------
 #N OPT FREQ=NORAMAN Integral(Ultrafine) pbe1pbe EmpiricalDispersion=GD
 3BJ def2SVP
 ----------------------------------------------------------------------
 1/18=20,19=15,26=4,38=1/1,3;
 2/9=110,12=2,17=6,18=5,40=1/2;
 3/5=43,7=101,11=2,25=1,30=1,71=1,74=-13,75=-5,124=41/1,2,3;
 4//1;
 5/5=2,38=5/2;
 6/7=2,8=2,9=2,10=2,28=1/1;
 7//1,2,3,16;
 1/18=20,19=15,26=4/3(2);
 2/9=110/2;
 99//99;
 2/9=110/2;
 3/5=43,7=101,11=2,25=1,30=1,71=1,74=-13,75=-5,124=41/1,2,3;
 4/5=5,16=3,69=1/1;
 5/5=2,38=5/2;
 7//1,2,3,16;
 1/18=20,19=15,26=4/3(-5);
 2/9=110/2;
 6/7=2,8=2,9=2,10=2,19=2,28=1/1;
 99/9=1/99;
 ---------
 SDI0017_2
 ---------
 Symbolic Z-matrix:
 Charge =  0 Multiplicity = 1
 N                    -2.9375    1.30766   0.46807 
 S                    -2.26694   0.05544  -0.12171 
 C                    -0.46747   0.07326  -0.02165 
 C                     0.29012  -0.62846  -0.93481 
 C                     1.6719   -0.61186  -0.84551 
 C                     2.29165   0.11731   0.167 
 O                     3.63391   0.20331   0.35166 
 C                     4.48675  -0.47582  -0.53971 
 C                     1.50955   0.83201   1.08103 
 C                     0.13568   0.81026   0.98385 
 C                    -2.61478  -1.1658    1.19793 
 N                    -2.51774  -0.48482  -1.54052 
 H                    -3.03743   2.06538  -0.18786 
 H                    -0.2186   -1.17154  -1.71458 
 H                     2.25142  -1.16507  -1.56726 
 H                     5.49834  -0.25692  -0.20177 
 H                     4.36284  -0.11692  -1.56613 
 H                     4.32148  -1.55736  -0.50872 
 H                     2.01049   1.39646   1.85131 
 H                    -0.48548   1.36722   1.66902 
 H                    -2.25073  -0.75019   2.12796 
 H                    -3.68708  -1.31165   1.24817 
 H                    -2.10823  -2.09067   0.94926 
 H                    -3.45574  -0.33261  -1.87337 
 

 GradGradGradGradGradGradGradGradGradGradGradGradGradGradGradGradGradGrad
 Berny optimization.
 Initialization pass.
                           ----------------------------
                           !    Initial Parameters    !
                           ! (Angstroms and Degrees)  !
 --------------------------                            --------------------------
 ! Name  Definition              Value          Derivative Info.                !
 --------------------------------------------------------------------------------
 ! R1    R(1,2)                  1.538          estimate D2E/DX2                !
 ! R2    R(1,13)                 1.0072         estimate D2E/DX2                !
 ! R3    R(2,3)                  1.8023         estimate D2E/DX2                !
 ! R4    R(2,11)                 1.8314         estimate D2E/DX2                !
 ! R5    R(2,12)                 1.5388         estimate D2E/DX2                !
 ! R6    R(3,4)                  1.3785         estimate D2E/DX2                !
 ! R7    R(3,10)                 1.3849         estimate D2E/DX2                !
 ! R8    R(4,5)                  1.3848         estimate D2E/DX2                !
 ! R9    R(4,14)                 1.0779         estimate D2E/DX2                !
 ! R10   R(5,6)                  1.3932         estimate D2E/DX2                !
 ! R11   R(5,15)                 1.0783         estimate D2E/DX2                !
 ! R12   R(6,7)                  1.3576         estimate D2E/DX2                !
 ! R13   R(6,9)                  1.3993         estimate D2E/DX2                !
 ! R14   R(7,8)                  1.4082         estimate D2E/DX2                !
 ! R15   R(8,16)                 1.0888         estimate D2E/DX2                !
 ! R16   R(8,17)                 1.0944         estimate D2E/DX2                !
 ! R17   R(8,18)                 1.0945         estimate D2E/DX2                !
 ! R18   R(9,10)                 1.3775         estimate D2E/DX2                !
 ! R19   R(9,19)                 1.0784         estimate D2E/DX2                !
 ! R20   R(10,20)                1.0796         estimate D2E/DX2                !
 ! R21   R(11,21)                1.0818         estimate D2E/DX2                !
 ! R22   R(11,22)                1.0833         estimate D2E/DX2                !
 ! R23   R(11,23)                1.0834         estimate D2E/DX2                !
 ! R24   R(12,24)                1.0069         estimate D2E/DX2                !
 ! A1    A(2,1,13)             113.9564         estimate D2E/DX2                !
 ! A2    A(1,2,3)              113.9511         estimate D2E/DX2                !
 ! A3    A(1,2,11)             100.5912         estimate D2E/DX2                !
 ! A4    A(1,2,12)             124.6362         estimate D2E/DX2                !
 ! A5    A(3,2,11)              98.9877         estimate D2E/DX2                !
 ! A6    A(3,2,12)             102.5558         estimate D2E/DX2                !
 ! A7    A(11,2,12)            113.5355         estimate D2E/DX2                !
 ! A8    A(2,3,4)              120.4576         estimate D2E/DX2                !
 ! A9    A(2,3,10)             118.7112         estimate D2E/DX2                !
 ! A10   A(4,3,10)             120.8302         estimate D2E/DX2                !
 ! A11   A(3,4,5)              119.9725         estimate D2E/DX2                !
 ! A12   A(3,4,14)             118.4467         estimate D2E/DX2                !
 ! A13   A(5,4,14)             121.5767         estimate D2E/DX2                !
 ! A14   A(4,5,6)              119.8033         estimate D2E/DX2                !
 ! A15   A(4,5,15)             119.141          estimate D2E/DX2                !
 ! A16   A(6,5,15)             121.0555         estimate D2E/DX2                !
 ! A17   A(5,6,7)              124.8767         estimate D2E/DX2                !
 ! A18   A(5,6,9)              119.566          estimate D2E/DX2                !
 ! A19   A(7,6,9)              115.557          estimate D2E/DX2                !
 ! A20   A(6,7,8)              118.824          estimate D2E/DX2                !
 ! A21   A(7,8,16)             105.6202         estimate D2E/DX2                !
 ! A22   A(7,8,17)             111.5267         estimate D2E/DX2                !
 ! A23   A(7,8,18)             111.5408         estimate D2E/DX2                !
 ! A24   A(16,8,17)            109.2914         estimate D2E/DX2                !
 ! A25   A(16,8,18)            109.2785         estimate D2E/DX2                !
 ! A26   A(17,8,18)            109.4823         estimate D2E/DX2                !
 ! A27   A(6,9,10)             120.22           estimate D2E/DX2                !
 ! A28   A(6,9,19)             118.3146         estimate D2E/DX2                !
 ! A29   A(10,9,19)            121.4649         estimate D2E/DX2                !
 ! A30   A(3,10,9)             119.6043         estimate D2E/DX2                !
 ! A31   A(3,10,20)            118.9957         estimate D2E/DX2                !
 ! A32   A(9,10,20)            121.3954         estimate D2E/DX2                !
 ! A33   A(2,11,21)            107.4208         estimate D2E/DX2                !
 ! A34   A(2,11,22)            108.1309         estimate D2E/DX2                !
 ! A35   A(2,11,23)            108.3649         estimate D2E/DX2                !
 ! A36   A(21,11,22)           110.1792         estimate D2E/DX2                !
 ! A37   A(21,11,23)           111.5895         estimate D2E/DX2                !
 ! A38   A(22,11,23)           111.0079         estimate D2E/DX2                !
 ! A39   A(2,12,24)            113.8016         estimate D2E/DX2                !
 ! D1    D(13,1,2,3)            87.4564         estimate D2E/DX2                !
 ! D2    D(13,1,2,11)         -167.6536         estimate D2E/DX2                !
 ! D3    D(13,1,2,12)          -39.1249         estimate D2E/DX2                !
 ! D4    D(1,2,3,4)           -153.0632         estimate D2E/DX2                !
 ! D5    D(1,2,3,10)            26.5807         estimate D2E/DX2                !
 ! D6    D(11,2,3,4)           101.0418         estimate D2E/DX2                !
 ! D7    D(11,2,3,10)          -79.3143         estimate D2E/DX2                !
 ! D8    D(12,2,3,4)           -15.6642         estimate D2E/DX2                !
 ! D9    D(12,2,3,10)          163.9797         estimate D2E/DX2                !
 ! D10   D(1,2,11,21)          -54.037          estimate D2E/DX2                !
 ! D11   D(1,2,11,22)           64.856          estimate D2E/DX2                !
 ! D12   D(1,2,11,23)         -174.7345         estimate D2E/DX2                !
 ! D13   D(3,2,11,21)           62.5593         estimate D2E/DX2                !
 ! D14   D(3,2,11,22)         -178.5476         estimate D2E/DX2                !
 ! D15   D(3,2,11,23)          -58.1382         estimate D2E/DX2                !
 ! D16   D(12,2,11,21)         170.5553         estimate D2E/DX2                !
 ! D17   D(12,2,11,22)         -70.5516         estimate D2E/DX2                !
 ! D18   D(12,2,11,23)          49.8578         estimate D2E/DX2                !
 ! D19   D(1,2,12,24)          -32.9299         estimate D2E/DX2                !
 ! D20   D(3,2,12,24)         -164.1792         estimate D2E/DX2                !
 ! D21   D(11,2,12,24)          90.0627         estimate D2E/DX2                !
 ! D22   D(2,3,4,5)           -179.7571         estimate D2E/DX2                !
 ! D23   D(2,3,4,14)             0.9649         estimate D2E/DX2                !
 ! D24   D(10,3,4,5)             0.6066         estimate D2E/DX2                !
 ! D25   D(10,3,4,14)         -178.6714         estimate D2E/DX2                !
 ! D26   D(2,3,10,9)           179.7139         estimate D2E/DX2                !
 ! D27   D(2,3,10,20)           -1.0578         estimate D2E/DX2                !
 ! D28   D(4,3,10,9)            -0.6435         estimate D2E/DX2                !
 ! D29   D(4,3,10,20)          178.5848         estimate D2E/DX2                !
 ! D30   D(3,4,5,6)             -0.124          estimate D2E/DX2                !
 ! D31   D(3,4,5,15)          -179.9635         estimate D2E/DX2                !
 ! D32   D(14,4,5,6)           179.1308         estimate D2E/DX2                !
 ! D33   D(14,4,5,15)           -0.7087         estimate D2E/DX2                !
 ! D34   D(4,5,6,7)            179.8843         estimate D2E/DX2                !
 ! D35   D(4,5,6,9)             -0.3108         estimate D2E/DX2                !
 ! D36   D(15,5,6,7)            -0.2793         estimate D2E/DX2                !
 ! D37   D(15,5,6,9)           179.5256         estimate D2E/DX2                !
 ! D38   D(5,6,7,8)              0.6058         estimate D2E/DX2                !
 ! D39   D(9,6,7,8)           -179.2061         estimate D2E/DX2                !
 ! D40   D(5,6,9,10)             0.2728         estimate D2E/DX2                !
 ! D41   D(5,6,9,19)          -179.4699         estimate D2E/DX2                !
 ! D42   D(7,6,9,10)          -179.9046         estimate D2E/DX2                !
 ! D43   D(7,6,9,19)             0.3526         estimate D2E/DX2                !
 ! D44   D(6,7,8,16)           179.5809         estimate D2E/DX2                !
 ! D45   D(6,7,8,17)            60.9578         estimate D2E/DX2                !
 ! D46   D(6,7,8,18)           -61.8039         estimate D2E/DX2                !
 ! D47   D(6,9,10,3)             0.1995         estimate D2E/DX2                !
 ! D48   D(6,9,10,20)         -179.0098         estimate D2E/DX2                !
 ! D49   D(19,9,10,3)          179.934          estimate D2E/DX2                !
 ! D50   D(19,9,10,20)           0.7247         estimate D2E/DX2                !
 --------------------------------------------------------------------------------
 Trust Radius=3.00D-01 FncErr=1.00D-07 GrdErr=1.00D-06 EigMax=2.50D+02 EigMin=1.00D-04
 Number of steps in this run=    123 maximum allowed number of steps=    144.
 GradGradGradGradGradGradGradGradGradGradGradGradGradGradGradGradGradGrad

                          Input orientation:                          
 ---------------------------------------------------------------------
 Center     Atomic      Atomic             Coordinates (Angstroms)
 Number     Number       Type             X           Y           Z
 ---------------------------------------------------------------------
      1          7           0       -2.937505    1.307661    0.468073
      2         16           0       -2.266939    0.055445   -0.121711
      3          6           0       -0.467473    0.073264   -0.021654
      4          6           0        0.290116   -0.628460   -0.934805
      5          6           0        1.671897   -0.611862   -0.845513
      6          6           0        2.291651    0.117311    0.167000
      7          8           0        3.633907    0.203305    0.351657
      8          6           0        4.486752   -0.475820   -0.539712
      9          6           0        1.509554    0.832011    1.081028
     10          6           0        0.135684    0.810255    0.983846
     11          6           0       -2.614778   -1.165801    1.197934
     12          7           0       -2.517744   -0.484818   -1.540525
     13          1           0       -3.037426    2.065381   -0.187857
     14          1           0       -0.218597   -1.171540   -1.714579
     15          1           0        2.251424   -1.165068   -1.567265
     16          1           0        5.498344   -0.256924   -0.201768
     17          1           0        4.362841   -0.116917   -1.566132
     18          1           0        4.321485   -1.557361   -0.508717
     19          1           0        2.010485    1.396460    1.851307
     20          1           0       -0.485484    1.367225    1.669022
     21          1           0       -2.250730   -0.750193    2.127964
     22          1           0       -3.687081   -1.311647    1.248171
     23          1           0       -2.108234   -2.090668    0.949265
     24          1           0       -3.455741   -0.332610   -1.873374
 ---------------------------------------------------------------------
                    Distance matrix (angstroms):
                    1          2          3          4          5
     1  N    0.000000
     2  S    1.538034   0.000000
     3  C    2.804393   1.802333   0.000000
     4  C    4.016735   2.769003   1.378478   0.000000
     5  C    5.163009   4.060002   2.392707   1.384762   0.000000
     6  C    5.371373   4.568143   2.765917   2.403392   1.393188
     7  O    6.664578   5.921649   4.120387   3.678010   2.438688
     8  C    7.701689   6.787437   5.011409   4.217956   2.834683
     9  C    4.514232   4.038754   2.387518   2.771929   2.413024
    10  C    3.155618   2.750381   1.384913   2.403117   2.780094
    11  C    2.599012   1.831365   2.762896   3.643586   4.781015
    12  N    2.724636   1.538772   2.611902   2.876040   4.248796
    13  H    1.007159   2.153571   3.255889   4.345946   5.456910
    14  H    4.278184   2.870265   2.116003   1.077855   2.154642
    15  H    6.097701   4.898456   3.363745   2.129479   1.078338
    16  H    8.605821   7.771976   5.977662   5.272668   3.896420
    17  H    7.711190   6.787491   5.074792   4.152991   2.829389
    18  H    7.864820   6.793985   5.082350   4.158887   2.833322
    19  H    5.138465   4.897701   3.376256   3.849986   3.379473
    20  H    2.730976   2.846238   2.129094   3.371087   3.859270
    21  H    2.731604   2.389635   2.911862   3.981365   4.924195
    22  H    2.833935   2.400483   3.727775   4.588052   5.795848
    23  H    3.530987   2.403742   2.883987   3.382285   4.438185
    24  H    2.905414   2.152245   3.538834   3.872969   5.237094
                    6          7          8          9         10
     6  C    0.000000
     7  O    1.357624   0.000000
     8  C    2.381116   1.408224   0.000000
     9  C    1.399257   2.332408   3.633308   0.000000
    10  C    2.407406   3.606330   4.786127   1.377475   0.000000
    11  C    5.175157   6.452651   7.343515   4.584216   3.393476
    12  N    5.138919   6.472764   7.075639   4.982540   3.884629
    13  H    5.685065   6.947308   7.949513   4.879170   3.607889
    14  H    3.391581   4.582719   4.899453   3.849174   3.366678
    15  H    2.157265   2.732393   2.554921   3.398846   3.858293
    16  H    3.249449   1.998554   1.088780   4.329179   5.594879
    17  H    2.710800   2.076488   1.094397   4.006141   5.023036
    18  H    2.716863   2.076765   1.094534   4.017878   5.035303
    19  H    2.133580   2.511586   3.918456   1.078362   2.147325
    20  H    3.395708   4.478788   5.744428   2.147642   1.079598
    21  H    5.023064   6.220400   7.251581   4.211790   3.072292
    22  H    6.241481   7.529653   8.408726   5.623897   4.380167
    23  H    4.984587   6.212217   6.951160   4.652720   3.667659
    24  H    6.115397   7.449905   8.054959   5.893979   4.729501
                   11         12         13         14         15
    11  C    0.000000
    12  N    2.823528   0.000000
    13  H    3.541128   2.933137   0.000000
    14  H    3.771531   2.405818   4.555693   0.000000
    15  H    5.596985   4.817511   6.349055   2.474418   0.000000
    16  H    8.282994   8.130306   8.846054   5.984023   3.637555
    17  H    7.578086   6.890461   7.837475   4.703598   2.357266
    18  H    7.153860   6.999287   8.208579   4.713311   2.357874
    19  H    5.327771   5.962264   5.485167   4.927369   4.278564
    20  H    3.342460   4.226267   3.232310   4.238550   4.937279
    21  H    1.081766   3.687754   3.729527   4.367176   5.839197
    22  H    1.083341   3.134935   3.726734   4.563759   6.573735
    23  H    1.083421   2.990903   4.407855   3.392873   5.118229
    24  H    3.291558   1.006874   2.960796   3.347854   5.775675
                   16         17         18         19         20
    16  H    0.000000
    17  H    1.780578   0.000000
    18  H    1.780548   1.787376   0.000000
    19  H    4.371951   4.416195   4.431195   0.000000
    20  H    6.476412   6.014578   6.033465   2.502787   0.000000
    21  H    8.106733   7.601756   7.127244   4.779395   2.794670
    22  H    9.358782   8.610976   8.202692   6.337182   4.195675
    23  H    7.908700   7.217875   6.614485   5.471526   3.886951
    24  H    9.109097   7.827589   7.990466   6.836853   4.925488
                   21         22         23         24
    21  H    0.000000
    22  H    1.775491   0.000000
    23  H    1.790673   1.785770   0.000000
    24  H    4.199658   3.279645   3.588012   0.000000
 Stoichiometry    C8H12N2OS
 Framework group  C1[X(C8H12N2OS)]
 Deg. of freedom    66
 Full point group                 C1      NOp   1
 Largest Abelian subgroup         C1      NOp   1
 Largest concise Abelian subgroup C1      NOp   1
                         Standard orientation:                         
 ---------------------------------------------------------------------
 Center     Atomic      Atomic             Coordinates (Angstroms)
 Number     Number       Type             X           Y           Z
 ---------------------------------------------------------------------
      1          7           0        2.987293   -1.035787   -0.843061
      2         16           0        2.280997    0.128246   -0.127714
      3          6           0        0.485029   -0.018198   -0.089529
      4          6           0       -0.306360    1.107794   -0.011750
      5          6           0       -1.685106    0.983357    0.022043
      6          6           0       -2.267597   -0.281327   -0.025398
      7          8           0       -3.603338   -0.522378    0.003458
      8          6           0       -4.489024    0.570156    0.074352
      9          6           0       -1.451463   -1.414503   -0.113464
     10          6           0       -0.080903   -1.280879   -0.147341
     11          6           0        2.638901   -0.284101    1.620362
     12          7           0        2.488282    1.615666   -0.463026
     13          1           0        3.084729   -0.906145   -1.837077
     14          1           0        0.173965    2.072475    0.009436
     15          1           0       -2.291331    1.873114    0.082350
     16          1           0       -5.488254    0.137757    0.077840
     17          1           0       -4.383454    1.229604   -0.792646
     18          1           0       -4.342010    1.147760    0.992374
     19          1           0       -1.923862   -2.382876   -0.157693
     20          1           0        0.566136   -2.141040   -0.230979
     21          1           0        2.304543   -1.299031    1.788709
     22          1           0        3.709382   -0.213451    1.771043
     23          1           0        2.110447    0.419696    2.252190
     24          1           0        3.420564    1.836280   -0.772823
 ---------------------------------------------------------------------
 Rotational constants (GHZ):           2.2752748           0.4135131           0.3831941
 Standard basis: def2SVP (5D, 7F)
 There are   244 symmetry adapted cartesian basis functions of A   symmetry.
 There are   232 symmetry adapted basis functions of A   symmetry.
   232 basis functions,   396 primitive gaussians,   244 cartesian basis functions
    49 alpha electrons       49 beta electrons
       nuclear repulsion energy       814.5745537658 Hartrees.
 NAtoms=   24 NActive=   24 NUniq=   24 SFac= 1.00D+00 NAtFMM=   60 NAOKFM=F Big=F
 Integral buffers will be    131072 words long.
 Raffenetti 2 integral format.
 Two-electron integral symmetry is turned on.
 Nuclear repulsion after empirical dispersion term =      814.5491916740 Hartrees.
 One-electron integrals computed using PRISM.
   1 Symmetry operations used in ECPInt.
 ECPInt:  NShTT=    6105 NPrTT=   22357 LenC2=    5754 LenP2D=   15772.
 LDataN:  DoStor=T MaxTD1= 4 Len=   56
 NBasis=   232 RedAO= T EigKep=  2.37D-04  NBF=   232
 NBsUse=   232 1.00D-06 EigRej= -1.00D+00 NBFU=   232
 ExpMin= 1.22D-01 ExpMax= 9.18D+03 ExpMxC= 1.38D+03 IAcc=3 IRadAn=         5 AccDes= 0.00D+00
 Harris functional with IExCor= 1009 and IRadAn=       5 diagonalized for initial guess.
 HarFok:  IExCor= 1009 AccDes= 0.00D+00 IRadAn=         5 IDoV= 1 UseB2=F ITyADJ=14
 ICtDFT=  3500011 ScaDFX=  1.000000  1.000000  1.000000  1.000000
 FoFCou: FMM=F IPFlag=           0 FMFlag=      100000 FMFlg1=           0
         NFxFlg=           0 DoJE=T BraDBF=F KetDBF=T FulRan=T
         wScrn=  0.000000 ICntrl=       500 IOpCl=  0 I1Cent=   200000004 NGrid=           0
         NMat0=    1 NMatS0=      1 NMatT0=    0 NMatD0=    1 NMtDS0=    0 NMtDT0=    0
 Petite list used in FoFCou.
 Requested convergence on RMS density matrix=1.00D-08 within 128 cycles.
 Requested convergence on MAX density matrix=1.00D-06.
 Requested convergence on             energy=1.00D-06.
 No special actions if energy rises.
 Integral accuracy reduced to 1.0D-05 until final iterations.
 Initial convergence to 1.0D-05 achieved.  Increase integral accuracy.
 SCF Done:  E(RPBE1PBE) =  -893.670324813     A.U. after   14 cycles
            NFock= 14  Conv=0.62D-08     -V/T= 2.0061

 **********************************************************************

            Population analysis using the SCF Density.

 **********************************************************************

 Orbital symmetries:
       Occupied  (A) (A) (A) (A) (A) (A) (A) (A) (A) (A) (A) (A)
                 (A) (A) (A) (A) (A) (A) (A) (A) (A) (A) (A) (A)
                 (A) (A) (A) (A) (A) (A) (A) (A) (A) (A) (A) (A)
                 (A) (A) (A) (A) (A) (A) (A) (A) (A) (A) (A) (A)
                 (A)
       Virtual   (A) (A) (A) (A) (A) (A) (A) (A) (A) (A) (A) (A)
                 (A) (A) (A) (A) (A) (A) (A) (A) (A) (A) (A) (A)
                 (A) (A) (A) (A) (A) (A) (A) (A) (A) (A) (A) (A)
                 (A) (A) (A) (A) (A) (A) (A) (A) (A) (A) (A) (A)
                 (A) (A) (A) (A) (A) (A) (A) (A) (A) (A) (A) (A)
                 (A) (A) (A) (A) (A) (A) (A) (A) (A) (A) (A) (A)
                 (A) (A) (A) (A) (A) (A) (A) (A) (A) (A) (A) (A)
                 (A) (A) (A) (A) (A) (A) (A) (A) (A) (A) (A) (A)
                 (A) (A) (A) (A) (A) (A) (A) (A) (A) (A) (A) (A)
                 (A) (A) (A) (A) (A) (A) (A) (A) (A) (A) (A) (A)
                 (A) (A) (A) (A) (A) (A) (A) (A) (A) (A) (A) (A)
                 (A) (A) (A) (A) (A) (A) (A) (A) (A) (A) (A) (A)
                 (A) (A) (A) (A) (A) (A) (A) (A) (A) (A) (A) (A)
                 (A) (A) (A) (A) (A) (A) (A) (A) (A) (A) (A) (A)
                 (A) (A) (A) (A) (A) (A) (A) (A) (A) (A) (A) (A)
                 (A) (A) (A)
 The electronic state is 1-A.
 Alpha  occ. eigenvalues --  -89.17585 -19.25317 -14.33790 -14.33746 -10.30807
 Alpha  occ. eigenvalues --  -10.29574 -10.25226 -10.25071 -10.25055 -10.24755
 Alpha  occ. eigenvalues --  -10.24424 -10.24128  -8.14991  -6.09125  -6.09022
 Alpha  occ. eigenvalues --   -6.09004  -1.09952  -0.99806  -0.88990  -0.84569
 Alpha  occ. eigenvalues --   -0.79352  -0.78034  -0.75666  -0.72520  -0.65146
 Alpha  occ. eigenvalues --   -0.63974  -0.59885  -0.56545  -0.53813  -0.51591
 Alpha  occ. eigenvalues --   -0.49915  -0.49746  -0.47100  -0.46489  -0.45127
 Alpha  occ. eigenvalues --   -0.44360  -0.43906  -0.43213  -0.40855  -0.40151
 Alpha  occ. eigenvalues --   -0.38444  -0.35019  -0.34931  -0.33987  -0.28181
 Alpha  occ. eigenvalues --   -0.26427  -0.25040  -0.25022  -0.23380
 Alpha virt. eigenvalues --   -0.01569  -0.01260   0.06670   0.07639   0.08804
 Alpha virt. eigenvalues --    0.09019   0.10165   0.10812   0.11562   0.11736
 Alpha virt. eigenvalues --    0.12927   0.13220   0.13829   0.13985   0.14565
 Alpha virt. eigenvalues --    0.15809   0.16647   0.19107   0.19783   0.20447
 Alpha virt. eigenvalues --    0.24746   0.27945   0.30529   0.31999   0.33642
 Alpha virt. eigenvalues --    0.33996   0.39124   0.40951   0.42298   0.42860
 Alpha virt. eigenvalues --    0.44445   0.45256   0.45498   0.47259   0.48006
 Alpha virt. eigenvalues --    0.49551   0.50632   0.51152   0.53147   0.54991
 Alpha virt. eigenvalues --    0.55106   0.58356   0.59669   0.61078   0.61624
 Alpha virt. eigenvalues --    0.62753   0.64029   0.64944   0.65579   0.66187
 Alpha virt. eigenvalues --    0.66471   0.67196   0.67683   0.68246   0.69053
 Alpha virt. eigenvalues --    0.69514   0.69901   0.71174   0.72800   0.73674
 Alpha virt. eigenvalues --    0.74401   0.75548   0.76402   0.78315   0.79225
 Alpha virt. eigenvalues --    0.82568   0.83795   0.84025   0.85872   0.86845
 Alpha virt. eigenvalues --    0.88595   0.90295   0.92478   0.95752   0.97077
 Alpha virt. eigenvalues --    0.99055   1.01274   1.02530   1.05383   1.06227
 Alpha virt. eigenvalues --    1.10810   1.13245   1.13940   1.16691   1.19242
 Alpha virt. eigenvalues --    1.19987   1.20605   1.21873   1.24298   1.24791
 Alpha virt. eigenvalues --    1.26834   1.29894   1.30360   1.31636   1.32925
 Alpha virt. eigenvalues --    1.36772   1.44353   1.46598   1.47621   1.48858
 Alpha virt. eigenvalues --    1.51025   1.51344   1.52465   1.55032   1.55622
 Alpha virt. eigenvalues --    1.63878   1.66549   1.69266   1.70382   1.71048
 Alpha virt. eigenvalues --    1.73100   1.75290   1.75899   1.76756   1.77707
 Alpha virt. eigenvalues --    1.78272   1.78742   1.79920   1.80734   1.83690
 Alpha virt. eigenvalues --    1.85020   1.85872   1.89186   1.91226   1.91722
 Alpha virt. eigenvalues --    1.94872   1.95839   1.98222   1.99311   2.01432
 Alpha virt. eigenvalues --    2.02530   2.09906   2.12184   2.14501   2.15087
 Alpha virt. eigenvalues --    2.16732   2.18011   2.19432   2.20944   2.22988
 Alpha virt. eigenvalues --    2.28018   2.28308   2.30686   2.33241   2.33483
 Alpha virt. eigenvalues --    2.33844   2.36958   2.39853   2.41666   2.43830
 Alpha virt. eigenvalues --    2.44328   2.46924   2.48363   2.56153   2.58233
 Alpha virt. eigenvalues --    2.59739   2.61567   2.63962   2.65083   2.65406
 Alpha virt. eigenvalues --    2.67350   2.69041   2.74829   2.77496   2.81647
 Alpha virt. eigenvalues --    2.85004   2.86464   2.88831   2.88931   2.90310
 Alpha virt. eigenvalues --    2.93540   2.95395   2.96099   2.97149   3.01449
 Alpha virt. eigenvalues --    3.09185   3.13231   3.22016   3.28798   3.32939
 Alpha virt. eigenvalues --    3.40944   3.50520   3.72379
          Condensed to atoms (all electrons):
               1          2          3          4          5          6
     1  N    6.919497   0.349013  -0.066342   0.003400   0.000048  -0.000047
     2  S    0.349013  14.605983   0.123126  -0.030352   0.003827   0.000696
     3  C   -0.066342   0.123126   5.939630   0.256393   0.097716  -0.205473
     4  C    0.003400  -0.030352   0.256393   5.072888   0.200071   0.138174
     5  C    0.000048   0.003827   0.097716   0.200071   5.397427   0.145178
     6  C   -0.000047   0.000696  -0.205473   0.138174   0.145178   5.115463
     7  O   -0.000000   0.000001   0.000067   0.004689  -0.081009   0.395462
     8  C    0.000000  -0.000000   0.000103   0.000740  -0.000026  -0.060120
     9  C    0.001519   0.000829   0.103948  -0.119850   0.041319   0.247824
    10  C    0.007945  -0.057105   0.184266   0.056355  -0.137034   0.135343
    11  C   -0.098920   0.287897  -0.117804  -0.006329  -0.000320  -0.000127
    12  N   -0.040729   0.377571  -0.104149  -0.000589   0.001888  -0.000050
    13  H    0.324487  -0.011752  -0.002214  -0.000043  -0.000037  -0.000000
    14  H    0.000371  -0.012663  -0.062223   0.443962  -0.060367   0.013496
    15  H    0.000001  -0.000133   0.018237  -0.061346   0.463029  -0.093662
    16  H    0.000000  -0.000000   0.000006  -0.000023   0.000256   0.005062
    17  H    0.000000   0.000000  -0.000068   0.000294   0.006058  -0.007443
    18  H   -0.000000   0.000000  -0.000083   0.000354   0.006059  -0.007525
    19  H   -0.000004  -0.000135   0.017268  -0.002912   0.019554  -0.073960
    20  H    0.022199  -0.007762  -0.082218   0.012775  -0.002200   0.014405
    21  H    0.003887  -0.005708   0.000883   0.000217  -0.000011   0.000016
    22  H    0.007702  -0.007896   0.007692   0.000018   0.000000   0.000003
    23  H    0.006160  -0.015128   0.005577   0.002372   0.000227   0.000006
    24  H   -0.000186  -0.018592   0.011875  -0.000369  -0.000052   0.000008
               7          8          9         10         11         12
     1  N   -0.000000   0.000000   0.001519   0.007945  -0.098920  -0.040729
     2  S    0.000001  -0.000000   0.000829  -0.057105   0.287897   0.377571
     3  C    0.000067   0.000103   0.103948   0.184266  -0.117804  -0.104149
     4  C    0.004689   0.000740  -0.119850   0.056355  -0.006329  -0.000589
     5  C   -0.081009  -0.000026   0.041319  -0.137034  -0.000320   0.001888
     6  C    0.395462  -0.060120   0.247824   0.135343  -0.000127  -0.000050
     7  O    7.890220   0.297760  -0.076873   0.003758  -0.000000  -0.000000
     8  C    0.297760   4.427420   0.007493  -0.000317  -0.000000   0.000000
     9  C   -0.076873   0.007493   5.156000   0.262437  -0.000600  -0.000008
    10  C    0.003758  -0.000317   0.262437   5.146043  -0.003121   0.006697
    11  C   -0.000000  -0.000000  -0.000600  -0.003121   4.951537  -0.048509
    12  N   -0.000000   0.000000  -0.000008   0.006697  -0.048509   6.874647
    13  H    0.000000  -0.000000  -0.000122  -0.000971   0.009458  -0.001055
    14  H   -0.000058  -0.000033  -0.002168   0.013680   0.000870   0.032478
    15  H   -0.007920   0.008806   0.013096  -0.002092   0.000013  -0.000038
    16  H   -0.023702   0.400624  -0.000101   0.000006   0.000000   0.000000
    17  H   -0.028930   0.400642  -0.000144   0.000029  -0.000000   0.000000
    18  H   -0.029033   0.400187  -0.000216   0.000047   0.000000  -0.000000
    19  H    0.002708  -0.000350   0.450862  -0.075519   0.000018   0.000001
    20  H   -0.000072   0.000008  -0.051482   0.444403  -0.000255   0.000685
    21  H   -0.000000   0.000000   0.000307   0.003542   0.354386   0.003481
    22  H    0.000000   0.000000  -0.000004   0.000071   0.361796   0.000523
    23  H   -0.000000   0.000000   0.000012  -0.001316   0.361843   0.003998
    24  H    0.000000  -0.000000  -0.000010  -0.000321  -0.005215   0.332488
              13         14         15         16         17         18
     1  N    0.324487   0.000371   0.000001   0.000000   0.000000  -0.000000
     2  S   -0.011752  -0.012663  -0.000133  -0.000000   0.000000   0.000000
     3  C   -0.002214  -0.062223   0.018237   0.000006  -0.000068  -0.000083
     4  C   -0.000043   0.443962  -0.061346  -0.000023   0.000294   0.000354
     5  C   -0.000037  -0.060367   0.463029   0.000256   0.006058   0.006059
     6  C   -0.000000   0.013496  -0.093662   0.005062  -0.007443  -0.007525
     7  O    0.000000  -0.000058  -0.007920  -0.023702  -0.028930  -0.029033
     8  C   -0.000000  -0.000033   0.008806   0.400624   0.400642   0.400187
     9  C   -0.000122  -0.002168   0.013096  -0.000101  -0.000144  -0.000216
    10  C   -0.000971   0.013680  -0.002092   0.000006   0.000029   0.000047
    11  C    0.009458   0.000870   0.000013   0.000000  -0.000000   0.000000
    12  N   -0.001055   0.032478  -0.000038   0.000000   0.000000  -0.000000
    13  H    0.561656  -0.000007   0.000000  -0.000000  -0.000000   0.000000
    14  H   -0.000007   0.608296  -0.012138  -0.000001   0.000021   0.000021
    15  H    0.000000  -0.012138   0.666092  -0.000256   0.000761   0.000700
    16  H   -0.000000  -0.000001  -0.000256   0.602316  -0.023051  -0.023422
    17  H   -0.000000   0.000021   0.000761  -0.023051   0.646393  -0.043960
    18  H    0.000000   0.000021   0.000700  -0.023422  -0.043960   0.648900
    19  H    0.000003   0.000029  -0.000205  -0.000140   0.000093   0.000091
    20  H   -0.000477  -0.000388   0.000033  -0.000000  -0.000000  -0.000000
    21  H   -0.000775  -0.000060   0.000000  -0.000000  -0.000000  -0.000000
    22  H   -0.000550  -0.000072  -0.000000  -0.000000   0.000000  -0.000000
    23  H   -0.000432   0.000314  -0.000010  -0.000000  -0.000000   0.000000
    24  H    0.001368  -0.001028  -0.000002  -0.000000  -0.000000   0.000000
              19         20         21         22         23         24
     1  N   -0.000004   0.022199   0.003887   0.007702   0.006160  -0.000186
     2  S   -0.000135  -0.007762  -0.005708  -0.007896  -0.015128  -0.018592
     3  C    0.017268  -0.082218   0.000883   0.007692   0.005577   0.011875
     4  C   -0.002912   0.012775   0.000217   0.000018   0.002372  -0.000369
     5  C    0.019554  -0.002200  -0.000011   0.000000   0.000227  -0.000052
     6  C   -0.073960   0.014405   0.000016   0.000003   0.000006   0.000008
     7  O    0.002708  -0.000072  -0.000000   0.000000  -0.000000   0.000000
     8  C   -0.000350   0.000008   0.000000   0.000000   0.000000  -0.000000
     9  C    0.450862  -0.051482   0.000307  -0.000004   0.000012  -0.000010
    10  C   -0.075519   0.444403   0.003542   0.000071  -0.001316  -0.000321
    11  C    0.000018  -0.000255   0.354386   0.361796   0.361843  -0.005215
    12  N    0.000001   0.000685   0.003481   0.000523   0.003998   0.332488
    13  H    0.000003  -0.000477  -0.000775  -0.000550  -0.000432   0.001368
    14  H    0.000029  -0.000388  -0.000060  -0.000072   0.000314  -0.001028
    15  H   -0.000205   0.000033   0.000000  -0.000000  -0.000010  -0.000002
    16  H   -0.000140  -0.000000  -0.000000  -0.000000  -0.000000  -0.000000
    17  H    0.000093  -0.000000  -0.000000   0.000000  -0.000000  -0.000000
    18  H    0.000091  -0.000000  -0.000000  -0.000000   0.000000   0.000000
    19  H    0.657213  -0.012089  -0.000008  -0.000001  -0.000001  -0.000000
    20  H   -0.012089   0.634710   0.001454  -0.000134   0.000025  -0.000049
    21  H   -0.000008   0.001454   0.582572  -0.006724  -0.013475  -0.000043
    22  H   -0.000001  -0.000134  -0.006724   0.563934  -0.010558   0.001736
    23  H   -0.000001   0.000025  -0.013475  -0.010558   0.590138  -0.000136
    24  H   -0.000000  -0.000049  -0.000043   0.001736  -0.000136   0.557124
 Mulliken charges:
               1
     1  N   -0.440003
     2  S    0.418283
     3  C   -0.126211
     4  C    0.029110
     5  C   -0.101601
     6  C    0.237269
     7  O   -0.347068
     8  C    0.117064
     9  C   -0.034070
    10  C    0.013173
    11  C   -0.046619
    12  N   -0.439331
    13  H    0.121464
    14  H    0.037669
    15  H    0.007034
    16  H    0.062426
    17  H    0.049304
    18  H    0.047878
    19  H    0.017484
    20  H    0.026430
    21  H    0.076060
    22  H    0.082464
    23  H    0.070383
    24  H    0.121405
 Sum of Mulliken charges =  -0.00000
 Mulliken charges with hydrogens summed into heavy atoms:
               1
     1  N   -0.318539
     2  S    0.418283
     3  C   -0.126211
     4  C    0.066779
     5  C   -0.094567
     6  C    0.237269
     7  O   -0.347068
     8  C    0.276673
     9  C   -0.016586
    10  C    0.039603
    11  C    0.182289
    12  N   -0.317925
 Electronic spatial extent (au):  <R**2>=           2929.9628
 Charge=             -0.0000 electrons
 Dipole moment (field-independent basis, Debye):
    X=             -2.4161    Y=              0.8908    Z=              1.1187  Tot=              2.8075
 Quadrupole moment (field-independent basis, Debye-Ang):
   XX=            -68.6306   YY=            -80.8107   ZZ=            -76.4877
   XY=             -2.4389   XZ=              1.4164   YZ=              0.0536
 Traceless Quadrupole moment (field-independent basis, Debye-Ang):
   XX=              6.6791   YY=             -5.5011   ZZ=             -1.1780
   XY=             -2.4389   XZ=              1.4164   YZ=              0.0536
 Octapole moment (field-independent basis, Debye-Ang**2):
  XXX=            -52.0564  YYY=             -6.0455  ZZZ=             -4.1589  XYY=            -18.9634
  XXY=             42.2747  XXZ=              3.0266  XZZ=             15.3847  YZZ=             -1.5262
  YYZ=              1.8351  XYZ=             -3.9575
 Hexadecapole moment (field-independent basis, Debye-Ang**3):
 XXXX=          -2673.7755 YYYY=           -515.8101 ZZZZ=           -251.8847 XXXY=             17.2399
 XXXZ=            -12.7737 YYYX=             10.8798 YYYZ=             -1.5552 ZZZX=            -20.7658
 ZZZY=              7.3986 XXYY=           -611.8231 XXZZ=           -507.6323 YYZZ=           -134.0491
 XXYZ=            -15.3357 YYXZ=              0.7935 ZZXY=             -6.1045
 N-N= 8.145491916740D+02 E-N=-3.726716561648D+03  KE= 8.882319488009D+02
   1 Symmetry operations used in ECPInt.
 ECPInt:  NShTT=    6105 NPrTT=   22357 LenC2=    5754 LenP2D=   15772.
 LDataN:  DoStor=T MaxTD1= 5 Len=  102
 Calling FoFJK, ICntrl=      2127 FMM=F ISym2X=0 I1Cent= 0 IOpClX= 0 NMat=1 NMatS=1 NMatT=0.
 ***** Axes restored to original set *****
 -------------------------------------------------------------------
 Center     Atomic                   Forces (Hartrees/Bohr)
 Number     Number              X              Y              Z
 -------------------------------------------------------------------
      1        7          -0.004798455   -0.005069827    0.019045867
      2       16          -0.007362296   -0.005364022    0.002279026
      3        6          -0.010724818   -0.002189430   -0.004137908
      4        6           0.001358372   -0.000925167   -0.000976950
      5        6           0.003579525    0.000438260    0.000853350
      6        6           0.013625517    0.002981644    0.004774374
      7        8          -0.008911375   -0.002665423   -0.004288315
      8        6          -0.006590498    0.005707247    0.007638086
      9        6           0.001495444   -0.002125714   -0.002305945
     10        6          -0.000890281    0.000564119    0.001155444
     11        6           0.004460088    0.012003242   -0.010296179
     12        7           0.017871338   -0.004864138   -0.003720502
     13        1           0.004850414    0.005636986   -0.011121088
     14        1          -0.004316664   -0.005015839   -0.007719675
     15        1           0.005017831   -0.004396874   -0.005878285
     16        1           0.005945492    0.000220977    0.000563532
     17        1          -0.000413656    0.001425639   -0.005918186
     18        1          -0.000631494   -0.006012916   -0.000442017
     19        1           0.004455269    0.005049808    0.006626300
     20        1          -0.005205025    0.006022894    0.006516562
     21        1           0.003345964    0.002973663    0.009715503
     22        1          -0.010351839    0.001060224   -0.001933364
     23        1           0.005366967   -0.007090271   -0.003695797
     24        1          -0.011175819    0.001634917    0.003266164
 -------------------------------------------------------------------
 Cartesian Forces:  Max     0.019045867 RMS     0.006319714

 GradGradGradGradGradGradGradGradGradGradGradGradGradGradGradGradGradGrad
 Berny optimization.
 FormGI is forming the generalized inverse of G from B-inverse, IUseBI=4.
 Internal  Forces:  Max     0.013030991 RMS     0.004473760
 Search for a local minimum.
 Step number   1 out of a maximum of  123
 All quantities printed in internal units (Hartrees-Bohrs-Radians)
 Mixed Optimization -- RFO/linear search
 Second derivative matrix not updated -- first step.
 ITU=  0
     Eigenvalues ---    0.00230   0.00339   0.01543   0.01583   0.02148
     Eigenvalues ---    0.02189   0.02230   0.02251   0.02252   0.02296
     Eigenvalues ---    0.02321   0.02336   0.02351   0.03429   0.03439
     Eigenvalues ---    0.05932   0.06051   0.06655   0.08380   0.09381
     Eigenvalues ---    0.10085   0.10735   0.15708   0.15998   0.15999
     Eigenvalues ---    0.16000   0.16000   0.16000   0.16000   0.16000
     Eigenvalues ---    0.16000   0.16000   0.16000   0.16000   0.16000
     Eigenvalues ---    0.19138   0.22000   0.22980   0.23794   0.24000
     Eigenvalues ---    0.25000   0.25000   0.25000   0.25934   0.34294
     Eigenvalues ---    0.34309   0.34954   0.35584   0.35594   0.35782
     Eigenvalues ---    0.36043   0.36193   0.36196   0.36255   0.42907
     Eigenvalues ---    0.43485   0.44284   0.46452   0.46500   0.46906
     Eigenvalues ---    0.47671   0.48735   0.49271   0.53431   0.65147
     Eigenvalues ---    0.65344
 RFO step:  Lambda=-7.75239560D-03 EMin= 2.30000000D-03
 Linear search not attempted -- first point.
 Iteration  1 RMS(Cart)=  0.03388587 RMS(Int)=  0.00089137
 Iteration  2 RMS(Cart)=  0.00101193 RMS(Int)=  0.00007901
 Iteration  3 RMS(Cart)=  0.00000127 RMS(Int)=  0.00007901
 Iteration  4 RMS(Cart)=  0.00000000 RMS(Int)=  0.00007901
 Variable       Old X    -DE/DX   Delta X   Delta X   Delta X     New X
                                 (Linear)    (Quad)   (Total)
    R1        2.90646   0.00348   0.00000   0.00526   0.00526   2.91172
    R2        1.90325   0.01100   0.00000   0.02330   0.02330   1.92655
    R3        3.40592  -0.00241   0.00000  -0.00902  -0.00902   3.39690
    R4        3.46078  -0.01097   0.00000  -0.04467  -0.04467   3.41611
    R5        2.90786   0.00046   0.00000   0.00070   0.00070   2.90855
    R6        2.60495   0.01137   0.00000   0.02329   0.02329   2.62824
    R7        2.61711   0.01054   0.00000   0.02197   0.02198   2.63908
    R8        2.61682   0.00936   0.00000   0.01928   0.01928   2.63610
    R9        2.03685   0.01015   0.00000   0.02741   0.02741   2.06426
   R10        2.63274   0.00702   0.00000   0.01430   0.01430   2.64704
   R11        2.03776   0.00889   0.00000   0.02404   0.02404   2.06180
   R12        2.56554  -0.01090   0.00000  -0.02011  -0.02011   2.54543
   R13        2.64421   0.00513   0.00000   0.01037   0.01036   2.65457
   R14        2.66116  -0.00283   0.00000  -0.00629  -0.00629   2.65487
   R15        2.05750   0.00574   0.00000   0.01607   0.01607   2.07357
   R16        2.06811   0.00607   0.00000   0.01729   0.01729   2.08540
   R17        2.06837   0.00602   0.00000   0.01718   0.01718   2.08555
   R18        2.60305   0.00828   0.00000   0.01628   0.01628   2.61933
   R19        2.03781   0.00945   0.00000   0.02555   0.02555   2.06336
   R20        2.04014   0.01024   0.00000   0.02781   0.02781   2.06795
   R21        2.04424   0.01062   0.00000   0.02906   0.02906   2.07330
   R22        2.04722   0.01001   0.00000   0.02753   0.02753   2.07475
   R23        2.04737   0.00941   0.00000   0.02588   0.02588   2.07325
   R24        1.90272   0.00958   0.00000   0.02026   0.02026   1.92298
    A1        1.98891  -0.01303   0.00000  -0.07768  -0.07768   1.91123
    A2        1.98882  -0.00164   0.00000  -0.01351  -0.01343   1.97539
    A3        1.75565  -0.00203   0.00000  -0.00808  -0.00813   1.74752
    A4        2.17531   0.00404   0.00000   0.02902   0.02900   2.20431
    A5        1.72766   0.00285   0.00000   0.00813   0.00809   1.73576
    A6        1.78994  -0.00235   0.00000  -0.01569  -0.01563   1.77431
    A7        1.98157  -0.00093   0.00000  -0.00343  -0.00346   1.97810
    A8        2.10238   0.00407   0.00000   0.01461   0.01458   2.11697
    A9        2.07190  -0.00456   0.00000  -0.01884  -0.01887   2.05303
   A10        2.10889   0.00049   0.00000   0.00417   0.00416   2.11305
   A11        2.09391  -0.00183   0.00000  -0.00601  -0.00600   2.08791
   A12        2.06729   0.00145   0.00000   0.00617   0.00616   2.07344
   A13        2.12191   0.00038   0.00000  -0.00021  -0.00022   2.12170
   A14        2.09096  -0.00035   0.00000  -0.00182  -0.00182   2.08914
   A15        2.07940   0.00046   0.00000   0.00263   0.00262   2.08203
   A16        2.11282  -0.00012   0.00000  -0.00082  -0.00082   2.11200
   A17        2.17951  -0.00408   0.00000  -0.01492  -0.01492   2.16459
   A18        2.08682   0.00276   0.00000   0.00892   0.00891   2.09573
   A19        2.01685   0.00131   0.00000   0.00598   0.00598   2.02283
   A20        2.07387  -0.00239   0.00000  -0.00926  -0.00926   2.06461
   A21        1.84342   0.00243   0.00000   0.01549   0.01546   1.85888
   A22        1.94651   0.00029   0.00000   0.00120   0.00118   1.94769
   A23        1.94675   0.00029   0.00000   0.00121   0.00119   1.94795
   A24        1.90749  -0.00096   0.00000  -0.00473  -0.00476   1.90273
   A25        1.90727  -0.00097   0.00000  -0.00480  -0.00483   1.90244
   A26        1.91083  -0.00104   0.00000  -0.00791  -0.00792   1.90291
   A27        2.09824  -0.00027   0.00000  -0.00263  -0.00264   2.09560
   A28        2.06498   0.00006   0.00000   0.00086   0.00086   2.06584
   A29        2.11996   0.00021   0.00000   0.00174   0.00173   2.12170
   A30        2.08749  -0.00081   0.00000  -0.00269  -0.00270   2.08479
   A31        2.07687   0.00123   0.00000   0.00623   0.00622   2.08308
   A32        2.11875  -0.00043   0.00000  -0.00365  -0.00366   2.11509
   A33        1.87485   0.00319   0.00000   0.02170   0.02182   1.89667
   A34        1.88724  -0.00510   0.00000  -0.03235  -0.03249   1.85475
   A35        1.89132  -0.00261   0.00000  -0.01634  -0.01652   1.87481
   A36        1.92299   0.00107   0.00000   0.00795   0.00815   1.93114
   A37        1.94760   0.00025   0.00000   0.00556   0.00563   1.95324
   A38        1.93745   0.00294   0.00000   0.01195   0.01146   1.94891
   A39        1.98621  -0.01171   0.00000  -0.06980  -0.06980   1.91641
    D1        1.52640  -0.00297   0.00000  -0.04953  -0.04963   1.47678
    D2       -2.92611  -0.00127   0.00000  -0.04861  -0.04862  -2.97473
    D3       -0.68286  -0.00154   0.00000  -0.03902  -0.03892  -0.72178
    D4       -2.67146  -0.00112   0.00000  -0.01311  -0.01320  -2.68465
    D5        0.46392  -0.00139   0.00000  -0.02464  -0.02472   0.43920
    D6        1.76351   0.00021   0.00000  -0.00414  -0.00415   1.75936
    D7       -1.38430  -0.00006   0.00000  -0.01568  -0.01567  -1.39997
    D8       -0.27339   0.00094   0.00000   0.00137   0.00144  -0.27195
    D9        2.86199   0.00068   0.00000  -0.01017  -0.01008   2.85191
   D10       -0.94312   0.00158   0.00000   0.01449   0.01450  -0.92862
   D11        1.13195   0.00184   0.00000   0.01833   0.01810   1.15006
   D12       -3.04969   0.00092   0.00000   0.00462   0.00475  -3.04494
   D13        1.09187   0.00013   0.00000   0.00043   0.00046   1.09233
   D14       -3.11624   0.00039   0.00000   0.00427   0.00407  -3.11217
   D15       -1.01470  -0.00053   0.00000  -0.00945  -0.00929  -1.02399
   D16        2.97675  -0.00136   0.00000  -0.01427  -0.01420   2.96255
   D17       -1.23136  -0.00110   0.00000  -0.01043  -0.01060  -1.24196
   D18        0.87018  -0.00203   0.00000  -0.02415  -0.02395   0.84623
   D19       -0.57473  -0.00209   0.00000  -0.04838  -0.04850  -0.62324
   D20       -2.86547  -0.00065   0.00000  -0.03663  -0.03654  -2.90201
   D21        1.57189  -0.00238   0.00000  -0.03665  -0.03661   1.53528
   D22       -3.13735  -0.00016   0.00000  -0.00621  -0.00633   3.13950
   D23        0.01684  -0.00001   0.00000  -0.00158  -0.00167   0.01517
   D24        0.01059   0.00013   0.00000   0.00565   0.00566   0.01625
   D25       -3.11840   0.00028   0.00000   0.01028   0.01032  -3.10808
   D26        3.13660   0.00012   0.00000   0.00568   0.00559  -3.14099
   D27       -0.01846  -0.00017   0.00000  -0.00317  -0.00327  -0.02173
   D28       -0.01123  -0.00013   0.00000  -0.00587  -0.00586  -0.01709
   D29        3.11689  -0.00042   0.00000  -0.01472  -0.01473   3.10217
   D30       -0.00216  -0.00004   0.00000  -0.00182  -0.00184  -0.00400
   D31       -3.14096   0.00007   0.00000   0.00188   0.00188  -3.13908
   D32        3.12642  -0.00020   0.00000  -0.00655  -0.00658   3.11984
   D33       -0.01237  -0.00009   0.00000  -0.00285  -0.00287  -0.01524
   D34        3.13957   0.00007   0.00000   0.00261   0.00260  -3.14101
   D35       -0.00542  -0.00004   0.00000  -0.00174  -0.00172  -0.00715
   D36       -0.00487  -0.00004   0.00000  -0.00116  -0.00118  -0.00605
   D37        3.13331  -0.00015   0.00000  -0.00550  -0.00550   3.12781
   D38        0.01057  -0.00010   0.00000  -0.00354  -0.00352   0.00705
   D39       -3.12774   0.00001   0.00000   0.00064   0.00062  -3.12711
   D40        0.00476   0.00004   0.00000   0.00152   0.00154   0.00630
   D41       -3.13234   0.00021   0.00000   0.00755   0.00754  -3.12480
   D42       -3.13993  -0.00008   0.00000  -0.00247  -0.00248   3.14077
   D43        0.00615   0.00010   0.00000   0.00356   0.00352   0.00968
   D44        3.13428   0.00002   0.00000   0.00093   0.00093   3.13521
   D45        1.06391  -0.00044   0.00000  -0.00336  -0.00338   1.06054
   D46       -1.07868   0.00048   0.00000   0.00515   0.00517  -1.07352
   D47        0.00348   0.00005   0.00000   0.00223   0.00220   0.00568
   D48       -3.12431   0.00033   0.00000   0.01122   0.01116  -3.11315
   D49        3.14044  -0.00013   0.00000  -0.00400  -0.00400   3.13644
   D50        0.01265   0.00015   0.00000   0.00499   0.00495   0.01760
         Item               Value     Threshold  Converged?
 Maximum Force            0.013031     0.000450     NO 
 RMS     Force            0.004474     0.000300     NO 
 Maximum Displacement     0.200672     0.001800     NO 
 RMS     Displacement     0.034276     0.001200     NO 
 Predicted change in Energy=-4.039014D-03
 GradGradGradGradGradGradGradGradGradGradGradGradGradGradGradGradGradGrad

                          Input orientation:                          
 ---------------------------------------------------------------------
 Center     Atomic      Atomic             Coordinates (Angstroms)
 Number     Number       Type             X           Y           Z
 ---------------------------------------------------------------------
      1          7           0       -2.911372    1.304264    0.503224
      2         16           0       -2.268247    0.047455   -0.113979
      3          6           0       -0.472910    0.054915   -0.024929
      4          6           0        0.298820   -0.650344   -0.942196
      5          6           0        1.689826   -0.618374   -0.842135
      6          6           0        2.295316    0.127100    0.177552
      7          8           0        3.627449    0.219280    0.354444
      8          6           0        4.466945   -0.465329   -0.540145
      9          6           0        1.504116    0.845625    1.089152
     10          6           0        0.122258    0.812450    0.986135
     11          6           0       -2.624735   -1.161134    1.182210
     12          7           0       -2.506983   -0.493987   -1.534824
     13          1           0       -2.931235    2.051747   -0.189760
     14          1           0       -0.204674   -1.205203   -1.737100
     15          1           0        2.289939   -1.171727   -1.566064
     16          1           0        5.496599   -0.254116   -0.225129
     17          1           0        4.328731   -0.113483   -1.576926
     18          1           0        4.296591   -1.555137   -0.504282
     19          1           0        2.005685    1.430061    1.863149
     20          1           0       -0.510873    1.386139    1.669907
     21          1           0       -2.258930   -0.768211    2.139037
     22          1           0       -3.716338   -1.276773    1.203143
     23          1           0       -2.123540   -2.097015    0.905451
     24          1           0       -3.476028   -0.339575   -1.804283
 ---------------------------------------------------------------------
                    Distance matrix (angstroms):
                    1          2          3          4          5
     1  N    0.000000
     2  S    1.540818   0.000000
     3  C    2.790326   1.797560   0.000000
     4  C    4.026794   2.786162   1.390804   0.000000
     5  C    5.165032   4.079201   2.408022   1.394967   0.000000
     6  C    5.348026   4.573559   2.776560   2.417489   1.400754
     7  O    6.629895   5.916770   4.121150   3.676587   2.426489
     8  C    7.658958   6.768114   4.993823   4.191556   2.797679
     9  C    4.477745   4.039223   2.403129   2.795896   2.430566
    10  C    3.110948   2.740434   1.396543   2.426808   2.801267
    11  C    2.573203   1.807727   2.750693   3.649819   4.796665
    12  N    2.747886   1.539141   2.592013   2.871965   4.255407
    13  H    1.019486   2.112459   3.171415   4.277933   5.376741
    14  H    4.317719   2.908953   2.142750   1.092359   2.175882
    15  H    6.120958   4.936802   3.393093   2.150722   1.091058
    16  H    8.582135   7.771495   5.980854   5.261948   3.873616
    17  H    7.665255   6.759159   5.049040   4.114764   2.785436
    18  H    7.819590   6.768880   5.056697   4.122208   2.790501
    19  H    5.103203   4.907864   3.405774   3.887343   3.407992
    20  H    2.670253   2.839487   2.155474   3.409684   3.895061
    21  H    2.719691   2.396138   2.924064   4.006241   4.950001
    22  H    2.792778   2.363336   3.715021   4.595257   5.817496
    23  H    3.514422   2.378850   2.867227   3.372608   4.447719
    24  H    2.888881   2.113210   3.512897   3.884489   5.262082
                    6          7          8          9         10
     6  C    0.000000
     7  O    1.346984   0.000000
     8  C    2.362632   1.404896   0.000000
     9  C    1.404739   2.332519   3.626509   0.000000
    10  C    2.417787   3.610712   4.778970   1.386090   0.000000
    11  C    5.184187   6.456047   7.330933   4.591640   3.388134
    12  N    5.136152   6.458276   7.044563   4.976819   3.869744
    13  H    5.581758   6.831576   7.822500   4.771026   3.498915
    14  H    3.419193   4.592263   4.878949   3.887617   3.404970
    15  H    2.174207   2.722532   2.508159   3.425989   3.892238
    16  H    3.248952   2.013389   1.097285   4.344731   5.611441
    17  H    2.696451   2.081519   1.103546   4.000789   5.012090
    18  H    2.701837   2.081758   1.103624   4.012556   5.025124
    19  H    2.150077   2.524341   3.927611   1.091883   2.167463
    20  H    3.418626   4.496411   5.752472   2.165551   1.094312
    21  H    5.038865   6.229716   7.246181   4.226965   3.081839
    22  H    6.258010   7.542524   8.406165   5.636551   4.375702
    23  H    5.000282   6.224364   6.941660   4.674694   3.676290
    24  H    6.119957   7.445254   8.043922   5.880349   4.696941
                   11         12         13         14         15
    11  C    0.000000
    12  N    2.800219   0.000000
    13  H    3.506972   2.910317   0.000000
    14  H    3.792230   2.418133   4.520632   0.000000
    15  H    5.630909   4.844663   6.288533   2.500694   0.000000
    16  H    8.292126   8.113579   8.737657   5.974541   3.594828
    17  H    7.553879   6.846425   7.701919   4.665755   2.297100
    18  H    7.134722   6.962519   8.083935   4.680138   2.302398
    19  H    5.349651   5.967609   5.382761   4.979167   4.313885
    20  H    3.345873   4.217775   3.124027   4.291446   4.985853
    21  H    1.097142   3.692422   3.718528   4.408556   5.880714
    22  H    1.097911   3.093826   3.692642   4.580604   6.614749
    23  H    1.097116   2.944770   4.366244   3.385329   5.142309
    24  H    3.212289   1.017596   2.936308   3.384610   5.830575
                   16         17         18         19         20
    16  H    0.000000
    17  H    1.791940   0.000000
    18  H    1.791815   1.797210   0.000000
    19  H    4.402708   4.428678   4.445715   0.000000
    20  H    6.509326   6.017687   6.040689   2.524349   0.000000
    21  H    8.124150   7.591727   7.112049   4.805773   2.813718
    22  H    9.378913   8.590993   8.197550   6.364284   4.193325
    23  H    7.920923   7.192246   6.595383   5.514340   3.913752
    24  H    9.110932   7.811343   7.973783   6.828679   4.882646
                   21         22         23         24
    21  H    0.000000
    22  H    1.805152   0.000000
    23  H    1.818182   1.816156   0.000000
    24  H    4.149076   3.159225   3.501497   0.000000
 Stoichiometry    C8H12N2OS
 Framework group  C1[X(C8H12N2OS)]
 Deg. of freedom    66
 Full point group                 C1      NOp   1
 Largest Abelian subgroup         C1      NOp   1
 Largest concise Abelian subgroup C1      NOp   1
                         Standard orientation:                         
 ---------------------------------------------------------------------
 Center     Atomic      Atomic             Coordinates (Angstroms)
 Number     Number       Type             X           Y           Z
 ---------------------------------------------------------------------
      1          7           0        2.959324   -1.073694   -0.818541
      2         16           0        2.282230    0.126825   -0.129760
      3          6           0        0.490097   -0.003860   -0.080779
      4          6           0       -0.315284    1.128186   -0.016209
      5          6           0       -1.702623    0.986517    0.017722
      6          6           0       -2.270621   -0.293398   -0.018417
      7          8           0       -3.596249   -0.530702    0.009185
      8          6           0       -4.468479    0.568972    0.069739
      9          6           0       -1.445732   -1.427702   -0.097183
     10          6           0       -0.067631   -1.283185   -0.131770
     11          6           0        2.654514   -0.247281    1.599207
     12          7           0        2.476225    1.611105   -0.487858
     13          1           0        2.972123   -0.924778   -1.827012
     14          1           0        0.159352    2.112020   -0.009790
     15          1           0       -2.329251    1.878379    0.065976
     16          1           0       -5.486458    0.159450    0.076542
     17          1           0       -4.352031    1.228500   -0.807344
     18          1           0       -4.313127    1.160863    0.988171
     19          1           0       -1.918554   -2.410977   -0.139824
     20          1           0        0.591257   -2.152479   -0.219599
     21          1           0        2.319341   -1.268898    1.817561
     22          1           0        3.744496   -0.166855    1.703513
     23          1           0        2.132766    0.495338    2.215616
     24          1           0        3.440119    1.774487   -0.770198
 ---------------------------------------------------------------------
 Rotational constants (GHZ):           2.2680883           0.4156304           0.3839304
 Standard basis: def2SVP (5D, 7F)
 There are   244 symmetry adapted cartesian basis functions of A   symmetry.
 There are   232 symmetry adapted basis functions of A   symmetry.
   232 basis functions,   396 primitive gaussians,   244 cartesian basis functions
    49 alpha electrons       49 beta electrons
       nuclear repulsion energy       814.5668542767 Hartrees.
 NAtoms=   24 NActive=   24 NUniq=   24 SFac= 1.00D+00 NAtFMM=   60 NAOKFM=F Big=F
 Integral buffers will be    131072 words long.
 Raffenetti 2 integral format.
 Two-electron integral symmetry is turned on.
 Nuclear repulsion after empirical dispersion term =      814.5414301167 Hartrees.
 One-electron integrals computed using PRISM.
   1 Symmetry operations used in ECPInt.
 ECPInt:  NShTT=    6105 NPrTT=   22357 LenC2=    5753 LenP2D=   15765.
 LDataN:  DoStor=T MaxTD1= 4 Len=   56
 NBasis=   232 RedAO= T EigKep=  2.54D-04  NBF=   232
 NBsUse=   232 1.00D-06 EigRej= -1.00D+00 NBFU=   232
 Initial guess from the checkpoint file:  "SDI0017_2.chk"
 B after Tr=    -0.000000    0.000000    0.000000
         Rot=    0.999971    0.007549   -0.000980   -0.000265 Ang=   0.87 deg.
 ExpMin= 1.22D-01 ExpMax= 9.18D+03 ExpMxC= 1.38D+03 IAcc=3 IRadAn=         5 AccDes= 0.00D+00
 Harris functional with IExCor= 1009 and IRadAn=       5 diagonalized for initial guess.
 HarFok:  IExCor= 1009 AccDes= 0.00D+00 IRadAn=         5 IDoV= 1 UseB2=F ITyADJ=14
 ICtDFT=  3500011 ScaDFX=  1.000000  1.000000  1.000000  1.000000
 FoFCou: FMM=F IPFlag=           0 FMFlag=      100000 FMFlg1=           0
         NFxFlg=           0 DoJE=T BraDBF=F KetDBF=T FulRan=T
         wScrn=  0.000000 ICntrl=       500 IOpCl=  0 I1Cent=   200000004 NGrid=           0
         NMat0=    1 NMatS0=      1 NMatT0=    0 NMatD0=    1 NMtDS0=    0 NMtDT0=    0
 Petite list used in FoFCou.
 Requested convergence on RMS density matrix=1.00D-08 within 128 cycles.
 Requested convergence on MAX density matrix=1.00D-06.
 Requested convergence on             energy=1.00D-06.
 No special actions if energy rises.
 Integral accuracy reduced to 1.0D-05 until final iterations.
 Initial convergence to 1.0D-05 achieved.  Increase integral accuracy.
 SCF Done:  E(RPBE1PBE) =  -893.674672450     A.U. after   12 cycles
            NFock= 12  Conv=0.70D-08     -V/T= 2.0064
   1 Symmetry operations used in ECPInt.
 ECPInt:  NShTT=    6105 NPrTT=   22357 LenC2=    5753 LenP2D=   15765.
 LDataN:  DoStor=T MaxTD1= 5 Len=  102
 Calling FoFJK, ICntrl=      2127 FMM=F ISym2X=0 I1Cent= 0 IOpClX= 0 NMat=1 NMatS=1 NMatT=0.
 ***** Axes restored to original set *****
 -------------------------------------------------------------------
 Center     Atomic                   Forces (Hartrees/Bohr)
 Number     Number              X              Y              Z
 -------------------------------------------------------------------
      1        7          -0.007378239    0.004703889    0.004450033
      2       16           0.006505757   -0.006718776    0.007236606
      3        6          -0.000249152   -0.000335407   -0.002033457
      4        6           0.000924649    0.000516645    0.000885402
      5        6          -0.001666424   -0.000299445   -0.000472226
      6        6           0.002284077    0.001149646    0.001519820
      7        8          -0.000717278   -0.001794872   -0.002503156
      8        6          -0.000357095    0.001730485    0.002381809
      9        6          -0.000738339   -0.000357954   -0.000399661
     10        6           0.000608768   -0.000131919   -0.000220871
     11        6           0.000620267    0.002375058   -0.001936997
     12        7           0.001571702   -0.000075815   -0.008076015
     13        1           0.003127622    0.001848212   -0.002341389
     14        1           0.000222984    0.000416374    0.000505996
     15        1          -0.000671905    0.000414853    0.000465409
     16        1          -0.000051481   -0.000128335   -0.000155956
     17        1           0.000268858   -0.000152685   -0.000215980
     18        1           0.000230151   -0.000172230   -0.000222990
     19        1          -0.000037170   -0.000216682   -0.000327442
     20        1           0.000096786   -0.000293091   -0.000560274
     21        1          -0.000595295   -0.001078618    0.000104023
     22        1          -0.000040132    0.000012761    0.000026454
     23        1          -0.000435861    0.000059771    0.000200169
     24        1          -0.003523250   -0.001471865    0.001690694
 -------------------------------------------------------------------
 Cartesian Forces:  Max     0.008076015 RMS     0.002333285

 GradGradGradGradGradGradGradGradGradGradGradGradGradGradGradGradGradGrad
 Berny optimization.
 Using GEDIIS/GDIIS optimizer.
 FormGI is forming the generalized inverse of G from B-inverse, IUseBI=4.
 Internal  Forces:  Max     0.007963838 RMS     0.001405586
 Search for a local minimum.
 Step number   2 out of a maximum of  123
 All quantities printed in internal units (Hartrees-Bohrs-Radians)
 Mixed Optimization -- RFO/linear search
 Update second derivatives using D2CorX and points    1    2
 DE= -4.35D-03 DEPred=-4.04D-03 R= 1.08D+00
 TightC=F SS=  1.41D+00  RLast= 2.05D-01 DXNew= 5.0454D-01 6.1603D-01
 Trust test= 1.08D+00 RLast= 2.05D-01 DXMaxT set to 5.05D-01
 ITU=  1  0
 Use linear search instead of GDIIS.
     Eigenvalues ---    0.00230   0.00340   0.01547   0.01583   0.02148
     Eigenvalues ---    0.02189   0.02231   0.02252   0.02252   0.02296
     Eigenvalues ---    0.02321   0.02336   0.02351   0.03084   0.03435
     Eigenvalues ---    0.05959   0.06192   0.06617   0.08653   0.09462
     Eigenvalues ---    0.10087   0.10638   0.14110   0.15779   0.15996
     Eigenvalues ---    0.15998   0.15999   0.16000   0.16000   0.16000
     Eigenvalues ---    0.16000   0.16000   0.16000   0.16000   0.16195
     Eigenvalues ---    0.19150   0.21997   0.22983   0.23270   0.24152
     Eigenvalues ---    0.24801   0.24999   0.25628   0.26006   0.34299
     Eigenvalues ---    0.34327   0.34977   0.35584   0.35638   0.35857
     Eigenvalues ---    0.36087   0.36186   0.36234   0.37848   0.42960
     Eigenvalues ---    0.43532   0.44097   0.45391   0.46479   0.46975
     Eigenvalues ---    0.48325   0.48742   0.50304   0.53313   0.65219
     Eigenvalues ---    0.68004
 RFO step:  Lambda=-1.30249560D-03 EMin= 2.29966736D-03
 Quartic linear search produced a step of  0.13332.
 Iteration  1 RMS(Cart)=  0.03229611 RMS(Int)=  0.00070860
 Iteration  2 RMS(Cart)=  0.00076152 RMS(Int)=  0.00002770
 Iteration  3 RMS(Cart)=  0.00000062 RMS(Int)=  0.00002769
 Variable       Old X    -DE/DX   Delta X   Delta X   Delta X     New X
                                 (Linear)    (Quad)   (Total)
    R1        2.91172   0.00796   0.00070   0.01386   0.01456   2.92628
    R2        1.92655   0.00289   0.00311   0.00749   0.01060   1.93715
    R3        3.39690   0.00008  -0.00120   0.00018  -0.00102   3.39587
    R4        3.41611  -0.00198  -0.00596  -0.01017  -0.01612   3.39999
    R5        2.90855   0.00674   0.00009   0.01168   0.01178   2.92033
    R6        2.62824  -0.00130   0.00311  -0.00257   0.00054   2.62878
    R7        2.63908  -0.00073   0.00293  -0.00135   0.00158   2.64066
    R8        2.63610  -0.00081   0.00257  -0.00146   0.00111   2.63722
    R9        2.06426  -0.00068   0.00365  -0.00156   0.00210   2.06636
   R10        2.64704   0.00070   0.00191   0.00211   0.00402   2.65106
   R11        2.06180  -0.00089   0.00320  -0.00227   0.00093   2.06273
   R12        2.54543  -0.00075  -0.00268  -0.00202  -0.00470   2.54073
   R13        2.65457  -0.00073   0.00138  -0.00146  -0.00008   2.65449
   R14        2.65487  -0.00170  -0.00084  -0.00447  -0.00530   2.64956
   R15        2.07357  -0.00012   0.00214  -0.00005   0.00209   2.07566
   R16        2.08540   0.00012   0.00231   0.00075   0.00305   2.08845
   R17        2.08555   0.00013   0.00229   0.00077   0.00306   2.08860
   R18        2.61933  -0.00064   0.00217  -0.00111   0.00106   2.62039
   R19        2.06336  -0.00037   0.00341  -0.00061   0.00279   2.06615
   R20        2.06795  -0.00056   0.00371  -0.00118   0.00253   2.07048
   R21        2.07330  -0.00049   0.00387  -0.00096   0.00292   2.07621
   R22        2.07475   0.00004   0.00367   0.00069   0.00436   2.07911
   R23        2.07325  -0.00030   0.00345  -0.00042   0.00303   2.07628
   R24        1.92298   0.00268   0.00270   0.00694   0.00964   1.93261
    A1        1.91123  -0.00347  -0.01036  -0.02557  -0.03593   1.87531
    A2        1.97539  -0.00035  -0.00179  -0.00061  -0.00251   1.97288
    A3        1.74752   0.00099  -0.00108   0.00748   0.00633   1.75386
    A4        2.20431  -0.00124   0.00387  -0.01711  -0.01326   2.19105
    A5        1.73576   0.00135   0.00108   0.01721   0.01828   1.75404
    A6        1.77431   0.00064  -0.00208   0.00678   0.00472   1.77903
    A7        1.97810  -0.00085  -0.00046  -0.00609  -0.00663   1.97147
    A8        2.11697   0.00175   0.00194   0.00846   0.01040   2.12736
    A9        2.05303  -0.00099  -0.00252  -0.00450  -0.00702   2.04601
   A10        2.11305  -0.00077   0.00056  -0.00402  -0.00347   2.10958
   A11        2.08791   0.00046  -0.00080   0.00183   0.00103   2.08895
   A12        2.07344  -0.00034   0.00082  -0.00164  -0.00082   2.07262
   A13        2.12170  -0.00012  -0.00003  -0.00022  -0.00025   2.12145
   A14        2.08914   0.00053  -0.00024   0.00276   0.00252   2.09166
   A15        2.08203  -0.00049   0.00035  -0.00295  -0.00260   2.07943
   A16        2.11200  -0.00004  -0.00011   0.00018   0.00007   2.11207
   A17        2.16459   0.00169  -0.00199   0.00719   0.00520   2.16980
   A18        2.09573  -0.00133   0.00119  -0.00554  -0.00436   2.09138
   A19        2.02283  -0.00036   0.00080  -0.00164  -0.00085   2.02199
   A20        2.06461   0.00406  -0.00123   0.01807   0.01684   2.08145
   A21        1.85888   0.00006   0.00206   0.00047   0.00252   1.86140
   A22        1.94769   0.00042   0.00016   0.00307   0.00322   1.95091
   A23        1.94795   0.00040   0.00016   0.00294   0.00309   1.95104
   A24        1.90273  -0.00030  -0.00064  -0.00238  -0.00303   1.89970
   A25        1.90244  -0.00028  -0.00064  -0.00227  -0.00293   1.89951
   A26        1.90291  -0.00033  -0.00106  -0.00201  -0.00307   1.89983
   A27        2.09560   0.00042  -0.00035   0.00207   0.00172   2.09732
   A28        2.06584  -0.00036   0.00011  -0.00212  -0.00200   2.06384
   A29        2.12170  -0.00006   0.00023   0.00003   0.00026   2.12195
   A30        2.08479   0.00068  -0.00036   0.00287   0.00251   2.08731
   A31        2.08308  -0.00063   0.00083  -0.00343  -0.00261   2.08048
   A32        2.11509  -0.00005  -0.00049   0.00052   0.00003   2.11511
   A33        1.89667   0.00177   0.00291   0.01400   0.01692   1.91359
   A34        1.85475  -0.00036  -0.00433  -0.00429  -0.00864   1.84612
   A35        1.87481   0.00019  -0.00220   0.00104  -0.00122   1.87358
   A36        1.93114  -0.00060   0.00109  -0.00393  -0.00279   1.92835
   A37        1.95324  -0.00065   0.00075  -0.00195  -0.00124   1.95200
   A38        1.94891  -0.00023   0.00153  -0.00418  -0.00275   1.94616
   A39        1.91641  -0.00287  -0.00931  -0.02126  -0.03057   1.88585
    D1        1.47678  -0.00248  -0.00662  -0.06079  -0.06738   1.40939
    D2       -2.97473  -0.00058  -0.00648  -0.03788  -0.04437  -3.01909
    D3       -0.72178  -0.00179  -0.00519  -0.05295  -0.05815  -0.77993
    D4       -2.68465   0.00098  -0.00176  -0.00195  -0.00372  -2.68837
    D5        0.43920   0.00091  -0.00330  -0.00561  -0.00892   0.43029
    D6        1.75936  -0.00069  -0.00055  -0.01862  -0.01913   1.74023
    D7       -1.39997  -0.00076  -0.00209  -0.02228  -0.02433  -1.42430
    D8       -0.27195  -0.00040   0.00019  -0.01951  -0.01934  -0.29129
    D9        2.85191  -0.00047  -0.00134  -0.02316  -0.02454   2.82737
   D10       -0.92862  -0.00050   0.00193  -0.01976  -0.01785  -0.94647
   D11        1.15006  -0.00048   0.00241  -0.01944  -0.01712   1.13294
   D12       -3.04494  -0.00084   0.00063  -0.02604  -0.02543  -3.07038
   D13        1.09233  -0.00023   0.00006  -0.01358  -0.01344   1.07890
   D14       -3.11217  -0.00021   0.00054  -0.01325  -0.01271  -3.12488
   D15       -1.02399  -0.00057  -0.00124  -0.01985  -0.02102  -1.04501
   D16        2.96255   0.00092  -0.00189   0.00088  -0.00099   2.96156
   D17       -1.24196   0.00094  -0.00141   0.00120  -0.00026  -1.24221
   D18        0.84623   0.00058  -0.00319  -0.00539  -0.00857   0.83765
   D19       -0.62324  -0.00179  -0.00647  -0.05241  -0.05894  -0.68218
   D20       -2.90201  -0.00087  -0.00487  -0.04382  -0.04868  -2.95069
   D21        1.53528  -0.00245  -0.00488  -0.06483  -0.06965   1.46563
   D22        3.13950  -0.00006  -0.00084  -0.00286  -0.00374   3.13577
   D23        0.01517  -0.00002  -0.00022  -0.00133  -0.00158   0.01359
   D24        0.01625   0.00001   0.00076   0.00092   0.00168   0.01793
   D25       -3.10808   0.00005   0.00138   0.00245   0.00384  -3.10425
   D26       -3.14099   0.00002   0.00075   0.00190   0.00261  -3.13839
   D27       -0.02173  -0.00003  -0.00044  -0.00016  -0.00063  -0.02236
   D28       -0.01709  -0.00003  -0.00078  -0.00161  -0.00239  -0.01948
   D29        3.10217  -0.00007  -0.00196  -0.00367  -0.00562   3.09654
   D30       -0.00400   0.00000  -0.00025   0.00017  -0.00008  -0.00408
   D31       -3.13908   0.00002   0.00025   0.00079   0.00104  -3.13804
   D32        3.11984  -0.00004  -0.00088  -0.00141  -0.00230   3.11754
   D33       -0.01524  -0.00002  -0.00038  -0.00079  -0.00118  -0.01642
   D34       -3.14101  -0.00002   0.00035  -0.00144  -0.00109   3.14108
   D35       -0.00715  -0.00001  -0.00023  -0.00062  -0.00084  -0.00799
   D36       -0.00605  -0.00004  -0.00016  -0.00208  -0.00224  -0.00829
   D37        3.12781  -0.00003  -0.00073  -0.00126  -0.00199   3.12582
   D38        0.00705  -0.00001  -0.00047  -0.00032  -0.00079   0.00626
   D39       -3.12711  -0.00002   0.00008  -0.00110  -0.00101  -3.12813
   D40        0.00630  -0.00000   0.00020  -0.00007   0.00014   0.00644
   D41       -3.12480   0.00003   0.00101   0.00147   0.00247  -3.12233
   D42        3.14077   0.00002  -0.00033   0.00073   0.00040   3.14117
   D43        0.00968   0.00005   0.00047   0.00227   0.00273   0.01240
   D44        3.13521   0.00003   0.00012   0.00213   0.00226   3.13747
   D45        1.06054   0.00012  -0.00045   0.00302   0.00257   1.06311
   D46       -1.07352  -0.00005   0.00069   0.00130   0.00200  -1.07152
   D47        0.00568   0.00002   0.00029   0.00117   0.00146   0.00714
   D48       -3.11315   0.00007   0.00149   0.00332   0.00480  -3.10836
   D49        3.13644  -0.00001  -0.00053  -0.00042  -0.00096   3.13548
   D50        0.01760   0.00004   0.00066   0.00173   0.00238   0.01998
         Item               Value     Threshold  Converged?
 Maximum Force            0.007964     0.000450     NO 
 RMS     Force            0.001406     0.000300     NO 
 Maximum Displacement     0.154110     0.001800     NO 
 RMS     Displacement     0.032338     0.001200     NO 
 Predicted change in Energy=-7.332443D-04
 GradGradGradGradGradGradGradGradGradGradGradGradGradGradGradGradGradGrad

                          Input orientation:                          
 ---------------------------------------------------------------------
 Center     Atomic      Atomic             Coordinates (Angstroms)
[...]
 Alpha virt. eigenvalues --    2.47169   2.49670   2.50646   2.51938   2.52911
 Alpha virt. eigenvalues --    2.54015   2.55645   2.56193   2.58314   2.58942
 Alpha virt. eigenvalues --    2.59910   2.61658   2.63322   2.65793   2.67527
 Alpha virt. eigenvalues --    2.68694   2.69000   2.70242   2.71173   2.71458
 Alpha virt. eigenvalues --    2.73705   2.74160   2.75118   2.76697   2.77845
 Alpha virt. eigenvalues --    2.78581   2.79813   2.80740   2.80830   2.82844
 Alpha virt. eigenvalues --    2.83474   2.84148   2.85009   2.88809   2.90499
 Alpha virt. eigenvalues --    2.91595   2.93387   2.94310   2.96522   2.99095
 Alpha virt. eigenvalues --    3.00371   3.02948   3.04401   3.05074   3.05735
 Alpha virt. eigenvalues --    3.10198   3.11221   3.12496   3.13411   3.14147
 Alpha virt. eigenvalues --    3.14938   3.16630   3.18292   3.18711   3.21400
 Alpha virt. eigenvalues --    3.23229   3.23923   3.24698   3.25801   3.26661
 Alpha virt. eigenvalues --    3.27792   3.29810   3.29939   3.32818   3.33806
 Alpha virt. eigenvalues --    3.34357   3.36339   3.37890   3.38644   3.39998
 Alpha virt. eigenvalues --    3.40245   3.41217   3.42933   3.44106   3.46356
 Alpha virt. eigenvalues --    3.47376   3.47660   3.49390   3.50169   3.53055
 Alpha virt. eigenvalues --    3.53413   3.53879   3.54400   3.56186   3.58307
 Alpha virt. eigenvalues --    3.59140   3.60712   3.66103   3.66958   3.71306
 Alpha virt. eigenvalues --    3.72231   3.74375   3.77669   3.77888   3.81401
 Alpha virt. eigenvalues --    3.85463   3.89797   3.90579   3.96255   4.01972
 Alpha virt. eigenvalues --    4.03385   4.05381   4.06094   4.06528   4.09457
 Alpha virt. eigenvalues --    4.11917   4.14407   4.15179   4.17043   4.18358
 Alpha virt. eigenvalues --    4.19040   4.19619   4.21243   4.21907   4.22626
 Alpha virt. eigenvalues --    4.23878   4.25484   4.27235   4.27613   4.30212
 Alpha virt. eigenvalues --    4.33291   4.33940   4.36833   4.37304   4.42347
 Alpha virt. eigenvalues --    4.45256   4.47232   4.49394   4.55194   4.58163
 Alpha virt. eigenvalues --    4.59236   4.60803   4.63149   4.66298   4.69630
 Alpha virt. eigenvalues --    4.70356   4.72715   4.75295   4.76118   4.79675
 Alpha virt. eigenvalues --    4.87900   4.91048   4.92850   4.93844   4.98407
 Alpha virt. eigenvalues --    5.03000   5.07929   5.11075   5.13914   5.17562
 Alpha virt. eigenvalues --    5.19129   5.22735   5.24921   5.26788   5.35617
 Alpha virt. eigenvalues --    5.37124   5.41915   5.49879   5.55851   5.60055
 Alpha virt. eigenvalues --    5.61561   5.77833   5.94063   6.03296   6.37538
 Alpha virt. eigenvalues --    6.56024   6.65105   6.79423   6.87621   7.18476
 Alpha virt. eigenvalues --    7.42300   9.45830   9.53227   9.64499  21.69884
 Alpha virt. eigenvalues --   22.16439  22.33506  22.44297  22.72397  22.75905
 Alpha virt. eigenvalues --   22.77251  22.93437  23.33785  31.91370  31.92215
 Alpha virt. eigenvalues --   44.31064
          Condensed to atoms (all electrons):
               1          2          3          4          5          6
     1  N    6.922684   0.529095  -0.090990   0.014304  -0.000704   0.000217
     2  S    0.529095  14.105953   0.233527   0.011499   0.005973   0.001623
     3  C   -0.090990   0.233527   5.441577   0.269484   0.103798  -0.153461
     4  C    0.014304   0.011499   0.269484   5.300949   0.183668   0.179864
     5  C   -0.000704   0.005973   0.103798   0.183668   5.557501   0.100800
     6  C    0.000217   0.001623  -0.153461   0.179864   0.100800   4.908853
     7  O   -0.000000   0.000010  -0.001371   0.009226  -0.101513   0.424652
     8  C    0.000000  -0.000003   0.001261  -0.003875   0.011237  -0.088194
     9  C   -0.000872   0.005578   0.066205  -0.113288   0.079551   0.363815
    10  C    0.005756  -0.050737   0.295881  -0.051743  -0.125984   0.080580
    11  C   -0.083873   0.288604  -0.081150   0.014818  -0.001087   0.000258
    12  N   -0.077180   0.505916  -0.144249   0.022890  -0.001668   0.001208
    13  H    0.310848  -0.024879   0.001208   0.002512   0.000039  -0.000070
    14  H    0.000923  -0.001565  -0.040412   0.416861  -0.050592   0.007064
    15  H    0.000004  -0.000438   0.010371  -0.029011   0.430435  -0.071809
    16  H    0.000000   0.000000  -0.000054   0.000289  -0.003004   0.007187
    17  H    0.000000   0.000001   0.000216  -0.001205   0.013834  -0.015911
    18  H   -0.000000  -0.000002   0.000220  -0.001067   0.014751  -0.017751
    19  H    0.000004  -0.000246   0.017475  -0.007217   0.023714  -0.077398
    20  H    0.022002  -0.001352  -0.075695   0.008149  -0.005176   0.015608
    21  H    0.002593  -0.012613   0.011397   0.000817   0.000211  -0.000216
    22  H    0.005256  -0.014679   0.007948  -0.000671   0.000041  -0.000009
    23  H    0.005637  -0.023025   0.006677  -0.006850   0.000055   0.000042
    24  H   -0.000739  -0.018895   0.019123  -0.003811   0.000080  -0.000042
               7          8          9         10         11         12
     1  N   -0.000000   0.000000  -0.000872   0.005756  -0.083873  -0.077180
     2  S    0.000010  -0.000003   0.005578  -0.050737   0.288604   0.505916
     3  C   -0.001371   0.001261   0.066205   0.295881  -0.081150  -0.144249
     4  C    0.009226  -0.003875  -0.113288  -0.051743   0.014818   0.022890
     5  C   -0.101513   0.011237   0.079551  -0.125984  -0.001087  -0.001668
     6  C    0.424652  -0.088194   0.363815   0.080580   0.000258   0.001208
     7  O    7.803940   0.260901  -0.063409   0.000737   0.000001  -0.000000
     8  C    0.260901   4.833834   0.003335  -0.001036   0.000000   0.000001
     9  C   -0.063409   0.003335   5.120941   0.361444   0.000182  -0.001763
    10  C    0.000737  -0.001036   0.361444   5.245045  -0.004211   0.022704
    11  C    0.000001   0.000000   0.000182  -0.004211   5.152450  -0.052729
    12  N   -0.000000   0.000001  -0.001763   0.022704  -0.052729   6.938904
    13  H    0.000000   0.000000   0.000024  -0.005905   0.013856  -0.002268
    14  H   -0.000036  -0.000131  -0.001080   0.007731   0.001716   0.025534
    15  H   -0.008059   0.011315   0.004469   0.000706  -0.000010  -0.000223
    16  H   -0.031306   0.400110  -0.000163   0.000095   0.000000   0.000000
    17  H   -0.041425   0.410257   0.000477  -0.000142   0.000000   0.000000
    18  H   -0.041489   0.409047   0.001033  -0.000264  -0.000001  -0.000000
    19  H    0.009165  -0.000422   0.448074  -0.069395   0.000044  -0.000004
    20  H   -0.000098   0.000024  -0.066326   0.454377  -0.002861   0.002174
    21  H   -0.000000   0.000000   0.000841  -0.010216   0.359310   0.005051
    22  H    0.000000  -0.000000   0.000021  -0.000041   0.372133   0.000831
    23  H   -0.000000  -0.000000  -0.000244   0.004611   0.376267   0.003448
    24  H   -0.000000  -0.000000   0.000102  -0.001071  -0.010123   0.309608
              13         14         15         16         17         18
     1  N    0.310848   0.000923   0.000004   0.000000   0.000000  -0.000000
     2  S   -0.024879  -0.001565  -0.000438   0.000000   0.000001  -0.000002
     3  C    0.001208  -0.040412   0.010371  -0.000054   0.000216   0.000220
     4  C    0.002512   0.416861  -0.029011   0.000289  -0.001205  -0.001067
     5  C    0.000039  -0.050592   0.430435  -0.003004   0.013834   0.014751
     6  C   -0.000070   0.007064  -0.071809   0.007187  -0.015911  -0.017751
     7  O    0.000000  -0.000036  -0.008059  -0.031306  -0.041425  -0.041489
     8  C    0.000000  -0.000131   0.011315   0.400110   0.410257   0.409047
     9  C    0.000024  -0.001080   0.004469  -0.000163   0.000477   0.001033
    10  C   -0.005905   0.007731   0.000706   0.000095  -0.000142  -0.000264
    11  C    0.013856   0.001716  -0.000010   0.000000   0.000000  -0.000001
    12  N   -0.002268   0.025534  -0.000223   0.000000   0.000000  -0.000000
    13  H    0.495510   0.000021  -0.000000   0.000000  -0.000000   0.000000
    14  H    0.000021   0.481716  -0.005687   0.000002  -0.000017  -0.000038
    15  H   -0.000000  -0.005687   0.525006  -0.000367   0.001779   0.002001
    16  H    0.000000   0.000002  -0.000367   0.519507  -0.020819  -0.021211
    17  H   -0.000000  -0.000017   0.001779  -0.020819   0.572905  -0.054641
    18  H    0.000000  -0.000038   0.002001  -0.021211  -0.054641   0.576560
    19  H    0.000016   0.000042  -0.000047  -0.000220   0.000129   0.000162
    20  H   -0.003115  -0.000330   0.000060   0.000000   0.000000  -0.000002
    21  H   -0.000849  -0.000176   0.000005  -0.000000  -0.000000   0.000000
    22  H   -0.000673  -0.000094  -0.000001  -0.000000   0.000000  -0.000000
    23  H   -0.000620   0.000267  -0.000007  -0.000000  -0.000000   0.000001
    24  H   -0.000351  -0.001566   0.000000  -0.000000  -0.000000   0.000000
              19         20         21         22         23         24
     1  N    0.000004   0.022002   0.002593   0.005256   0.005637  -0.000739
     2  S   -0.000246  -0.001352  -0.012613  -0.014679  -0.023025  -0.018895
     3  C    0.017475  -0.075695   0.011397   0.007948   0.006677   0.019123
     4  C   -0.007217   0.008149   0.000817  -0.000671  -0.006850  -0.003811
     5  C    0.023714  -0.005176   0.000211   0.000041   0.000055   0.000080
     6  C   -0.077398   0.015608  -0.000216  -0.000009   0.000042  -0.000042
     7  O    0.009165  -0.000098  -0.000000   0.000000  -0.000000  -0.000000
     8  C   -0.000422   0.000024   0.000000  -0.000000  -0.000000  -0.000000
     9  C    0.448074  -0.066326   0.000841   0.000021  -0.000244   0.000102
    10  C   -0.069395   0.454377  -0.010216  -0.000041   0.004611  -0.001071
    11  C    0.000044  -0.002861   0.359310   0.372133   0.376267  -0.010123
    12  N   -0.000004   0.002174   0.005051   0.000831   0.003448   0.309608
    13  H    0.000016  -0.003115  -0.000849  -0.000673  -0.000620  -0.000351
    14  H    0.000042  -0.000330  -0.000176  -0.000094   0.000267  -0.001566
    15  H   -0.000047   0.000060   0.000005  -0.000001  -0.000007   0.000000
    16  H   -0.000220   0.000000  -0.000000  -0.000000  -0.000000  -0.000000
    17  H    0.000129   0.000000  -0.000000   0.000000  -0.000000  -0.000000
    18  H    0.000162  -0.000002   0.000000  -0.000000   0.000001   0.000000
    19  H    0.545248  -0.009312   0.000017  -0.000001  -0.000004  -0.000000
    20  H   -0.009312   0.505700  -0.000636  -0.000085   0.000342  -0.000075
    21  H    0.000017  -0.000636   0.521116  -0.011573  -0.017170   0.000239
    22  H   -0.000001  -0.000085  -0.011573   0.506229  -0.014936   0.002099
    23  H   -0.000004   0.000342  -0.017170  -0.014936   0.515121   0.000091
    24  H   -0.000000  -0.000075   0.000239   0.002099   0.000091   0.493759
 Mulliken charges:
               1
     1  N   -0.564966
     2  S    0.460655
     3  C    0.101015
     4  C   -0.216593
     5  C   -0.235963
     6  C    0.333092
     7  O   -0.219925
     8  C   -0.247660
     9  C   -0.208945
    10  C   -0.158922
    11  C   -0.343596
    12  N   -0.558184
    13  H    0.214697
    14  H    0.159847
    15  H    0.129508
    16  H    0.149955
    17  H    0.134560
    18  H    0.132692
    19  H    0.120176
    20  H    0.156627
    21  H    0.151853
    22  H    0.148205
    23  H    0.150298
    24  H    0.211575
 Sum of Mulliken charges =  -0.00000
 Mulliken charges with hydrogens summed into heavy atoms:
               1
     1  N   -0.350269
     2  S    0.460655
     3  C    0.101015
     4  C   -0.056746
     5  C   -0.106455
     6  C    0.333092
     7  O   -0.219925
     8  C    0.169547
     9  C   -0.088769
    10  C   -0.002295
    11  C    0.106761
    12  N   -0.346610
 Electronic spatial extent (au):  <R**2>=           2931.3197
 Charge=              0.0000 electrons
 Dipole moment (field-independent basis, Debye):
    X=             -2.9329    Y=              0.7769    Z=              1.7019  Tot=              3.4788
 Quadrupole moment (field-independent basis, Debye-Ang):
   XX=            -70.3002   YY=            -80.8855   ZZ=            -77.9104
   XY=             -1.9273   XZ=              4.0838   YZ=              1.1999
 Traceless Quadrupole moment (field-independent basis, Debye-Ang):
   XX=              6.0652   YY=             -4.5201   ZZ=             -1.5451
   XY=             -1.9273   XZ=              4.0838   YZ=              1.1999
 Octapole moment (field-independent basis, Debye-Ang**2):
  XXX=            -60.6497  YYY=             -6.1964  ZZZ=             -1.5319  XYY=            -20.2736
  XXY=             41.1482  XXZ=             12.2796  XZZ=             11.6293  YZZ=             -3.9476
  YYZ=              3.2767  XYZ=             -0.7418
 Hexadecapole moment (field-independent basis, Debye-Ang**3):
 XXXX=          -2727.8691 YYYY=           -530.8281 ZZZZ=           -258.2115 XXXY=             34.8526
 XXXZ=             25.3374 YYYX=             12.7152 YYYZ=              2.0496 ZZZX=            -10.2731
 ZZZY=             10.8825 XXYY=           -623.8762 XXZZ=           -530.5931 YYZZ=           -138.4443
 XXYZ=             -8.9098 YYXZ=              5.7347 ZZXY=            -11.3029
 N-N= 8.139999727638D+02 E-N=-3.729960216780D+03  KE= 8.911249728971D+02
 Breneman (CHELPG) radii used.
 Read replacement radii for each type of atom:
 Atom Element Radius
    1     7    1.70
    2    16    2.00
    3     6    1.50
    4     6    1.50
    5     6    1.50
    6     6    1.50
    7     8    1.70
    8     6    1.50
    9     6    1.50
   10     6    1.50
   11     6    1.50
   12     7    1.70
   13     1    1.45
   14     1    1.45
   15     1    1.45
   16     1    1.45
   17     1    1.45
   18     1    1.45
   19     1    1.45
   20     1    1.45
   21     1    1.45
   22     1    1.45
   23     1    1.45
   24     1    1.45
 Generate Potential Derived Charges using the Breneman model, NDens= 1.
 Grid spacing= 0.300 Box extension= 2.800
 NStep X,Y,Z=   51     35     32   Total possible points=       57120
 Number of Points to Fit=   15616

 **********************************************************************

            Electrostatic Properties Using The SCF Density.

 **********************************************************************

       Atomic Center    1 is at   2.949940 -1.122448 -0.785007
       Atomic Center    2 is at   2.276170  0.114438 -0.131045
       Atomic Center    3 is at   0.489454  0.000087 -0.078209
       Atomic Center    4 is at  -0.316582  1.131388 -0.025576
       Atomic Center    5 is at  -1.702263  0.990030  0.008522
       Atomic Center    6 is at  -2.274215 -0.289859 -0.011189
       Atomic Center    7 is at  -3.596756 -0.526225  0.020093
       Atomic Center    8 is at  -4.481910  0.559019  0.071849
       Atomic Center    9 is at  -1.447634 -1.423192 -0.075399
       Atomic Center   10 is at  -0.070620 -1.278501 -0.113120
       Atomic Center   11 is at   2.703289 -0.169110  1.593258
       Atomic Center   12 is at   2.475607  1.585818 -0.575626
       Atomic Center   13 is at   2.810728 -1.040447 -1.797106
       Atomic Center   14 is at   0.157288  2.114556 -0.031786
       Atomic Center   15 is at  -2.326829  1.882820  0.043821
       Atomic Center   16 is at  -5.494530  0.137081  0.089449
       Atomic Center   17 is at  -4.382192  1.211553 -0.813089
       Atomic Center   18 is at  -4.332407  1.166734  0.981430
       Atomic Center   19 is at  -1.919873 -2.406730 -0.104964
       Atomic Center   20 is at   0.591132 -2.145788 -0.190052
       Atomic Center   21 is at   2.360739 -1.163496  1.903807
       Atomic Center   22 is at   3.798905 -0.113079  1.644471
       Atomic Center   23 is at   2.234936  0.626768  2.184825
       Atomic Center   24 is at   3.481481  1.746069 -0.671218
   15616 points will be used for fitting atomic charges
 Fitting point charges to electrostatic potential
 Charges from ESP fit, RMS=   0.00305 RRMS=   0.20481:
 ESP charges:
               1
     1  N   -0.762726
     2  S    0.691293
     3  C    0.018948
     4  C   -0.067811
     5  C   -0.291621
     6  C    0.429298
     7  O   -0.352544
     8  C    0.115846
     9  C   -0.286854
    10  C   -0.073052
    11  C   -0.261400
    12  N   -0.800834
    13  H    0.313881
    14  H    0.140836
    15  H    0.141391
    16  H    0.062336
    17  H    0.023552
    18  H    0.014966
    19  H    0.141964
    20  H    0.129714
    21  H    0.104572
    22  H    0.138821
    23  H    0.081638
    24  H    0.347784
 Sum of ESP charges =   0.00000
 ESP charges with hydrogens summed into heavy atoms:
               1
     1  N   -0.448845
     2  S    0.691293
     3  C    0.018948
     4  C    0.073025
     5  C   -0.150230
     6  C    0.429298
     7  O   -0.352544
     8  C    0.216700
     9  C   -0.144890
    10  C    0.056662
    11  C    0.063631
    12  N   -0.453049
 Charge=   0.00000 Dipole=    -2.9259     0.7904     1.6727 Tot=     3.4618
 -----------------------------------------------------------------

              Electrostatic Properties (Atomic Units)

 -----------------------------------------------------------------
    Center     Electric         -------- Electric Field --------
               Potential          X             Y             Z
 -----------------------------------------------------------------
    1 Atom    -18.432882
    2 Atom    -59.080520
    3 Atom    -14.740067
    4 Atom    -14.747658
    5 Atom    -14.751193
    6 Atom    -14.686483
    7 Atom    -22.296700
    8 Atom    -14.698665
    9 Atom    -14.754791
   10 Atom    -14.746888
   11 Atom    -14.741222
   12 Atom    -18.431680
   13 Atom     -1.058863
   14 Atom     -1.095896
   15 Atom     -1.084326
   16 Atom     -1.089684
   17 Atom     -1.091096
   18 Atom     -1.090961
   19 Atom     -1.090400
   20 Atom     -1.090513
   21 Atom     -1.082593
   22 Atom     -1.080758
   23 Atom     -1.083536
   24 Atom     -1.055177
 -----------------------------------------------------------------
 Unable to Open any file for archive entry.
 1\1\GINC-NOTCH242\SP\RPBE1PBE\def2TZVP\C8H12N2O1S1\U1414944\10-Feb-202
 5\0\\#N Guess=Read Geom=Check Integral(Ultrafine) Density Pop=(ChelpG,
 ReadRadii) NMR pbe1pbe EmpiricalDispersion=GD3BJ def2TZVP\\SDI0017_2\\
 0,1\N,0,-2.902964544,1.313896406,0.5351281372\S,0,-2.261696336,0.05056
 24323,-0.1007046996\C,0,-0.4720096142,0.0543212231,-0.0284016827\C,0,0
 .3001188324,-0.661833599,-0.9357325424\C,0,1.6896315562,-0.6224229119,
 -0.8410887195\C,0,2.2995349172,0.1384268829,0.1662624765\O,0,3.6287653
 094,0.2366304047,0.3379160294\C,0,4.4813481834,-0.4526853709,-0.534940
 5134\C,0,1.5068468833,0.8653826479,1.0690274276\C,0,0.1258689419,0.826
 8476367,0.969312135\C,0,-2.6671803207,-1.1736551689,1.1534583391\N,0,-
 2.5084861699,-0.4512281873,-1.5462795834\H,0,-2.7738666404,2.083324321
 9,-0.1295237082\H,0,-0.2030484303,-1.2286138231,-1.7210940343\H,0,2.28
 73968298,-1.1824105966,-1.5604591571\H,0,5.5062662296,-0.2308720552,-0
 .2123241391\H,0,4.3554781053,-0.1184147412,-1.5795843487\H,0,4.3205166
 643,-1.5439907201,-0.4881177146\H,0,2.0081263449,1.4613548054,1.833727
 1035\H,0,-0.5101407737,1.405986288,1.6446706654\H,0,-2.2926518023,-0.8
 451017523,2.1303748463\H,0,-3.7635686401,-1.2353609263,1.1696184403\H,
 0,-2.2184765082,-2.1251737247,0.8436142232\H,0,-3.5194006049,-0.456342
 0351,-1.7032055887\\Version=ES64L-G16RevC.01\State=1-A\HF=-894.3958716
 \RMSD=3.539e-09\Dipole=1.1491988,-0.7347369,0.11288\Quadrupole=4.37012
 31,-1.0998969,-3.2702262,1.5296619,-3.1756077,-0.7845833\PG=C01 [X(C8H
 12N2O1S1)]\\@
 The archive entry for this job was punched.


 SEEN ON A WALL AT THE UNIVERSITY OF ILLINOIS AT CHICAGO CIRCLE:

 TO DO IS TO BE  -- SOCRATES
 TO BE IS TO DO  -- SARTRE
 OO BE DO BE DO  -- SINATRA
 Job cpu time:       0 days  0 hours 19 minutes 28.6 seconds.
 Elapsed time:       0 days  0 hours  1 minutes 19.7 seconds.
 File lengths (MBytes):  RWF=    130 Int=      0 D2E=      0 Chk=     20 Scr=      2
 Normal termination of Gaussian 16 at Mon Feb 10 19:48:04 2025.
