 Entering Gaussian System, Link 0=g16
 Input=SDI2979_2.com
 Output=SDI2979_2.log
 Initial command:
 /uufs/chpc.utah.edu/sys/installdir/gaussian16/C01/AVX/g16/l1.exe "/scratch/general/vast/u1414944/3351106-notchpeak.peaks/Gau-1324724.inp" -scrdir="/scratch/general/vast/u1414944/3351106-notchpeak.peaks/"
 Entering Link 1 = /uufs/chpc.utah.edu/sys/installdir/gaussian16/C01/AVX/g16/l1.exe PID=   1324725.
  
 Copyright (c) 1988-2019, Gaussian, Inc.  All Rights Reserved.
  
 This is part of the Gaussian(R) 16 program.  It is based on
 the Gaussian(R) 09 system (copyright 2009, Gaussian, Inc.),
 the Gaussian(R) 03 system (copyright 2003, Gaussian, Inc.),
 the Gaussian(R) 98 system (copyright 1998, Gaussian, Inc.),
 the Gaussian(R) 94 system (copyright 1995, Gaussian, Inc.),
 the Gaussian 92(TM) system (copyright 1992, Gaussian, Inc.),
 the Gaussian 90(TM) system (copyright 1990, Gaussian, Inc.),
 the Gaussian 88(TM) system (copyright 1988, Gaussian, Inc.),
 the Gaussian 86(TM) system (copyright 1986, Carnegie Mellon
 University), and the Gaussian 82(TM) system (copyright 1983,
 Carnegie Mellon University). Gaussian is a federally registered
 trademark of Gaussian, Inc.
  
 This software contains proprietary and confidential information,
 including trade secrets, belonging to Gaussian, Inc.
  
 This software is provided under written license and may be
 used, copied, transmitted, or stored only in accord with that
 written license.
  
 The following legend is applicable only to US Government
 contracts under FAR:
  
                    RESTRICTED RIGHTS LEGEND
  
 Use, reproduction and disclosure by the US Government is
 subject to restrictions as set forth in subparagraphs (a)
 and (c) of the Commercial Computer Software - Restricted
 Rights clause in FAR 52.227-19.
  
 Gaussian, Inc.
 340 Quinnipiac St., Bldg. 40, Wallingford CT 06492
  
  
 ---------------------------------------------------------------
 Warning -- This program may not be used in any manner that
 competes with the business of Gaussian, Inc. or will provide
 assistance to any competitor of Gaussian, Inc.  The licensee
 of this program is prohibited from giving any competitor of
 Gaussian, Inc. access to this program.  By using this program,
 the user acknowledges that Gaussian, Inc. is engaged in the
 business of creating and licensing software in the field of
 computational chemistry and represents and warrants to the
 licensee that it is not a competitor of Gaussian, Inc. and that
 it will not use this program in any manner prohibited above.
 ---------------------------------------------------------------
  

 Cite this work as:
 Gaussian 16, Revision C.01,
 M. J. Frisch, G. W. Trucks, H. B. Schlegel, G. E. Scuseria, 
 M. A. Robb, J. R. Cheeseman, G. Scalmani, V. Barone, 
 G. A. Petersson, H. Nakatsuji, X. Li, M. Caricato, A. V. Marenich, 
 J. Bloino, B. G. Janesko, R. Gomperts, B. Mennucci, H. P. Hratchian, 
 J. V. Ortiz, A. F. Izmaylov, J. L. Sonnenberg, D. Williams-Young, 
 F. Ding, F. Lipparini, F. Egidi, J. Goings, B. Peng, A. Petrone, 
 T. Henderson, D. Ranasinghe, V. G. Zakrzewski, J. Gao, N. Rega, 
 G. Zheng, W. Liang, M. Hada, M. Ehara, K. Toyota, R. Fukuda, 
 J. Hasegawa, M. Ishida, T. Nakajima, Y. Honda, O. Kitao, H. Nakai, 
 T. Vreven, K. Throssell, J. A. Montgomery, Jr., J. E. Peralta, 
 F. Ogliaro, M. J. Bearpark, J. J. Heyd, E. N. Brothers, K. N. Kudin, 
 V. N. Staroverov, T. A. Keith, R. Kobayashi, J. Normand, 
 K. Raghavachari, A. P. Rendell, J. C. Burant, S. S. Iyengar, 
 J. Tomasi, M. Cossi, J. M. Millam, M. Klene, C. Adamo, R. Cammi, 
 J. W. Ochterski, R. L. Martin, K. Morokuma, O. Farkas, 
 J. B. Foresman, and D. J. Fox, Gaussian, Inc., Wallingford CT, 2019.
 
 ******************************************
 Gaussian 16:  ES64L-G16RevC.01  3-Jul-2019
                24-Feb-2025 
 ******************************************
 %NProcShared=16
 Will use up to   16 processors via shared memory.
 %Mem=40GB
 %chk=SDI2979_2.chk
 ----------------------------------------------------------------------
 #N OPT FREQ=NORAMAN Integral(Ultrafine) pbe1pbe EmpiricalDispersion=GD
 3BJ def2SVP
 ----------------------------------------------------------------------
 1/18=20,19=15,26=4,38=1/1,3;
 2/9=110,12=2,17=6,18=5,40=1/2;
 3/5=43,7=101,11=2,25=1,30=1,71=1,74=-13,75=-5,124=41/1,2,3;
 4//1;
 5/5=2,38=5/2;
 6/7=2,8=2,9=2,10=2,28=1/1;
 7//1,2,3,16;
 1/18=20,19=15,26=4/3(2);
 2/9=110/2;
 99//99;
 2/9=110/2;
 3/5=43,7=101,11=2,25=1,30=1,71=1,74=-13,75=-5,124=41/1,2,3;
 4/5=5,16=3,69=1/1;
 5/5=2,38=5/2;
 7//1,2,3,16;
 1/18=20,19=15,26=4/3(-5);
 2/9=110/2;
 6/7=2,8=2,9=2,10=2,19=2,28=1/1;
 99/9=1/99;
 ---------
 SDI2979_2
 ---------
 Symbolic Z-matrix:
 Charge =  0 Multiplicity = 1
 N                    -3.83905  -0.30425   0.88781 
 S                    -2.75239   0.49364   0.15784 
 C                    -1.16411  -0.37972   0.07163 
 C                     0.01772   0.33604   0.03981 
 C                     1.19871  -0.38756  -0.00979 
 Br                    2.87118   0.50427  -0.06189 
 C                     1.14754  -1.77731  -0.02206 
 N                     0.00964  -2.44189   0.02077 
 C                    -1.12422  -1.7646    0.07075 
 C                    -3.26525   0.2877   -1.58335 
 N                    -2.29128   1.91369   0.51535 
 H                    -3.87892  -0.15006   1.88155 
 H                    -0.01621   1.41412   0.06673 
 H                     2.04992  -2.3717   -0.06239 
 H                    -2.03647  -2.34238   0.12173 
 H                    -4.21062   0.80043  -1.7152 
 H                    -2.50209   0.71609  -2.22233 
 H                    -3.38931  -0.77208  -1.76261 
 H                    -3.01796   2.51332   0.86734 
 

 GradGradGradGradGradGradGradGradGradGradGradGradGradGradGradGradGradGrad
 Berny optimization.
 Initialization pass.
                           ----------------------------
                           !    Initial Parameters    !
                           ! (Angstroms and Degrees)  !
 --------------------------                            --------------------------
 ! Name  Definition              Value          Derivative Info.                !
 --------------------------------------------------------------------------------
 ! R1    R(1,2)                  1.5331         estimate D2E/DX2                !
 ! R2    R(1,12)                 1.0064         estimate D2E/DX2                !
 ! R3    R(2,3)                  1.8146         estimate D2E/DX2                !
 ! R4    R(2,10)                 1.8268         estimate D2E/DX2                !
 ! R5    R(2,11)                 1.5352         estimate D2E/DX2                !
 ! R6    R(3,4)                  1.382          estimate D2E/DX2                !
 ! R7    R(3,9)                  1.3855         estimate D2E/DX2                !
 ! R8    R(4,5)                  1.3859         estimate D2E/DX2                !
 ! R9    R(4,13)                 1.079          estimate D2E/DX2                !
 ! R10   R(5,6)                  1.8961         estimate D2E/DX2                !
 ! R11   R(5,7)                  1.3907         estimate D2E/DX2                !
 ! R12   R(7,8)                  1.3184         estimate D2E/DX2                !
 ! R13   R(7,14)                 1.0813         estimate D2E/DX2                !
 ! R14   R(8,9)                  1.3217         estimate D2E/DX2                !
 ! R15   R(9,15)                 1.081          estimate D2E/DX2                !
 ! R16   R(10,16)                1.0835         estimate D2E/DX2                !
 ! R17   R(10,17)                1.0836         estimate D2E/DX2                !
 ! R18   R(10,18)                1.082          estimate D2E/DX2                !
 ! R19   R(11,19)                1.0057         estimate D2E/DX2                !
 ! A1    A(2,1,12)             114.7395         estimate D2E/DX2                !
 ! A2    A(1,2,3)              113.1122         estimate D2E/DX2                !
 ! A3    A(1,2,10)             101.3129         estimate D2E/DX2                !
 ! A4    A(1,2,11)             125.6909         estimate D2E/DX2                !
 ! A5    A(3,2,10)              98.4061         estimate D2E/DX2                !
 ! A6    A(3,2,11)             101.1488         estimate D2E/DX2                !
 ! A7    A(10,2,11)            114.2395         estimate D2E/DX2                !
 ! A8    A(2,3,4)              120.0202         estimate D2E/DX2                !
 ! A9    A(2,3,9)              120.4192         estimate D2E/DX2                !
 ! A10   A(4,3,9)              119.5412         estimate D2E/DX2                !
 ! A11   A(3,4,5)              117.3297         estimate D2E/DX2                !
 ! A12   A(3,4,13)             119.3416         estimate D2E/DX2                !
 ! A13   A(5,4,13)             123.3241         estimate D2E/DX2                !
 ! A14   A(4,5,6)              120.4665         estimate D2E/DX2                !
 ! A15   A(4,5,7)              119.3864         estimate D2E/DX2                !
 ! A16   A(6,5,7)              120.147          estimate D2E/DX2                !
 ! A17   A(5,7,8)              122.3552         estimate D2E/DX2                !
 ! A18   A(5,7,14)             121.2604         estimate D2E/DX2                !
 ! A19   A(8,7,14)             116.3836         estimate D2E/DX2                !
 ! A20   A(7,8,9)              118.9035         estimate D2E/DX2                !
 ! A21   A(3,9,8)              122.4762         estimate D2E/DX2                !
 ! A22   A(3,9,15)             120.6585         estimate D2E/DX2                !
 ! A23   A(8,9,15)             116.8626         estimate D2E/DX2                !
 ! A24   A(2,10,16)            107.9136         estimate D2E/DX2                !
 ! A25   A(2,10,17)            108.6475         estimate D2E/DX2                !
 ! A26   A(2,10,18)            107.4893         estimate D2E/DX2                !
 ! A27   A(16,10,17)           110.8335         estimate D2E/DX2                !
 ! A28   A(16,10,18)           110.0785         estimate D2E/DX2                !
 ! A29   A(17,10,18)           111.7331         estimate D2E/DX2                !
 ! A30   A(2,11,19)            114.5796         estimate D2E/DX2                !
 ! D1    D(12,1,2,3)            89.3864         estimate D2E/DX2                !
 ! D2    D(12,1,2,10)         -166.2854         estimate D2E/DX2                !
 ! D3    D(12,1,2,11)          -35.0452         estimate D2E/DX2                !
 ! D4    D(1,2,3,4)           -150.0841         estimate D2E/DX2                !
 ! D5    D(1,2,3,9)             28.3091         estimate D2E/DX2                !
 ! D6    D(10,2,3,4)           103.735          estimate D2E/DX2                !
 ! D7    D(10,2,3,9)           -77.8718         estimate D2E/DX2                !
 ! D8    D(11,2,3,4)           -13.1445         estimate D2E/DX2                !
 ! D9    D(11,2,3,9)           165.2487         estimate D2E/DX2                !
 ! D10   D(1,2,10,16)           66.3317         estimate D2E/DX2                !
 ! D11   D(1,2,10,17)         -173.4319         estimate D2E/DX2                !
 ! D12   D(1,2,10,18)          -52.3629         estimate D2E/DX2                !
 ! D13   D(3,2,10,16)         -177.9325         estimate D2E/DX2                !
 ! D14   D(3,2,10,17)          -57.6962         estimate D2E/DX2                !
 ! D15   D(3,2,10,18)           63.3728         estimate D2E/DX2                !
 ! D16   D(11,2,10,16)         -71.6192         estimate D2E/DX2                !
 ! D17   D(11,2,10,17)          48.6172         estimate D2E/DX2                !
 ! D18   D(11,2,10,18)         169.6862         estimate D2E/DX2                !
 ! D19   D(1,2,11,19)          -34.159          estimate D2E/DX2                !
 ! D20   D(3,2,11,19)         -163.5175         estimate D2E/DX2                !
 ! D21   D(10,2,11,19)          91.8783         estimate D2E/DX2                !
 ! D22   D(2,3,4,5)            179.2444         estimate D2E/DX2                !
 ! D23   D(2,3,4,13)             0.0001         estimate D2E/DX2                !
 ! D24   D(9,3,4,5)              0.837          estimate D2E/DX2                !
 ! D25   D(9,3,4,13)          -178.4072         estimate D2E/DX2                !
 ! D26   D(2,3,9,8)           -179.4092         estimate D2E/DX2                !
 ! D27   D(2,3,9,15)            -0.0279         estimate D2E/DX2                !
 ! D28   D(4,3,9,8)             -1.0084         estimate D2E/DX2                !
 ! D29   D(4,3,9,15)           178.373          estimate D2E/DX2                !
 ! D30   D(3,4,5,6)            179.805          estimate D2E/DX2                !
 ! D31   D(3,4,5,7)             -0.1492         estimate D2E/DX2                !
 ! D32   D(13,4,5,6)            -0.9835         estimate D2E/DX2                !
 ! D33   D(13,4,5,7)           179.0623         estimate D2E/DX2                !
 ! D34   D(4,5,7,8)             -0.4555         estimate D2E/DX2                !
 ! D35   D(4,5,7,14)           179.8759         estimate D2E/DX2                !
 ! D36   D(6,5,7,8)            179.5901         estimate D2E/DX2                !
 ! D37   D(6,5,7,14)            -0.0785         estimate D2E/DX2                !
 ! D38   D(5,7,8,9)              0.3309         estimate D2E/DX2                !
 ! D39   D(14,7,8,9)          -179.9854         estimate D2E/DX2                !
 ! D40   D(7,8,9,3)              0.4059         estimate D2E/DX2                !
 ! D41   D(7,8,9,15)          -178.9975         estimate D2E/DX2                !
 --------------------------------------------------------------------------------
 Trust Radius=3.00D-01 FncErr=1.00D-07 GrdErr=1.00D-06 EigMax=2.50D+02 EigMin=1.00D-04
 Number of steps in this run=    100 maximum allowed number of steps=    114.
 GradGradGradGradGradGradGradGradGradGradGradGradGradGradGradGradGradGrad

                          Input orientation:                          
 ---------------------------------------------------------------------
 Center     Atomic      Atomic             Coordinates (Angstroms)
 Number     Number       Type             X           Y           Z
 ---------------------------------------------------------------------
      1          7           0       -3.839047   -0.304250    0.887812
      2         16           0       -2.752385    0.493641    0.157841
      3          6           0       -1.164108   -0.379721    0.071635
      4          6           0        0.017723    0.336037    0.039809
      5          6           0        1.198706   -0.387559   -0.009792
      6         35           0        2.871176    0.504275   -0.061894
      7          6           0        1.147539   -1.777309   -0.022062
      8          7           0        0.009644   -2.441887    0.020773
      9          6           0       -1.124221   -1.764602    0.070751
     10          6           0       -3.265252    0.287697   -1.583354
     11          7           0       -2.291278    1.913686    0.515348
     12          1           0       -3.878922   -0.150055    1.881553
     13          1           0       -0.016206    1.414120    0.066726
     14          1           0        2.049921   -2.371698   -0.062386
     15          1           0       -2.036474   -2.342377    0.121734
     16          1           0       -4.210625    0.800429   -1.715197
     17          1           0       -2.502089    0.716090   -2.222326
     18          1           0       -3.389307   -0.772084   -1.762614
     19          1           0       -3.017963    2.513317    0.867345
 ---------------------------------------------------------------------
                    Distance matrix (angstroms):
                    1          2          3          4          5
     1  N    0.000000
     2  S    1.533075   0.000000
     3  C    2.797703   1.814612   0.000000
     4  C    4.000469   2.777098   1.382045   0.000000
     5  C    5.117771   4.051634   2.364229   1.385918   0.000000
     6  Br   6.825155   5.627863   4.133134   2.860216   1.896111
     7  C    5.278619   4.516524   2.702914   2.397195   1.390746
     8  N    4.487056   4.032979   2.373354   2.778001   2.373830
     9  C    3.189121   2.785348   1.385455   2.391166   2.701615
    10  C    2.605054   1.826802   2.756672   3.662639   4.781107
    11  N    2.730121   1.535240   2.593668   2.836654   4.213251
    12  H    1.006423   2.157455   3.270897   4.337298   5.423642
    13  H    4.270959   2.888297   2.129687   1.078953   2.174376
    14  H    6.313253   5.596500   3.783638   3.387048   2.159662
    15  H    2.826677   2.925206   2.148383   3.376438   3.782195
    16  H    2.852024   2.393502   3.723813   4.601590   5.794875
    17  H    3.535748   2.403608   2.872848   3.407514   4.450757
    18  H    2.728717   2.386604   2.910314   4.010551   4.926470
    19  H    2.934839   2.157085   3.526982   3.826324   5.192759
                    6          7          8          9         10
     6  Br   0.000000
     7  C    2.859744   0.000000
     8  N    4.107927   1.318448   0.000000
     9  C    4.596585   2.273691   1.321689   0.000000
    10  C    6.325938   5.116113   4.555084   3.395881   0.000000
    11  N    5.382432   5.073236   4.950744   3.884519   2.827899
    12  H    7.054712   5.615783   4.882207   3.670714   3.545956
    13  H    3.030072   3.398147   3.856367   3.366301   3.814170
    14  H    2.990932   1.081304   2.043178   3.234420   6.134883
    15  H    5.676457   3.236961   2.051022   1.081031   3.366676
    16  H    7.278256   6.182343   5.597934   4.392594   1.083516
    17  H    5.795197   4.937407   4.616613   3.648364   1.083616
    18  H    6.611746   4.962154   4.185879   3.078463   1.081970
    19  H    6.291398   6.045818   5.868316   4.745672   3.319708
                   11         12         13         14         15
    11  N    0.000000
    12  H    2.940436   0.000000
    13  H    2.372084   4.545417   0.000000
    14  H    6.127341   6.623125   4.314854   0.000000
    15  H    4.281814   3.361228   4.265650   4.090646   0.000000
    16  H    3.146198   3.734978   4.598371   7.210313   4.240103
    17  H    2.995586   4.414488   3.450597   5.909363   3.881447
    18  H    3.688921   3.729155   4.416309   5.919016   2.801204
    19  H    1.005748   2.977149   3.295417   7.100086   5.009692
                   16         17         18         19
    16  H    0.000000
    17  H    1.784205   0.000000
    18  H    1.774713   1.792527   0.000000
    19  H    3.320534   3.611401   4.224741   0.000000
 Stoichiometry    C6H8BrN3S
 Framework group  C1[X(C6H8BrN3S)]
 Deg. of freedom    51
 Full point group                 C1      NOp   1
 Largest Abelian subgroup         C1      NOp   1
 Largest concise Abelian subgroup C1      NOp   1
                         Standard orientation:                         
 ---------------------------------------------------------------------
 Center     Atomic      Atomic             Coordinates (Angstroms)
 Number     Number       Type             X           Y           Z
 ---------------------------------------------------------------------
      1          7           0       -3.648749    0.332923   -0.863160
      2         16           0       -2.568505   -0.472838   -0.132311
      3          6           0       -0.964242    0.373351   -0.076443
      4          6           0        0.205064   -0.362746   -0.045897
      5          6           0        1.399084    0.340402   -0.020009
      6         35           0        3.056039   -0.580139    0.028393
      7          6           0        1.372558    1.730866   -0.028868
      8          7           0        0.246157    2.414846   -0.070085
      9          6           0       -0.899943    1.757152   -0.097569
     10          6           0       -3.058837   -0.231012    1.610761
     11          7           0       -2.136386   -1.906201   -0.472467
     12          1           0       -3.702061    0.164176   -1.853902
     13          1           0        0.151849   -1.440341   -0.055645
     14          1           0        2.285660    2.309656   -0.007310
     15          1           0       -1.802367    2.350212   -0.147953
     16          1           0       -4.011622   -0.724751    1.760519
     17          1           0       -2.296491   -0.663023    2.248271
     18          1           0       -3.162250    0.833444    1.774773
     19          1           0       -2.877284   -2.498157   -0.807410
 ---------------------------------------------------------------------
 Rotational constants (GHZ):           1.5429582           0.3380308           0.2971936
 Standard basis: def2SVP (5D, 7F)
 There are   229 symmetry adapted cartesian basis functions of A   symmetry.
 There are   216 symmetry adapted basis functions of A   symmetry.
   216 basis functions,   398 primitive gaussians,   229 cartesian basis functions
    58 alpha electrons       58 beta electrons
       nuclear repulsion energy       974.9333722415 Hartrees.
 NAtoms=   19 NActive=   19 NUniq=   19 SFac= 1.00D+00 NAtFMM=   60 NAOKFM=F Big=F
 Integral buffers will be    131072 words long.
 Raffenetti 2 integral format.
 Two-electron integral symmetry is turned on.
 Nuclear repulsion after empirical dispersion term =      974.9103457427 Hartrees.
 One-electron integrals computed using PRISM.
   1 Symmetry operations used in ECPInt.
 ECPInt:  NShTT=    4851 NPrTT=   19510 LenC2=    4624 LenP2D=   13650.
 LDataN:  DoStor=T MaxTD1= 4 Len=   56
 NBasis=   216 RedAO= T EigKep=  5.96D-04  NBF=   216
 NBsUse=   216 1.00D-06 EigRej= -1.00D+00 NBFU=   216
 ExpMin= 1.22D-01 ExpMax= 1.13D+05 ExpMxC= 1.70D+04 IAcc=3 IRadAn=         5 AccDes= 0.00D+00
 Harris functional with IExCor= 1009 and IRadAn=       5 diagonalized for initial guess.
 HarFok:  IExCor= 1009 AccDes= 0.00D+00 IRadAn=         5 IDoV= 1 UseB2=F ITyADJ=14
 ICtDFT=  3500011 ScaDFX=  1.000000  1.000000  1.000000  1.000000
 FoFCou: FMM=F IPFlag=           0 FMFlag=      100000 FMFlg1=           0
         NFxFlg=           0 DoJE=T BraDBF=F KetDBF=T FulRan=T
         wScrn=  0.000000 ICntrl=       500 IOpCl=  0 I1Cent=   200000004 NGrid=           0
         NMat0=    1 NMatS0=      1 NMatT0=    0 NMatD0=    1 NMtDS0=    0 NMtDT0=    0
 Petite list used in FoFCou.
 Requested convergence on RMS density matrix=1.00D-08 within 128 cycles.
 Requested convergence on MAX density matrix=1.00D-06.
 Requested convergence on             energy=1.00D-06.
 No special actions if energy rises.
 Integral accuracy reduced to 1.0D-05 until final iterations.
 Initial convergence to 1.0D-05 achieved.  Increase integral accuracy.
 SCF Done:  E(RPBE1PBE) =  -3368.30674090     A.U. after   15 cycles
            NFock= 15  Conv=0.67D-08     -V/T= 2.0021

 **********************************************************************

            Population analysis using the SCF Density.

 **********************************************************************

 Orbital symmetries:
       Occupied  (A) (A) (A) (A) (A) (A) (A) (A) (A) (A) (A) (A)
                 (A) (A) (A) (A) (A) (A) (A) (A) (A) (A) (A) (A)
                 (A) (A) (A) (A) (A) (A) (A) (A) (A) (A) (A) (A)
                 (A) (A) (A) (A) (A) (A) (A) (A) (A) (A) (A) (A)
                 (A) (A) (A) (A) (A) (A) (A) (A) (A) (A)
       Virtual   (A) (A) (A) (A) (A) (A) (A) (A) (A) (A) (A) (A)
                 (A) (A) (A) (A) (A) (A) (A) (A) (A) (A) (A) (A)
                 (A) (A) (A) (A) (A) (A) (A) (A) (A) (A) (A) (A)
                 (A) (A) (A) (A) (A) (A) (A) (A) (A) (A) (A) (A)
                 (A) (A) (A) (A) (A) (A) (A) (A) (A) (A) (A) (A)
                 (A) (A) (A) (A) (A) (A) (A) (A) (A) (A) (A) (A)
                 (A) (A) (A) (A) (A) (A) (A) (A) (A) (A) (A) (A)
                 (A) (A) (A) (A) (A) (A) (A) (A) (A) (A) (A) (A)
                 (A) (A) (A) (A) (A) (A) (A) (A) (A) (A) (A) (A)
                 (A) (A) (A) (A) (A) (A) (A) (A) (A) (A) (A) (A)
                 (A) (A) (A) (A) (A) (A) (A) (A) (A) (A) (A) (A)
                 (A) (A) (A) (A) (A) (A) (A) (A) (A) (A) (A) (A)
                 (A) (A) (A) (A) (A) (A) (A) (A) (A) (A) (A) (A)
                 (A) (A)
 The electronic state is 1-A.
 Alpha  occ. eigenvalues -- -483.20761 -89.19647 -62.64134 -56.43133 -56.42774
 Alpha  occ. eigenvalues --  -56.42761 -14.40975 -14.35713 -14.35592 -10.31221
 Alpha  occ. eigenvalues --  -10.29452 -10.29293 -10.28086 -10.27935 -10.26753
 Alpha  occ. eigenvalues --   -8.78749  -8.17032  -6.60250  -6.58939  -6.58903
 Alpha  occ. eigenvalues --   -6.11169  -6.11078  -6.11031  -2.68802  -2.68426
 Alpha  occ. eigenvalues --   -2.68398  -2.67345  -2.67345  -1.01975  -0.99659
 Alpha  occ. eigenvalues --   -0.87649  -0.86491  -0.83563  -0.78000  -0.77113
 Alpha  occ. eigenvalues --   -0.69309  -0.66646  -0.62452  -0.56646  -0.55504
 Alpha  occ. eigenvalues --   -0.52991  -0.50494  -0.48525  -0.46102  -0.45295
 Alpha  occ. eigenvalues --   -0.44970  -0.44513  -0.43965  -0.40985  -0.36019
 Alpha  occ. eigenvalues --   -0.35931  -0.32518  -0.31732  -0.29298  -0.27983
 Alpha  occ. eigenvalues --   -0.27807  -0.26841  -0.25351
 Alpha virt. eigenvalues --   -0.05185  -0.04281   0.00074   0.06256   0.06776
 Alpha virt. eigenvalues --    0.07512   0.08744   0.09789   0.10818   0.11919
 Alpha virt. eigenvalues --    0.12499   0.13369   0.13541   0.16898   0.17041
 Alpha virt. eigenvalues --    0.17981   0.21441   0.25214   0.27262   0.31229
 Alpha virt. eigenvalues --    0.32113   0.32507   0.35839   0.36876   0.41513
 Alpha virt. eigenvalues --    0.41759   0.42209   0.44827   0.44882   0.46348
 Alpha virt. eigenvalues --    0.49019   0.49545   0.49928   0.51309   0.52598
 Alpha virt. eigenvalues --    0.52826   0.54709   0.55159   0.57345   0.58892
 Alpha virt. eigenvalues --    0.60075   0.61724   0.62427   0.62872   0.64541
 Alpha virt. eigenvalues --    0.65821   0.66646   0.66816   0.67710   0.67892
 Alpha virt. eigenvalues --    0.68289   0.69624   0.71732   0.71825   0.72243
 Alpha virt. eigenvalues --    0.74119   0.76325   0.77374   0.78390   0.81307
 Alpha virt. eigenvalues --    0.81529   0.83653   0.84928   0.86173   0.87640
 Alpha virt. eigenvalues --    0.89533   0.91327   0.94350   0.94990   0.95910
 Alpha virt. eigenvalues --    0.98977   1.02585   1.04147   1.09476   1.10776
 Alpha virt. eigenvalues --    1.14490   1.14829   1.16425   1.18163   1.20777
 Alpha virt. eigenvalues --    1.22176   1.24238   1.25795   1.28083   1.31256
 Alpha virt. eigenvalues --    1.32975   1.35826   1.36522   1.37612   1.44472
 Alpha virt. eigenvalues --    1.46465   1.48952   1.50976   1.55859   1.57504
 Alpha virt. eigenvalues --    1.65512   1.66852   1.69683   1.74565   1.75329
 Alpha virt. eigenvalues --    1.76202   1.77556   1.78714   1.80039   1.80946
 Alpha virt. eigenvalues --    1.83784   1.85605   1.87385   1.89557   1.94356
 Alpha virt. eigenvalues --    1.97725   1.99140   2.02879   2.03819   2.11705
 Alpha virt. eigenvalues --    2.15008   2.15704   2.19778   2.20941   2.23513
 Alpha virt. eigenvalues --    2.25568   2.28652   2.31195   2.34416   2.35732
 Alpha virt. eigenvalues --    2.37984   2.39715   2.42706   2.45237   2.48541
 Alpha virt. eigenvalues --    2.50143   2.53865   2.56596   2.57937   2.59639
 Alpha virt. eigenvalues --    2.61004   2.62398   2.71280   2.73448   2.81953
 Alpha virt. eigenvalues --    2.82962   2.83796   2.89523   2.92345   2.94244
 Alpha virt. eigenvalues --    2.94494   2.96974   3.00288   3.07154   3.26684
 Alpha virt. eigenvalues --    3.29187   3.32363   3.44089   3.47382   3.52289
 Alpha virt. eigenvalues --    3.57181   3.64397   3.84550
          Condensed to atoms (all electrons):
               1          2          3          4          5          6
     1  N    6.896683   0.353420  -0.064957   0.003539  -0.000013   0.000000
     2  S    0.353420  14.633544   0.093368  -0.047573   0.008256   0.000002
     3  C   -0.064957   0.093368   5.793602   0.378467   0.055361   0.006782
     4  C    0.003539  -0.047573   0.378467   4.994050   0.264967  -0.076949
     5  C   -0.000013   0.008256   0.055361   0.264967   5.411285   0.225102
     6  Br   0.000000   0.000002   0.006782  -0.076949   0.225102  34.893204
     7  C   -0.000001  -0.000373  -0.075627  -0.008573   0.395802  -0.051947
     8  N    0.000261   0.002963  -0.022672  -0.066168  -0.018349   0.003101
     9  C    0.010281  -0.047554   0.354092  -0.016333  -0.082203   0.000189
    10  C   -0.096744   0.287151  -0.121508  -0.003948  -0.000681   0.000003
    11  N   -0.039215   0.377257  -0.106358   0.001603   0.001913  -0.000030
    12  H    0.330109  -0.012047  -0.002220  -0.000030  -0.000040   0.000000
    13  H    0.000382  -0.013476  -0.038481   0.424874  -0.052857   0.000241
    14  H   -0.000000   0.000037   0.001503   0.005478  -0.067212   0.005278
    15  H    0.016034  -0.002786  -0.073021   0.005208   0.001125   0.000035
    16  H    0.007030  -0.007449   0.007562  -0.000078   0.000011  -0.000000
    17  H    0.005941  -0.015190   0.005530   0.001838   0.000191  -0.000006
    18  H    0.003859  -0.005853   0.001131   0.000293   0.000001   0.000000
    19  H   -0.000710  -0.018615   0.011609  -0.000465  -0.000035  -0.000001
               7          8          9         10         11         12
     1  N   -0.000001   0.000261   0.010281  -0.096744  -0.039215   0.330109
     2  S   -0.000373   0.002963  -0.047554   0.287151   0.377257  -0.012047
     3  C   -0.075627  -0.022672   0.354092  -0.121508  -0.106358  -0.002220
     4  C   -0.008573  -0.066168  -0.016333  -0.003948   0.001603  -0.000030
     5  C    0.395802  -0.018349  -0.082203  -0.000681   0.001913  -0.000040
     6  Br  -0.051947   0.003101   0.000189   0.000003  -0.000030   0.000000
     7  C    4.717669   0.539616  -0.058935  -0.000037  -0.000037   0.000002
     8  N    0.539616   6.257119   0.516788  -0.000283  -0.000030  -0.000025
     9  C   -0.058935   0.516788   4.784364  -0.004020   0.005794  -0.001049
    10  C   -0.000037  -0.000283  -0.004020   4.948291  -0.047744   0.008784
    11  N   -0.000037  -0.000030   0.005794  -0.047744   6.860601  -0.001324
    12  H    0.000002  -0.000025  -0.001049   0.008784  -0.001324   0.549720
    13  H    0.008515  -0.000500   0.009021   0.001034   0.034707  -0.000005
    14  H    0.424678  -0.033203   0.004483  -0.000001  -0.000000   0.000000
    15  H    0.004292  -0.028411   0.425677  -0.000697   0.000391  -0.000361
    16  H   -0.000001   0.000002   0.000073   0.364464   0.000513  -0.000481
    17  H    0.000044  -0.000008  -0.000960   0.363350   0.003914  -0.000394
    18  H   -0.000001   0.000100   0.003284   0.357075   0.003281  -0.000721
    19  H    0.000004   0.000001  -0.000276  -0.004650   0.337311   0.001442
              13         14         15         16         17         18
     1  N    0.000382  -0.000000   0.016034   0.007030   0.005941   0.003859
     2  S   -0.013476   0.000037  -0.002786  -0.007449  -0.015190  -0.005853
     3  C   -0.038481   0.001503  -0.073021   0.007562   0.005530   0.001131
     4  C    0.424874   0.005478   0.005208  -0.000078   0.001838   0.000293
     5  C   -0.052857  -0.067212   0.001125   0.000011   0.000191   0.000001
     6  Br   0.000241   0.005278   0.000035  -0.000000  -0.000006   0.000000
     7  C    0.008515   0.424678   0.004292  -0.000001   0.000044  -0.000001
     8  N   -0.000500  -0.033203  -0.028411   0.000002  -0.000008   0.000100
     9  C    0.009021   0.004483   0.425677   0.000073  -0.000960   0.003284
    10  C    0.001034  -0.000001  -0.000697   0.364464   0.363350   0.357075
    11  N    0.034707  -0.000000   0.000391   0.000513   0.003914   0.003281
    12  H   -0.000005   0.000000  -0.000361  -0.000481  -0.000394  -0.000721
    13  H    0.569807  -0.000232  -0.000332  -0.000078   0.000232  -0.000057
    14  H   -0.000232   0.618789  -0.000282   0.000000   0.000000  -0.000000
    15  H   -0.000332  -0.000282   0.606062  -0.000084   0.000052   0.001630
    16  H   -0.000078   0.000000  -0.000084   0.552033  -0.009831  -0.005626
    17  H    0.000232   0.000000   0.000052  -0.009831   0.581814  -0.013536
    18  H   -0.000057  -0.000000   0.001630  -0.005626  -0.013536   0.571250
    19  H   -0.001112   0.000000  -0.000025   0.001537  -0.000152  -0.000037
              19
     1  N   -0.000710
     2  S   -0.018615
     3  C    0.011609
     4  C   -0.000465
     5  C   -0.000035
     6  Br  -0.000001
     7  C    0.000004
     8  N    0.000001
     9  C   -0.000276
    10  C   -0.004650
    11  N    0.337311
    12  H    0.001442
    13  H   -0.001112
    14  H    0.000000
    15  H   -0.000025
    16  H    0.001537
    17  H   -0.000152
    18  H   -0.000037
    19  H    0.545354
 Mulliken charges:
               1
     1  N   -0.425896
     2  S    0.414919
     3  C   -0.204161
     4  C    0.139800
     5  C   -0.142624
     6  Br  -0.005005
     7  C    0.104910
     8  N   -0.150302
     9  C    0.097286
    10  C   -0.049840
    11  N   -0.432546
    12  H    0.128640
    13  H    0.058317
    14  H    0.040684
    15  H    0.045494
    16  H    0.090403
    17  H    0.077171
    18  H    0.083928
    19  H    0.128822
 Sum of Mulliken charges =  -0.00000
 Mulliken charges with hydrogens summed into heavy atoms:
               1
     1  N   -0.297256
     2  S    0.414919
     3  C   -0.204161
     4  C    0.198116
     5  C   -0.142624
     6  Br  -0.005005
     7  C    0.145595
     8  N   -0.150302
     9  C    0.142780
    10  C    0.201662
    11  N   -0.303724
 Electronic spatial extent (au):  <R**2>=           3366.4443
 Charge=             -0.0000 electrons
 Dipole moment (field-independent basis, Debye):
    X=             -0.7727    Y=             -0.9708    Z=              1.0320  Tot=              1.6139
 Quadrupole moment (field-independent basis, Debye-Ang):
   XX=            -82.5461   YY=            -88.9850   ZZ=            -80.0020
   XY=              4.9785   XZ=             -2.2431   YZ=              0.5527
 Traceless Quadrupole moment (field-independent basis, Debye-Ang):
   XX=              1.2983   YY=             -5.1406   ZZ=              3.8424
   XY=              4.9785   XZ=             -2.2431   YZ=              0.5527
 Octapole moment (field-independent basis, Debye-Ang**2):
  XXX=            102.0030  YYY=            -39.6750  ZZZ=             -3.7322  XYY=             25.5148
  XXY=            -30.2158  XXZ=              6.3683  XZZ=              7.3039  YZZ=             -9.1485
  YYZ=             -0.3568  XYZ=             -4.2054
 Hexadecapole moment (field-independent basis, Debye-Ang**3):
 XXXX=          -2955.2357 YYYY=           -802.8947 ZZZZ=           -245.5065 XXXY=             57.3553
 XXXZ=            -16.7830 YYYX=            -33.6144 YYYZ=             12.2913 ZZZX=             25.9960
 ZZZY=             -2.3744 XXYY=           -549.9157 XXZZ=           -467.6758 YYZZ=           -167.6994
 XXYZ=             16.7098 YYXZ=              8.7330 ZZXY=             -9.8552
 N-N= 9.749103457427D+02 E-N=-9.968312472930D+03  KE= 3.361398253594D+03
   1 Symmetry operations used in ECPInt.
 ECPInt:  NShTT=    4851 NPrTT=   19510 LenC2=    4624 LenP2D=   13650.
 LDataN:  DoStor=T MaxTD1= 5 Len=  102
 Calling FoFJK, ICntrl=      2127 FMM=F ISym2X=0 I1Cent= 0 IOpClX= 0 NMat=1 NMatS=1 NMatT=0.
 ***** Axes restored to original set *****
 -------------------------------------------------------------------
 Center     Atomic                   Forces (Hartrees/Bohr)
 Number     Number              X              Y              Z
 -------------------------------------------------------------------
      1        7          -0.010696350   -0.008467213   -0.015712907
      2       16          -0.003921494    0.001008652   -0.004080695
      3        6          -0.003300107    0.006511821    0.000218140
      4        6           0.003996706   -0.000707379   -0.000303552
      5        6           0.008929774    0.006878248   -0.000367691
      6       35          -0.004776799   -0.002954024    0.000251130
      7        6           0.000876937    0.001093732    0.000119954
      8        7          -0.001880178   -0.008569133    0.000025547
      9        6          -0.003519845    0.000242425   -0.000182540
     10        6           0.004463099   -0.000085498    0.015058955
     11        7           0.017236046   -0.002556643   -0.003350911
     12        1           0.006947171    0.003376149    0.011204588
     13        1           0.000130281    0.009586523    0.000452750
     14        1           0.009876853   -0.003202854   -0.000491132
     15        1          -0.010166579   -0.004353451    0.001097777
     16        1          -0.008792499    0.005417903    0.002019007
     17        1           0.007907036    0.003958557   -0.003738150
     18        1          -0.001347989   -0.010111899   -0.002755128
     19        1          -0.011962063    0.002934082    0.000534858
 -------------------------------------------------------------------
 Cartesian Forces:  Max     0.017236046 RMS     0.006384144

 GradGradGradGradGradGradGradGradGradGradGradGradGradGradGradGradGradGrad
 Berny optimization.
 FormGI is forming the generalized inverse of G from B-inverse, IUseBI=4.
 Internal  Forces:  Max     0.012728377 RMS     0.004700854
 Search for a local minimum.
 Step number   1 out of a maximum of  100
 All quantities printed in internal units (Hartrees-Bohrs-Radians)
 Mixed Optimization -- RFO/linear search
 Second derivative matrix not updated -- first step.
 ITU=  0
     Eigenvalues ---    0.00230   0.00230   0.01465   0.02241   0.02277
     Eigenvalues ---    0.02298   0.02317   0.02383   0.02434   0.02646
     Eigenvalues ---    0.03476   0.03504   0.05907   0.06059   0.06389
     Eigenvalues ---    0.08641   0.09492   0.15617   0.15998   0.15999
     Eigenvalues ---    0.16000   0.16000   0.16000   0.16000   0.16000
     Eigenvalues ---    0.16000   0.18442   0.19137   0.23213   0.23419
     Eigenvalues ---    0.23505   0.24114   0.24990   0.24999   0.25000
     Eigenvalues ---    0.35561   0.35573   0.35757   0.35837   0.35870
     Eigenvalues ---    0.36121   0.43604   0.45979   0.46577   0.46692
     Eigenvalues ---    0.47647   0.48331   0.59262   0.61039   0.66097
     Eigenvalues ---    0.66689
 RFO step:  Lambda=-6.94914125D-03 EMin= 2.30000000D-03
 Linear search not attempted -- first point.
 Iteration  1 RMS(Cart)=  0.03596421 RMS(Int)=  0.00094449
 Iteration  2 RMS(Cart)=  0.00104918 RMS(Int)=  0.00008230
 Iteration  3 RMS(Cart)=  0.00000128 RMS(Int)=  0.00008230
 Iteration  4 RMS(Cart)=  0.00000000 RMS(Int)=  0.00008230
 Variable       Old X    -DE/DX   Delta X   Delta X   Delta X     New X
                                 (Linear)    (Quad)   (Total)
    R1        2.89709   0.00316   0.00000   0.00469   0.00469   2.90178
    R2        1.90186   0.01131   0.00000   0.02392   0.02392   1.92578
    R3        3.42912  -0.00207   0.00000  -0.00806  -0.00806   3.42106
    R4        3.45216  -0.01062   0.00000  -0.04282  -0.04282   3.40934
    R5        2.90118   0.00128   0.00000   0.00191   0.00191   2.90310
    R6        2.61169   0.00955   0.00000   0.01889   0.01889   2.63058
    R7        2.61813   0.00720   0.00000   0.01490   0.01491   2.63304
    R8        2.61901   0.00509   0.00000   0.00986   0.00986   2.62886
    R9        2.03892   0.00959   0.00000   0.02604   0.02604   2.06496
   R10        3.58313  -0.00561   0.00000  -0.02931  -0.02931   3.55382
   R11        2.62813   0.00746   0.00000   0.01547   0.01546   2.64359
   R12        2.49151   0.01229   0.00000   0.01985   0.01985   2.51135
   R13        2.04337   0.01002   0.00000   0.02743   0.02743   2.07080
   R14        2.49763   0.00958   0.00000   0.01585   0.01586   2.51349
   R15        2.04285   0.01096   0.00000   0.02997   0.02997   2.07282
   R16        2.04755   0.00999   0.00000   0.02754   0.02754   2.07509
   R17        2.04774   0.00934   0.00000   0.02575   0.02575   2.07349
   R18        2.04463   0.01052   0.00000   0.02885   0.02885   2.07348
   R19        1.90059   0.01058   0.00000   0.02233   0.02233   1.92291
    A1        2.00258  -0.01273   0.00000  -0.07624  -0.07624   1.92634
    A2        1.97418  -0.00100   0.00000  -0.00593  -0.00593   1.96825
    A3        1.76824  -0.00213   0.00000  -0.01253  -0.01250   1.75575
    A4        2.19372   0.00347   0.00000   0.02390   0.02388   2.21760
    A5        1.71751   0.00251   0.00000   0.00789   0.00787   1.72538
    A6        1.76538  -0.00153   0.00000  -0.00703  -0.00702   1.75836
    A7        1.99386  -0.00138   0.00000  -0.00931  -0.00926   1.98460
    A8        2.09475   0.00425   0.00000   0.01669   0.01666   2.11141
    A9        2.10171  -0.00736   0.00000  -0.02852  -0.02854   2.07318
   A10        2.08639   0.00311   0.00000   0.01156   0.01156   2.09795
   A11        2.04779  -0.00129   0.00000  -0.00779  -0.00779   2.04000
   A12        2.08290   0.00108   0.00000   0.00646   0.00646   2.08936
   A13        2.15241   0.00021   0.00000   0.00128   0.00127   2.15368
   A14        2.10254   0.00003   0.00000   0.00072   0.00073   2.10326
   A15        2.08369   0.00121   0.00000   0.00352   0.00351   2.08720
   A16        2.09696  -0.00124   0.00000  -0.00424  -0.00424   2.09272
   A17        2.13550  -0.00010   0.00000   0.00044   0.00043   2.13593
   A18        2.11639  -0.00277   0.00000  -0.01711  -0.01711   2.09928
   A19        2.03128   0.00287   0.00000   0.01666   0.01667   2.04794
   A20        2.07526  -0.00052   0.00000   0.00112   0.00113   2.07638
   A21        2.13761  -0.00241   0.00000  -0.00893  -0.00893   2.12868
   A22        2.10589  -0.00061   0.00000  -0.00645  -0.00647   2.09942
   A23        2.03964   0.00302   0.00000   0.01528   0.01526   2.05489
   A24        1.88345  -0.00481   0.00000  -0.03062  -0.03076   1.85269
   A25        1.89626  -0.00287   0.00000  -0.01794  -0.01811   1.87815
   A26        1.87604   0.00284   0.00000   0.01953   0.01965   1.89569
   A27        1.93441   0.00298   0.00000   0.01268   0.01219   1.94660
   A28        1.92123   0.00110   0.00000   0.00822   0.00839   1.92962
   A29        1.95011   0.00047   0.00000   0.00645   0.00653   1.95664
   A30        1.99979  -0.01077   0.00000  -0.06453  -0.06453   1.93526
    D1        1.56009  -0.00257   0.00000  -0.04699  -0.04700   1.51309
    D2       -2.90223  -0.00109   0.00000  -0.04609  -0.04602  -2.94825
    D3       -0.61165  -0.00248   0.00000  -0.05302  -0.05308  -0.66473
    D4       -2.61946  -0.00132   0.00000  -0.01466  -0.01467  -2.63414
    D5        0.49409  -0.00151   0.00000  -0.02537  -0.02533   0.46876
    D6        1.81052   0.00012   0.00000  -0.00279  -0.00282   1.80770
    D7       -1.35912  -0.00007   0.00000  -0.01351  -0.01347  -1.37259
    D8       -0.22941   0.00124   0.00000   0.00655   0.00650  -0.22291
    D9        2.88413   0.00104   0.00000  -0.00417  -0.00415   2.87998
   D10        1.15771   0.00121   0.00000   0.01142   0.01126   1.16897
   D11       -3.02696   0.00037   0.00000  -0.00133  -0.00114  -3.02810
   D12       -0.91390   0.00096   0.00000   0.00756   0.00762  -0.90628
   D13       -3.10551   0.00035   0.00000   0.00422   0.00403  -3.10148
   D14       -1.00699  -0.00050   0.00000  -0.00853  -0.00837  -1.01536
   D15        1.10606   0.00009   0.00000   0.00036   0.00039   1.10645
   D16       -1.24999  -0.00049   0.00000  -0.00236  -0.00258  -1.25257
   D17        0.84853  -0.00133   0.00000  -0.01511  -0.01498   0.83355
   D18        2.96158  -0.00075   0.00000  -0.00622  -0.00623   2.95536
   D19       -0.59619  -0.00123   0.00000  -0.03567  -0.03562  -0.63180
   D20       -2.85392  -0.00100   0.00000  -0.03932  -0.03932  -2.89324
   D21        1.60358  -0.00264   0.00000  -0.04172  -0.04177   1.56181
   D22        3.12840  -0.00025   0.00000  -0.00693  -0.00706   3.12135
   D23        0.00000  -0.00010   0.00000  -0.00265  -0.00276  -0.00276
   D24        0.01461   0.00012   0.00000   0.00434   0.00439   0.01900
   D25       -3.11379   0.00027   0.00000   0.00862   0.00869  -3.10510
   D26       -3.13128   0.00009   0.00000   0.00639   0.00629  -3.12500
   D27       -0.00049  -0.00024   0.00000  -0.00451  -0.00455  -0.00504
   D28       -0.01760  -0.00008   0.00000  -0.00419  -0.00420  -0.02180
   D29        3.11320  -0.00041   0.00000  -0.01509  -0.01504   3.09816
   D30        3.13819   0.00009   0.00000   0.00270   0.00270   3.14089
   D31       -0.00260  -0.00003   0.00000  -0.00131  -0.00134  -0.00394
   D32       -0.01716  -0.00005   0.00000  -0.00172  -0.00173  -0.01889
   D33        3.12523  -0.00018   0.00000  -0.00574  -0.00577   3.11946
   D34       -0.00795  -0.00004   0.00000  -0.00206  -0.00204  -0.00999
   D35        3.13943  -0.00000   0.00000  -0.00008  -0.00007   3.13935
   D36        3.13444  -0.00016   0.00000  -0.00606  -0.00606   3.12837
   D37       -0.00137  -0.00012   0.00000  -0.00409  -0.00409  -0.00546
   D38        0.00577   0.00006   0.00000   0.00237   0.00240   0.00817
   D39       -3.14134   0.00001   0.00000   0.00038   0.00038  -3.14096
   D40        0.00709  -0.00002   0.00000   0.00068   0.00063   0.00772
   D41       -3.12410   0.00032   0.00000   0.01131   0.01133  -3.11277
         Item               Value     Threshold  Converged?
 Maximum Force            0.012728     0.000450     NO 
 RMS     Force            0.004701     0.000300     NO 
 Maximum Displacement     0.160457     0.001800     NO 
 RMS     Displacement     0.036357     0.001200     NO 
 Predicted change in Energy=-3.610035D-03
 GradGradGradGradGradGradGradGradGradGradGradGradGradGradGradGradGradGrad

                          Input orientation:                          
 ---------------------------------------------------------------------
 Center     Atomic      Atomic             Coordinates (Angstroms)
 Number     Number       Type             X           Y           Z
 ---------------------------------------------------------------------
      1          7           0       -3.833867   -0.337795    0.862221
      2         16           0       -2.754881    0.490330    0.149524
      3          6           0       -1.160253   -0.362346    0.063147
      4          6           0        0.033720    0.352654    0.031784
      5          6           0        1.210053   -0.388823   -0.009558
      6         35           0        2.880824    0.473188   -0.055581
      7          6           0        1.145938   -1.786278   -0.012890
      8          7           0       -0.006796   -2.445948    0.033462
      9          6           0       -1.142874   -1.755529    0.075446
     10          6           0       -3.267857    0.294851   -1.569072
     11          7           0       -2.299299    1.915011    0.499954
     12          1           0       -3.794012   -0.181523    1.868458
     13          1           0        0.011754    1.444874    0.056947
     14          1           0        2.065361   -2.381503   -0.047385
     15          1           0       -2.081114   -2.319923    0.141251
     16          1           0       -4.228553    0.818429   -1.662539
     17          1           0       -2.496198    0.753496   -2.200048
     18          1           0       -3.390250   -0.775236   -1.778504
     19          1           0       -3.084866    2.479822    0.815084
 ---------------------------------------------------------------------
                    Distance matrix (angstroms):
                    1          2          3          4          5
     1  N    0.000000
     2  S    1.535557   0.000000
     3  C    2.790579   1.810348   0.000000
     4  C    4.015541   2.794480   1.392042   0.000000
     5  C    5.118958   4.064348   2.371569   1.391135   0.000000
     6  Br   6.825476   5.639462   4.128258   2.850993   1.880600
     7  C    5.259504   4.519482   2.711435   2.411234   1.398929
     8  N    4.447204   4.023329   2.381752   2.798896   2.390468
     9  C    3.141724   2.765491   1.393346   2.414687   2.722385
    10  C    2.575226   1.804143   2.745550   3.669673   4.790739
    11  N    2.749776   1.536252   2.583521   2.846598   4.228807
    12  H    1.019080   2.117997   3.198208   4.279048   5.348887
    13  H    4.314530   2.928139   2.153992   1.092731   2.191526
    14  H    6.309122   5.614351   3.807072   3.407263   2.168814
    15  H    2.742403   2.889906   2.164762   3.409864   3.818858
    16  H    2.804824   2.358586   3.713043   4.610276   5.811044
    17  H    3.515361   2.378374   2.855155   3.397387   4.454149
    18  H    2.713223   2.392205   2.921480   4.033962   4.943812
    19  H    2.915851   2.123661   3.513896   3.855384   5.230247
                    6          7          8          9         10
     6  Br   0.000000
     7  C    2.849006   0.000000
     8  N    4.107022   1.328951   0.000000
     9  C    4.601575   2.290723   1.330080   0.000000
    10  C    6.334725   5.121952   4.551331   3.379949   0.000000
    11  N    5.405659   5.082539   4.948853   3.871743   2.800695
    12  H    6.977393   5.524293   4.778895   3.566640   3.510041
    13  H    3.031237   3.425141   3.890937   3.402365   3.836971
    14  H    2.968890   1.095820   2.074735   3.271040   6.158053
    15  H    5.697459   3.274508   2.080937   1.096889   3.342246
    16  H    7.296899   6.196047   5.599626   4.378044   1.098092
    17  H    5.795660   4.949674   4.628406   3.647543   1.097244
    18  H    6.622189   4.971579   4.185960   3.073891   1.097236
    19  H    6.354061   6.065051   5.860773   4.717690   3.239103
                   11         12         13         14         15
    11  N    0.000000
    12  H    2.915892   0.000000
    13  H    2.399636   4.517809   0.000000
    14  H    6.148973   6.545427   4.343886   0.000000
    15  H    4.255695   3.238830   4.308237   4.151221   0.000000
    16  H    3.098530   3.695493   4.618362   7.243041   4.208848
    17  H    2.945828   4.371650   3.444105   5.938855   3.885857
    18  H    3.690390   3.716969   4.457735   5.944792   2.790224
    19  H    1.017562   2.948770   3.351857   7.134505   4.949659
                   16         17         18         19
    16  H    0.000000
    17  H    1.814989   0.000000
    18  H    1.804430   1.820453   0.000000
    19  H    3.194818   3.523883   4.173172   0.000000
 Stoichiometry    C6H8BrN3S
 Framework group  C1[X(C6H8BrN3S)]
 Deg. of freedom    51
 Full point group                 C1      NOp   1
 Largest Abelian subgroup         C1      NOp   1
 Largest concise Abelian subgroup C1      NOp   1
                         Standard orientation:                         
 ---------------------------------------------------------------------
 Center     Atomic      Atomic             Coordinates (Angstroms)
 Number     Number       Type             X           Y           Z
 ---------------------------------------------------------------------
      1          7           0       -3.640945    0.378932   -0.845045
      2         16           0       -2.574331   -0.467965   -0.135796
      3          6           0       -0.961119    0.350692   -0.067187
      4          6           0        0.217436   -0.389642   -0.040833
      5          6           0        1.409715    0.326577   -0.013287
      6         35           0        3.061902   -0.570906    0.024878
      7          6           0        1.375655    1.725083   -0.018013
      8          7           0        0.237020    2.409124   -0.059340
      9          6           0       -0.913923    1.743080   -0.088158
     10          6           0       -3.069237   -0.251255    1.585552
     11          7           0       -2.152266   -1.904183   -0.481062
     12          1           0       -3.612501    0.215849   -1.850589
     13          1           0        0.171819   -1.481267   -0.059130
     14          1           0        2.307895    2.300576    0.005603
     15          1           0       -1.840322    2.327136   -0.150039
     16          1           0       -4.040177   -0.753469    1.689776
     17          1           0       -2.302586   -0.722637    2.213239
     18          1           0       -3.166941    0.822446    1.789379
     19          1           0       -2.952275   -2.453822   -0.786537
 ---------------------------------------------------------------------
 Rotational constants (GHZ):           1.5603158           0.3371390           0.2965350
 Standard basis: def2SVP (5D, 7F)
 There are   229 symmetry adapted cartesian basis functions of A   symmetry.
 There are   216 symmetry adapted basis functions of A   symmetry.
   216 basis functions,   398 primitive gaussians,   229 cartesian basis functions
    58 alpha electrons       58 beta electrons
       nuclear repulsion energy       975.0763459083 Hartrees.
 NAtoms=   19 NActive=   19 NUniq=   19 SFac= 1.00D+00 NAtFMM=   60 NAOKFM=F Big=F
 Integral buffers will be    131072 words long.
 Raffenetti 2 integral format.
 Two-electron integral symmetry is turned on.
 Nuclear repulsion after empirical dispersion term =      975.0532443503 Hartrees.
 One-electron integrals computed using PRISM.
   1 Symmetry operations used in ECPInt.
 ECPInt:  NShTT=    4851 NPrTT=   19510 LenC2=    4625 LenP2D=   13652.
 LDataN:  DoStor=T MaxTD1= 4 Len=   56
 NBasis=   216 RedAO= T EigKep=  6.21D-04  NBF=   216
 NBsUse=   216 1.00D-06 EigRej= -1.00D+00 NBFU=   216
 Initial guess from the checkpoint file:  "SDI2979_2.chk"
 B after Tr=     0.000000   -0.000000    0.000000
         Rot=    0.999991   -0.004320    0.000324    0.000071 Ang=  -0.50 deg.
 ExpMin= 1.22D-01 ExpMax= 1.13D+05 ExpMxC= 1.70D+04 IAcc=3 IRadAn=         5 AccDes= 0.00D+00
 Harris functional with IExCor= 1009 and IRadAn=       5 diagonalized for initial guess.
 HarFok:  IExCor= 1009 AccDes= 0.00D+00 IRadAn=         5 IDoV= 1 UseB2=F ITyADJ=14
 ICtDFT=  3500011 ScaDFX=  1.000000  1.000000  1.000000  1.000000
 FoFCou: FMM=F IPFlag=           0 FMFlag=      100000 FMFlg1=           0
         NFxFlg=           0 DoJE=T BraDBF=F KetDBF=T FulRan=T
         wScrn=  0.000000 ICntrl=       500 IOpCl=  0 I1Cent=   200000004 NGrid=           0
         NMat0=    1 NMatS0=      1 NMatT0=    0 NMatD0=    1 NMtDS0=    0 NMtDT0=    0
 Petite list used in FoFCou.
 Requested convergence on RMS density matrix=1.00D-08 within 128 cycles.
 Requested convergence on MAX density matrix=1.00D-06.
 Requested convergence on             energy=1.00D-06.
 No special actions if energy rises.
 Integral accuracy reduced to 1.0D-05 until final iterations.
 Initial convergence to 1.0D-05 achieved.  Increase integral accuracy.
 SCF Done:  E(RPBE1PBE) =  -3368.31077378     A.U. after   12 cycles
            NFock= 12  Conv=0.69D-08     -V/T= 2.0021
   1 Symmetry operations used in ECPInt.
 ECPInt:  NShTT=    4851 NPrTT=   19510 LenC2=    4625 LenP2D=   13652.
 LDataN:  DoStor=T MaxTD1= 5 Len=  102
 Calling FoFJK, ICntrl=      2127 FMM=F ISym2X=0 I1Cent= 0 IOpClX= 0 NMat=1 NMatS=1 NMatT=0.
 ***** Axes restored to original set *****
 -------------------------------------------------------------------
 Center     Atomic                   Forces (Hartrees/Bohr)
 Number     Number              X              Y              Z
 -------------------------------------------------------------------
      1        7          -0.010025454   -0.002653853    0.001676081
      2       16           0.004598230   -0.004660891   -0.009510042
      3        6           0.001468616    0.002606766    0.000964572
      4        6          -0.001009777   -0.000920837   -0.000023291
      5        6           0.000601571    0.000805924   -0.000039298
      6       35           0.000364661   -0.000028893    0.000029087
      7        6          -0.003077598   -0.000882350    0.000179067
      8        7           0.001216594   -0.000887344   -0.000253298
      9        6           0.000821078    0.000352739    0.000351844
     10        6           0.000747316   -0.000226021    0.002588080
     11        7           0.004690334    0.005262505    0.004151600
     12        1           0.003516368   -0.000663103    0.002792648
     13        1           0.000004261   -0.000676965    0.000022705
     14        1          -0.000235156    0.000559180   -0.000033501
     15        1           0.000342905    0.000694295    0.000084830
     16        1           0.000048101   -0.000028309    0.000131601
     17        1          -0.000466336   -0.000038577   -0.000082394
     18        1          -0.000352506    0.000749809   -0.001070905
     19        1          -0.003253208    0.000635926   -0.001959386
 -------------------------------------------------------------------
 Cartesian Forces:  Max     0.010025454 RMS     0.002593129

 GradGradGradGradGradGradGradGradGradGradGradGradGradGradGradGradGradGrad
 Berny optimization.
 Using GEDIIS/GDIIS optimizer.
 FormGI is forming the generalized inverse of G from B-inverse, IUseBI=4.
 Internal  Forces:  Max     0.008435772 RMS     0.001539935
 Search for a local minimum.
 Step number   2 out of a maximum of  100
 All quantities printed in internal units (Hartrees-Bohrs-Radians)
 Mixed Optimization -- RFO/linear search
 Update second derivatives using D2CorX and points    1    2
 DE= -4.03D-03 DEPred=-3.61D-03 R= 1.12D+00
 TightC=F SS=  1.41D+00  RLast= 1.98D-01 DXNew= 5.0454D-01 5.9386D-01
 Trust test= 1.12D+00 RLast= 1.98D-01 DXMaxT set to 5.05D-01
 ITU=  1  0
 Use linear search instead of GDIIS.
     Eigenvalues ---    0.00230   0.00230   0.01476   0.02241   0.02277
     Eigenvalues ---    0.02299   0.02315   0.02388   0.02439   0.02646
     Eigenvalues ---    0.03064   0.03488   0.05941   0.06203   0.06381
     Eigenvalues ---    0.08830   0.09546   0.13917   0.15666   0.15997
     Eigenvalues ---    0.15998   0.16000   0.16000   0.16000   0.16000
     Eigenvalues ---    0.16205   0.18552   0.19153   0.23045   0.23431
     Eigenvalues ---    0.23600   0.24086   0.24714   0.24999   0.25004
     Eigenvalues ---    0.35565   0.35617   0.35786   0.35852   0.36048
     Eigenvalues ---    0.37809   0.43624   0.45484   0.46214   0.46649
     Eigenvalues ---    0.47962   0.48424   0.59732   0.61296   0.66318
     Eigenvalues ---    0.70395
 RFO step:  Lambda=-1.29069407D-03 EMin= 2.29799461D-03
 Quartic linear search produced a step of  0.18608.
 Iteration  1 RMS(Cart)=  0.03602386 RMS(Int)=  0.00089826
 Iteration  2 RMS(Cart)=  0.00097883 RMS(Int)=  0.00003617
 Iteration  3 RMS(Cart)=  0.00000107 RMS(Int)=  0.00003615
 Iteration  4 RMS(Cart)=  0.00000000 RMS(Int)=  0.00003615
 Variable       Old X    -DE/DX   Delta X   Delta X   Delta X     New X
                                 (Linear)    (Quad)   (Total)
    R1        2.90178   0.00844   0.00087   0.01485   0.01573   2.91751
    R2        1.92578   0.00279   0.00445   0.00671   0.01116   1.93694
    R3        3.42106  -0.00039  -0.00150  -0.00167  -0.00317   3.41789
    R4        3.40934  -0.00154  -0.00797  -0.00671  -0.01467   3.39466
    R5        2.90310   0.00640   0.00036   0.01139   0.01174   2.91484
    R6        2.63058  -0.00159   0.00352  -0.00403  -0.00052   2.63006
    R7        2.63304  -0.00031   0.00277  -0.00104   0.00173   2.63477
    R8        2.62886  -0.00021   0.00183  -0.00053   0.00131   2.63017
    R9        2.06496  -0.00068   0.00485  -0.00263   0.00222   2.06718
   R10        3.55382   0.00031  -0.00545   0.00257  -0.00289   3.55093
   R11        2.64359   0.00053   0.00288   0.00113   0.00400   2.64760
   R12        2.51135  -0.00191   0.00369  -0.00397  -0.00027   2.51108
   R13        2.07080  -0.00050   0.00510  -0.00209   0.00302   2.07382
   R14        2.51349  -0.00053   0.00295  -0.00135   0.00160   2.51509
   R15        2.07282  -0.00065   0.00558  -0.00260   0.00297   2.07579
   R16        2.07509  -0.00007   0.00513  -0.00067   0.00446   2.07955
   R17        2.07349  -0.00030   0.00479  -0.00140   0.00339   2.07688
   R18        2.07348  -0.00049   0.00537  -0.00207   0.00330   2.07677
   R19        1.92291   0.00226   0.00415   0.00536   0.00951   1.93243
    A1        1.92634  -0.00368  -0.01419  -0.02531  -0.03950   1.88684
    A2        1.96825  -0.00016  -0.00110   0.00116  -0.00008   1.96817
    A3        1.75575   0.00097  -0.00233   0.00945   0.00705   1.76279
    A4        2.21760  -0.00117   0.00444  -0.01785  -0.01341   2.20419
    A5        1.72538   0.00137   0.00146   0.01730   0.01875   1.74413
    A6        1.75836   0.00026  -0.00131   0.00326   0.00198   1.76034
    A7        1.98460  -0.00068  -0.00172  -0.00486  -0.00663   1.97797
    A8        2.11141   0.00198   0.00310   0.00905   0.01215   2.12356
    A9        2.07318  -0.00197  -0.00531  -0.00874  -0.01405   2.05913
   A10        2.09795  -0.00001   0.00215  -0.00037   0.00177   2.09972
   A11        2.04000  -0.00033  -0.00145  -0.00128  -0.00274   2.03727
   A12        2.08936   0.00015   0.00120   0.00051   0.00171   2.09107
   A13        2.15368   0.00018   0.00024   0.00078   0.00102   2.15470
   A14        2.10326   0.00059   0.00014   0.00265   0.00278   2.10605
   A15        2.08720  -0.00049   0.00065  -0.00216  -0.00151   2.08569
   A16        2.09272  -0.00010  -0.00079  -0.00048  -0.00127   2.09145
   A17        2.13593   0.00128   0.00008   0.00651   0.00659   2.14252
   A18        2.09928  -0.00099  -0.00318  -0.00549  -0.00867   2.09061
   A19        2.04794  -0.00028   0.00310  -0.00102   0.00208   2.05002
   A20        2.07638  -0.00163   0.00021  -0.00862  -0.00841   2.06797
   A21        2.12868   0.00117  -0.00166   0.00583   0.00416   2.13284
   A22        2.09942  -0.00102  -0.00120  -0.00585  -0.00705   2.09236
   A23        2.05489  -0.00015   0.00284   0.00008   0.00291   2.05781
   A24        1.85269  -0.00060  -0.00572  -0.00520  -0.01095   1.84174
   A25        1.87815   0.00023  -0.00337   0.00209  -0.00136   1.87679
   A26        1.89569   0.00199   0.00366   0.01562   0.01929   1.91498
   A27        1.94660  -0.00016   0.00227  -0.00458  -0.00245   1.94415
   A28        1.92962  -0.00059   0.00156  -0.00451  -0.00287   1.92675
   A29        1.95664  -0.00075   0.00121  -0.00264  -0.00147   1.95517
   A30        1.93526  -0.00335  -0.01201  -0.02313  -0.03514   1.90012
    D1        1.51309  -0.00280  -0.00874  -0.06864  -0.07736   1.43573
    D2       -2.94825  -0.00084  -0.00856  -0.04426  -0.05281  -3.00106
    D3       -0.66473  -0.00182  -0.00988  -0.05686  -0.06677  -0.73151
    D4       -2.63414   0.00096  -0.00273  -0.01549  -0.01822  -2.65236
    D5        0.46876   0.00093  -0.00471  -0.01724  -0.02193   0.44683
    D6        1.80770  -0.00073  -0.00052  -0.03468  -0.03519   1.77251
    D7       -1.37259  -0.00077  -0.00251  -0.03642  -0.03890  -1.41149
    D8       -0.22291  -0.00048   0.00121  -0.03544  -0.03427  -0.25719
    D9        2.87998  -0.00052  -0.00077  -0.03718  -0.03798   2.84200
   D10        1.16897  -0.00047   0.00210  -0.01673  -0.01473   1.15424
   D11       -3.02810  -0.00086  -0.00021  -0.02376  -0.02398  -3.05208
   D12       -0.90628  -0.00048   0.00142  -0.01666  -0.01525  -0.92153
   D13       -3.10148  -0.00000   0.00075  -0.00818  -0.00744  -3.10892
   D14       -1.01536  -0.00039  -0.00156  -0.01522  -0.01669  -1.03205
   D15        1.10645  -0.00001   0.00007  -0.00812  -0.00795   1.09850
   D16       -1.25257   0.00078  -0.00048   0.00278   0.00222  -1.25035
   D17        0.83355   0.00039  -0.00279  -0.00426  -0.00703   0.82652
   D18        2.95536   0.00077  -0.00116   0.00284   0.00171   2.95707
   D19       -0.63180  -0.00170  -0.00663  -0.04881  -0.05547  -0.68727
   D20       -2.89324  -0.00074  -0.00732  -0.03876  -0.04608  -2.93932
   D21        1.56181  -0.00221  -0.00777  -0.05854  -0.06627   1.49554
   D22        3.12135  -0.00001  -0.00131   0.00148   0.00011   3.12146
   D23       -0.00276  -0.00001  -0.00051   0.00113   0.00057  -0.00219
   D24        0.01900   0.00007   0.00082   0.00343   0.00424   0.02325
   D25       -3.10510   0.00007   0.00162   0.00307   0.00470  -3.10040
   D26       -3.12500  -0.00015   0.00117  -0.00508  -0.00397  -3.12897
   D27       -0.00504  -0.00008  -0.00085  -0.00202  -0.00290  -0.00794
   D28       -0.02180  -0.00014  -0.00078  -0.00659  -0.00738  -0.02918
   D29        3.09816  -0.00008  -0.00280  -0.00353  -0.00631   3.09185
   D30        3.14089   0.00001   0.00050   0.00035   0.00086  -3.14143
   D31       -0.00394   0.00001  -0.00025   0.00085   0.00059  -0.00336
   D32       -0.01889   0.00000  -0.00032   0.00072   0.00039  -0.01851
   D33        3.11946  -0.00000  -0.00107   0.00121   0.00012   3.11957
   D34       -0.00999  -0.00005  -0.00038  -0.00264  -0.00301  -0.01300
   D35        3.13935  -0.00005  -0.00001  -0.00239  -0.00240   3.13696
   D36        3.12837  -0.00006  -0.00113  -0.00214  -0.00327   3.12511
   D37       -0.00546  -0.00005  -0.00076  -0.00189  -0.00266  -0.00812
   D38        0.00817  -0.00000   0.00045  -0.00024   0.00022   0.00839
   D39       -3.14096  -0.00001   0.00007  -0.00050  -0.00042  -3.14138
   D40        0.00772   0.00010   0.00012   0.00485   0.00495   0.01267
   D41       -3.11277   0.00005   0.00211   0.00194   0.00402  -3.10875
         Item               Value     Threshold  Converged?
 Maximum Force            0.008436     0.000450     NO 
 RMS     Force            0.001540     0.000300     NO 
 Maximum Displacement     0.131439     0.001800     NO 
 RMS     Displacement     0.036162     0.001200     NO 
 Predicted change in Energy=-7.723556D-04
 GradGradGradGradGradGradGradGradGradGradGradGradGradGradGradGradGradGrad

                          Input orientation:                          
 ---------------------------------------------------------------------
 Center     Atomic      Atomic             Coordinates (Angstroms)
 Number     Number       Type             X           Y           Z
 ---------------------------------------------------------------------
      1          7           0       -3.836116   -0.361287    0.850882
      2         16           0       -2.754718    0.480091    0.139388
      3          6           0       -1.153562   -0.357655    0.063476
      4          6           0        0.041767    0.353632    0.015782
      5          6           0        1.214752   -0.394898   -0.015682
      6         35           0        2.890804    0.452172   -0.080707
      7          6           0        1.141244   -1.793852    0.005715
      8          7           0       -0.011114   -2.452396    0.069894
      9          6           0       -1.141791   -1.751223    0.105853
     10          6           0       -3.269147    0.321042   -1.574391
     11          7           0       -2.316774    1.910467    0.515467
     12          1           0       -3.724457   -0.234468    1.861842
     13          1           0        0.024333    1.447382    0.021812
     14          1           0        2.063029   -2.388655   -0.023341
     15          1           0       -2.087119   -2.304196    0.190674
     16          1           0       -4.237371    0.839834   -1.640627
     17          1           0       -2.507535    0.812815   -2.195672
     18          1           0       -3.385770   -0.741546   -1.829465
     19          1           0       -3.143619    2.450491    0.780803
 ---------------------------------------------------------------------
                    Distance matrix (angstroms):
                    1          2          3          4          5
     1  N    0.000000
     2  S    1.543879   0.000000
     3  C    2.795732   1.808668   0.000000
     4  C    4.030693   2.802071   1.391768   0.000000
     5  C    5.124776   4.067720   2.369929   1.391826   0.000000
     6  Br   6.839666   5.649880   4.127167   2.852372   1.879071
     7  C    5.247920   4.513005   2.707792   2.412600   1.401048
     8  N    4.428693   4.016425   2.386036   2.807048   2.396532
     9  C    3.121919   2.753438   1.394262   2.416473   2.721706
    10  C    2.582436   1.796378   2.760242   3.673128   4.800780
    11  N    2.753501   1.542467   2.588770   2.869867   4.250706
    12  H    1.024984   2.101865   3.139872   4.235357   5.286456
    13  H    4.343007   2.944928   2.155767   1.093905   2.193741
    14  H    6.298762   5.609535   3.805123   3.406930   2.166726
    15  H    2.696249   2.863664   2.162575   3.409809   3.819732
    16  H    2.794872   2.344382   3.721266   4.614229   5.821568
    17  H    3.524930   2.371563   2.882185   3.405925   4.479548
    18  H    2.744388   2.401460   2.951838   4.043806   4.957296
    19  H    2.896647   2.108348   3.515760   3.889571   5.265551
                    6          7          8          9         10
     6  Br   0.000000
     7  C    2.848342   0.000000
     8  N    4.108567   1.328807   0.000000
     9  C    4.599085   2.285628   1.330927   0.000000
    10  C    6.339817   5.140142   4.583711   3.412205   0.000000
    11  N    5.440672   5.093105   4.954712   3.867343   2.792990
    12  H    6.928683   5.436169   4.681794   3.471917   3.510498
    13  H    3.036051   3.428316   3.900235   3.405581   3.829297
    14  H    2.959528   1.097416   2.077216   3.270151   6.179022
    15  H    5.696572   3.273682   2.084790   1.098462   3.377058
    16  H    7.307155   6.210978   5.623691   4.398452   1.100450
    17  H    5.809062   4.995439   4.693241   3.706288   1.099037
    18  H    6.624085   4.996909   4.233542   3.130551   1.098980
    19  H    6.414806   6.080729   5.861423   4.702901   3.177617
                   11         12         13         14         15
    11  N    0.000000
    12  H    2.897420   0.000000
    13  H    2.436991   4.501972   0.000000
    14  H    6.160799   6.456736   4.344365   0.000000
    15  H    4.233393   3.123692   4.308257   4.156521   0.000000
    16  H    3.079560   3.699256   4.614644   7.261804   4.226366
    17  H    2.931127   4.363613   3.424948   5.988196   3.948057
    18  H    3.697923   3.741335   4.455046   5.971974   2.865193
    19  H    1.022596   2.952122   3.408550   7.153543   4.906271
                   16         17         18         19
    16  H    0.000000
    17  H    1.816903   0.000000
    18  H    1.806003   1.822483   0.000000
    19  H    3.107061   3.456297   4.130525   0.000000
 Stoichiometry    C6H8BrN3S
 Framework group  C1[X(C6H8BrN3S)]
 Deg. of freedom    51
 Full point group                 C1      NOp   1
 Largest Abelian subgroup         C1      NOp   1
 Largest concise Abelian subgroup C1      NOp   1
                         Standard orientation:                         
 ---------------------------------------------------------------------
 Center     Atomic      Atomic             Coordinates (Angstroms)
 Number     Number       Type             X           Y           Z
 ---------------------------------------------------------------------
      1          7           0       -3.646160    0.426364   -0.819072
      2         16           0       -2.578338   -0.454139   -0.134942
      3          6           0       -0.956144    0.342399   -0.062186
      4          6           0        0.221601   -0.398865   -0.040674
      5          6           0        1.413084    0.319851   -0.009114
      6         35           0        3.068191   -0.569288    0.021878
      7          6           0        1.374112    1.720350   -0.004738
      8          7           0        0.237834    2.408134   -0.044156
      9          6           0       -0.910230    1.735793   -0.079844
     10          6           0       -3.070045   -0.313511    1.587098
     11          7           0       -2.180153   -1.887827   -0.541379
     12          1           0       -3.548653    0.315152   -1.833329
     13          1           0        0.176947   -1.491564   -0.066005
     14          1           0        2.310644    2.291642    0.024510
     15          1           0       -1.842399    2.313330   -0.144118
     16          1           0       -4.050079   -0.809408    1.654999
     17          1           0       -2.314189   -0.835061    2.190877
     18          1           0       -3.157473    0.746836    1.862373
     19          1           0       -3.022982   -2.402428   -0.806950
 ---------------------------------------------------------------------
 Rotational constants (GHZ):           1.5648368           0.3357510           0.2957140
 Standard basis: def2SVP (5D, 7F)
 There are   229 symmetry adapted cartesian basis functions of A   symmetry.
 There are   216 symmetry adapted basis functions of A   symmetry.
   216 basis functions,   398 primitive gaussians,   229 cartesian basis functions
    58 alpha electrons       58 beta electrons
       nuclear repulsion energy       974.3375545182 Hartrees.
 NAtoms=   19 NActive=   19 NUniq=   19 SFac= 1.00D+00 NAtFMM=   60 NAOKFM=F Big=F
 Integral buffers will be    131072 words long.
 Raffenetti 2 integral format.
 Two-electron integral symmetry is turned on.
 Nuclear repulsion after empirical dispersion term =      974.3144631023 Hartrees.
 One-electron integrals computed using PRISM.
   1 Symmetry operations used in ECPInt.
 ECPInt:  NShTT=    4851 NPrTT=   19510 LenC2=    4622 LenP2D=   13649.
 LDataN:  DoStor=T MaxTD1= 4 Len=   56
 NBasis=   216 RedAO= T EigKep=  6.24D-04  NBF=   216
 NBsUse=   216 1.00D-06 EigRej= -1.00D+00 NBFU=   216
 Initial guess from the checkpoint file:  "SDI2979_2.chk"
 B after Tr=     0.000000    0.000000   -0.000000
         Rot=    0.999957   -0.009234   -0.000060    0.000598 Ang=  -1.06 deg.
 ExpMin= 1.22D-01 ExpMax= 1.13D+05 ExpMxC= 1.70D+04 IAcc=3 IRadAn=         5 AccDes= 0.00D+00
 Harris functional with IExCor= 1009 and IRadAn=       5 diagonalized for initial guess.
 HarFok:  IExCor= 1009 AccDes= 0.00D+00 IRadAn=         5 IDoV= 1 UseB2=F ITyADJ=14
 ICtDFT=  3500011 ScaDFX=  1.000000  1.000000  1.000000  1.000000
 FoFCou: FMM=F IPFlag=           0 FMFlag=      100000 FMFlg1=           0
         NFxFlg=           0 DoJE=T BraDBF=F KetDBF=T FulRan=T
         wScrn=  0.000000 ICntrl=       500 IOpCl=  0 I1Cent=   200000004 NGrid=           0
         NMat0=    1 NMatS0=      1 NMatT0=    0 NMatD0=    1 NMtDS0=    0 NMtDT0=    0
 Petite list used in FoFCou.
 Requested convergence on RMS density matrix=1.00D-08 within 128 cycles.
 Requested convergence on MAX density matrix=1.00D-06.
 Requested convergence on             energy=1.00D-06.
 No special actions if energy rises.
 Integral accuracy reduced to 1.0D-05 until final iterations.
 Initial convergence to 1.0D-05 achieved.  Increase integral accuracy.
 SCF Done:  E(RPBE1PBE) =  -3368.31178760     A.U. after   12 cycles
            NFock= 12  Conv=0.72D-08     -V/T= 2.0021
   1 Symmetry operations used in ECPInt.
 ECPInt:  NShTT=    4851 NPrTT=   19510 LenC2=    4622 LenP2D=   13649.
 LDataN:  DoStor=T MaxTD1= 5 Len=  102
 Calling FoFJK, ICntrl=      2127 FMM=F ISym2X=0 I1Cent= 0 IOpClX= 0 NMat=1 NMatS=1 NMatT=0.
 ***** Axes restored to original set *****
 -------------------------------------------------------------------
 Center     Atomic                   Forces (Hartrees/Bohr)
 Number     Number              X              Y              Z
 -------------------------------------------------------------------
      1        7          -0.003946724    0.000364039    0.002389580
      2       16           0.003355322   -0.002667502   -0.003303162
      3        6           0.000234028    0.000581620    0.000633192
      4        6          -0.000739709    0.000241456   -0.000170108
      5        6          -0.001027333   -0.000492109    0.000073725
      6       35           0.000523189    0.000211887    0.000003822
      7        6          -0.000470688   -0.000545570    0.000058128
      8        7           0.000923215    0.001383016   -0.000001936
      9        6          -0.000399970   -0.000192261   -0.000018720
     10        6          -0.000872935   -0.000669618   -0.000494517
     11        7           0.000813169    0.002825324    0.003571125
     12        1           0.001215719   -0.001385223   -0.000772333
     13        1           0.000154368   -0.001461865    0.000015751
     14        1          -0.001318839    0.000666172   -0.000004344
     15        1           0.001360633    0.000935606   -0.000198752
     16        1           0.001314344   -0.000751405   -0.000319526
     17        1          -0.001302119   -0.000584815    0.000731556
     18        1          -0.000043240    0.001579092   -0.000080527
     19        1           0.000227571   -0.000037844   -0.002112954
 -------------------------------------------------------------------
 Cartesian Forces:  Max     0.003946724 RMS     0.001345433

 GradGradGradGradGradGradGradGradGradGradGradGradGradGradGradGradGradGrad
 Berny optimization.
 Using GEDIIS/GDIIS optimizer.
 FormGI is forming the generalized inverse of G from B-inverse, IUseBI=4.
 Internal  Forces:  Max     0.003237185 RMS     0.000824456
 Search for a local minimum.
 Step number   3 out of a maximum of  100
 All quantities printed in internal units (Hartrees-Bohrs-Radians)
 Mixed Optimization -- En-DIIS/RFO-DIIS
 Update second derivatives using D2CorX and points    1    2    3
 DE= -1.01D-03 DEPred=-7.72D-04 R= 1.31D+00
 TightC=F SS=  1.41D+00  RLast= 1.90D-01 DXNew= 8.4853D-01 5.7092D-01
 Trust test= 1.31D+00 RLast= 1.90D-01 DXMaxT set to 5.71D-01
 ITU=  1  1  0
 Use linear search instead of GDIIS.
     Eigenvalues ---    0.00230   0.00235   0.01481   0.01819   0.02243
     Eigenvalues ---    0.02278   0.02300   0.02322   0.02390   0.02442
     Eigenvalues ---    0.02646   0.03499   0.05840   0.06245   0.06535
     Eigenvalues ---    0.08856   0.09231   0.14399   0.15971   0.15998
     Eigenvalues ---    0.15998   0.16000   0.16000   0.16000   0.16137
     Eigenvalues ---    0.16458   0.18620   0.19215   0.23321   0.23454
     Eigenvalues ---    0.23703   0.24179   0.24716   0.25001   0.25629
     Eigenvalues ---    0.35564   0.35665   0.35791   0.35853   0.36065
     Eigenvalues ---    0.39731   0.43623   0.46126   0.46635   0.46908
     Eigenvalues ---    0.48393   0.49775   0.60090   0.61549   0.66437
     Eigenvalues ---    0.68111
 RFO step:  Lambda=-3.47604300D-04 EMin= 2.29799917D-03
 Quartic linear search produced a step of  0.51009.
 Iteration  1 RMS(Cart)=  0.02254239 RMS(Int)=  0.00062089
 Iteration  2 RMS(Cart)=  0.00062023 RMS(Int)=  0.00001892
 Iteration  3 RMS(Cart)=  0.00000057 RMS(Int)=  0.00001891
 Variable       Old X    -DE/DX   Delta X   Delta X   Delta X     New X
                                 (Linear)    (Quad)   (Total)
    R1        2.91751   0.00321   0.00802   0.00288   0.01090   2.92841
    R2        1.93694  -0.00080   0.00569  -0.00260   0.00309   1.94003
    R3        3.41789  -0.00130  -0.00162  -0.00757  -0.00919   3.40870
    R4        3.39466   0.00045  -0.00748   0.00140  -0.00609   3.38858
    R5        2.91484   0.00324   0.00599   0.00380   0.00979   2.92463
    R6        2.63006  -0.00129  -0.00026  -0.00107  -0.00133   2.62873
    R7        2.63477  -0.00131   0.00088  -0.00244  -0.00156   2.63322
    R8        2.63017  -0.00085   0.00067  -0.00154  -0.00087   2.62930
    R9        2.06718  -0.00146   0.00113  -0.00303  -0.00190   2.06528
   R10        3.55093   0.00056  -0.00147   0.00136  -0.00012   3.55081
   R11        2.64760  -0.00093   0.00204  -0.00199   0.00006   2.64765
   R12        2.51108  -0.00189  -0.00014  -0.00172  -0.00186   2.50923
   R13        2.07382  -0.00147   0.00154  -0.00314  -0.00161   2.07221
   R14        2.51509  -0.00096   0.00082  -0.00070   0.00012   2.51521
   R15        2.07579  -0.00166   0.00152  -0.00354  -0.00203   2.07376
   R16        2.07955  -0.00149   0.00227  -0.00369  -0.00142   2.07813
   R17        2.07688  -0.00158   0.00173  -0.00396  -0.00223   2.07465
   R18        2.07677  -0.00150   0.00168  -0.00319  -0.00151   2.07526
   R19        1.93243  -0.00075   0.00485  -0.00218   0.00268   1.93510
[...]
                 (A) (A) (A) (A) (A) (A)
 The electronic state is 1-A.
 Alpha  occ. eigenvalues -- -483.27846 -89.18740 -62.67824 -56.45192 -56.44844
 Alpha  occ. eigenvalues --  -56.44831 -14.40966 -14.35945 -14.35911 -10.31080
 Alpha  occ. eigenvalues --  -10.29073 -10.28758 -10.28104 -10.27637 -10.26462
 Alpha  occ. eigenvalues --   -8.79733  -8.14329  -6.60842  -6.59726  -6.59684
 Alpha  occ. eigenvalues --   -6.07966  -6.07836  -6.07764  -2.69416  -2.69087
 Alpha  occ. eigenvalues --   -2.69055  -2.68141  -2.68141  -1.01952  -1.00049
 Alpha  occ. eigenvalues --   -0.88480  -0.87348  -0.84168  -0.78632  -0.77832
 Alpha  occ. eigenvalues --   -0.69794  -0.67060  -0.62239  -0.56526  -0.55084
 Alpha  occ. eigenvalues --   -0.53077  -0.49659  -0.48397  -0.46302  -0.45336
 Alpha  occ. eigenvalues --   -0.44872  -0.44357  -0.43897  -0.41086  -0.37094
 Alpha  occ. eigenvalues --   -0.36514  -0.32780  -0.32455  -0.30744  -0.29403
 Alpha  occ. eigenvalues --   -0.28421  -0.27812  -0.26041
 Alpha virt. eigenvalues --   -0.06192  -0.04960  -0.00717   0.03193   0.05652
 Alpha virt. eigenvalues --    0.06275   0.07041   0.07540   0.07942   0.08225
 Alpha virt. eigenvalues --    0.09378   0.10240   0.10835   0.11562   0.12870
 Alpha virt. eigenvalues --    0.13750   0.14396   0.15328   0.18222   0.18823
 Alpha virt. eigenvalues --    0.20071   0.21491   0.21784   0.22532   0.22783
 Alpha virt. eigenvalues --    0.23595   0.24345   0.24613   0.24738   0.26654
 Alpha virt. eigenvalues --    0.27397   0.28870   0.28945   0.30860   0.31039
 Alpha virt. eigenvalues --    0.31891   0.32687   0.33080   0.33836   0.35076
 Alpha virt. eigenvalues --    0.35759   0.37012   0.37807   0.38751   0.39547
 Alpha virt. eigenvalues --    0.40098   0.40577   0.42037   0.42680   0.44353
 Alpha virt. eigenvalues --    0.44802   0.45650   0.46284   0.46344   0.47534
 Alpha virt. eigenvalues --    0.48346   0.49268   0.49829   0.50810   0.52318
 Alpha virt. eigenvalues --    0.52655   0.53802   0.55449   0.56516   0.57999
 Alpha virt. eigenvalues --    0.58759   0.58968   0.59409   0.62284   0.63214
 Alpha virt. eigenvalues --    0.64232   0.65727   0.66778   0.66917   0.68523
 Alpha virt. eigenvalues --    0.70217   0.71071   0.71531   0.73963   0.75773
 Alpha virt. eigenvalues --    0.76444   0.76528   0.77133   0.79032   0.79670
 Alpha virt. eigenvalues --    0.81317   0.82660   0.84283   0.85591   0.88641
 Alpha virt. eigenvalues --    0.91209   0.92011   0.93559   0.94473   0.96510
 Alpha virt. eigenvalues --    0.98620   1.01500   1.03912   1.04719   1.07303
 Alpha virt. eigenvalues --    1.08121   1.08568   1.10339   1.12457   1.12942
 Alpha virt. eigenvalues --    1.15241   1.17244   1.18191   1.19394   1.21170
 Alpha virt. eigenvalues --    1.22204   1.24084   1.25841   1.27922   1.30441
 Alpha virt. eigenvalues --    1.31836   1.33337   1.35209   1.35727   1.36169
 Alpha virt. eigenvalues --    1.37636   1.39804   1.41245   1.41828   1.43164
 Alpha virt. eigenvalues --    1.45072   1.46642   1.47554   1.48614   1.49731
 Alpha virt. eigenvalues --    1.50465   1.52075   1.52156   1.52432   1.53244
 Alpha virt. eigenvalues --    1.53918   1.54899   1.56378   1.57356   1.58215
 Alpha virt. eigenvalues --    1.60255   1.61262   1.62097   1.63107   1.63754
 Alpha virt. eigenvalues --    1.64740   1.66167   1.67707   1.67835   1.69253
 Alpha virt. eigenvalues --    1.70008   1.71484   1.71833   1.72242   1.74840
 Alpha virt. eigenvalues --    1.75697   1.77774   1.79852   1.82085   1.82920
 Alpha virt. eigenvalues --    1.84560   1.86276   1.88250   1.90945   1.92245
 Alpha virt. eigenvalues --    1.93436   1.93544   1.95282   1.97470   1.99181
 Alpha virt. eigenvalues --    2.00124   2.00293   2.00912   2.02883   2.04703
 Alpha virt. eigenvalues --    2.05641   2.07053   2.09946   2.10727   2.11325
 Alpha virt. eigenvalues --    2.15052   2.15181   2.16001   2.17736   2.20504
 Alpha virt. eigenvalues --    2.22343   2.23312   2.27059   2.28206   2.29801
 Alpha virt. eigenvalues --    2.32032   2.34406   2.35928   2.39818   2.39920
 Alpha virt. eigenvalues --    2.41006   2.44231   2.45263   2.47111   2.49696
 Alpha virt. eigenvalues --    2.51890   2.52959   2.54432   2.55236   2.57176
 Alpha virt. eigenvalues --    2.60387   2.61486   2.64061   2.64284   2.65877
 Alpha virt. eigenvalues --    2.66376   2.67538   2.71616   2.72177   2.73628
 Alpha virt. eigenvalues --    2.74510   2.76606   2.76902   2.78245   2.80022
 Alpha virt. eigenvalues --    2.83000   2.83792   2.85222   2.86978   2.90450
 Alpha virt. eigenvalues --    2.92243   2.93119   2.95632   2.97362   2.98906
 Alpha virt. eigenvalues --    3.03405   3.05296   3.06813   3.06876   3.09781
 Alpha virt. eigenvalues --    3.09988   3.10950   3.12367   3.14332   3.15584
 Alpha virt. eigenvalues --    3.16312   3.19425   3.21783   3.23553   3.24635
 Alpha virt. eigenvalues --    3.27339   3.29408   3.29959   3.30413   3.33825
 Alpha virt. eigenvalues --    3.35248   3.35467   3.37779   3.38560   3.40562
 Alpha virt. eigenvalues --    3.41276   3.43641   3.46054   3.46247   3.47723
 Alpha virt. eigenvalues --    3.49853   3.51208   3.53447   3.55666   3.57003
 Alpha virt. eigenvalues --    3.64204   3.68281   3.71064   3.72271   3.74161
 Alpha virt. eigenvalues --    3.77723   3.81243   3.82273   3.84366   3.87128
 Alpha virt. eigenvalues --    3.89044   3.93382   4.01215   4.01631   4.02634
 Alpha virt. eigenvalues --    4.04311   4.06273   4.09008   4.10398   4.11016
 Alpha virt. eigenvalues --    4.13020   4.16019   4.17227   4.17721   4.19452
 Alpha virt. eigenvalues --    4.21267   4.23983   4.27314   4.28235   4.29997
 Alpha virt. eigenvalues --    4.31210   4.31970   4.33506   4.38226   4.39280
 Alpha virt. eigenvalues --    4.39394   4.43063   4.46677   4.48069   4.49619
 Alpha virt. eigenvalues --    4.51084   4.53496   4.59358   4.61210   4.64547
 Alpha virt. eigenvalues --    4.68009   4.69522   4.73327   4.74348   4.77915
 Alpha virt. eigenvalues --    4.85609   4.88674   4.91541   4.91548   4.95325
 Alpha virt. eigenvalues --    4.98050   5.04110   5.06216   5.08057   5.09238
 Alpha virt. eigenvalues --    5.14800   5.15310   5.17410   5.22234   5.23432
 Alpha virt. eigenvalues --    5.24243   5.26208   5.29362   5.40053   5.54181
 Alpha virt. eigenvalues --    5.58286   5.58918   5.63728   5.76679   5.99562
 Alpha virt. eigenvalues --    7.79172   9.43473   9.50173   9.63505  21.67302
 Alpha virt. eigenvalues --   22.30784  22.40917  22.74021  22.81148  22.86605
 Alpha virt. eigenvalues --   23.06749  31.88616  31.89777  32.48456
          Condensed to atoms (all electrons):
               1          2          3          4          5          6
     1  N    6.898776   0.532511  -0.071894   0.012540  -0.000561   0.000006
     2  S    0.532511  14.117060   0.224615  -0.013980   0.009029  -0.000147
     3  C   -0.071894   0.224615   5.325475   0.271516   0.013027   0.012838
     4  C    0.012540  -0.013980   0.271516   5.487852   0.337528  -0.087213
     5  C   -0.000561   0.009029   0.013027   0.337528   4.863441   0.328868
     6  Br   0.000006  -0.000147   0.012838  -0.087213   0.328868  34.844472
     7  C    0.000074   0.000903  -0.036669  -0.003737   0.451680  -0.052347
     8  N   -0.000422   0.004766  -0.023569  -0.111779  -0.006577   0.008105
     9  C   -0.001383  -0.034336   0.442666  -0.062478  -0.033284   0.000939
    10  C   -0.085582   0.290295  -0.085923   0.017273  -0.001642   0.000046
    11  N   -0.075663   0.501858  -0.131361   0.023228   0.000008  -0.000015
    12  H    0.312663  -0.022910  -0.002085   0.002397  -0.000089   0.000001
    13  H    0.000742  -0.003309  -0.050457   0.450486  -0.067815  -0.004389
    14  H    0.000000   0.000074   0.001719   0.001225  -0.071864   0.001953
    15  H    0.015328   0.001139  -0.069416  -0.003815   0.001925   0.000069
    16  H    0.004723  -0.013635   0.007419  -0.000847   0.000069  -0.000001
    17  H    0.005601  -0.021619   0.007973  -0.006737   0.000260  -0.000019
    18  H    0.002321  -0.012142   0.008153   0.000999   0.000093   0.000001
    19  H   -0.000764  -0.017925   0.017765  -0.003880   0.000114  -0.000008
               7          8          9         10         11         12
     1  N    0.000074  -0.000422  -0.001383  -0.085582  -0.075663   0.312663
     2  S    0.000903   0.004766  -0.034336   0.290295   0.501858  -0.022910
     3  C   -0.036669  -0.023569   0.442666  -0.085923  -0.131361  -0.002085
     4  C   -0.003737  -0.111779  -0.062478   0.017273   0.023228   0.002397
     5  C    0.451680  -0.006577  -0.033284  -0.001642   0.000008  -0.000089
     6  Br  -0.052347   0.008105   0.000939   0.000046  -0.000015   0.000001
     7  C    4.882383   0.508768  -0.103554   0.000622   0.000215   0.000060
     8  N    0.508768   6.343644   0.511650  -0.000725  -0.000419  -0.000089
     9  C   -0.103554   0.511650   4.950820  -0.001203   0.013828  -0.003560
    10  C    0.000622  -0.000725  -0.001203   5.146137  -0.053126   0.013261
    11  N    0.000215  -0.000419   0.013828  -0.053126   6.928812  -0.002683
    12  H    0.000060  -0.000089  -0.003560   0.013261  -0.002683   0.485808
    13  H    0.007172  -0.002480   0.004321   0.001661   0.020862   0.000041
    14  H    0.435409  -0.031630   0.001516   0.000001  -0.000003   0.000000
    15  H    0.001755  -0.024928   0.432576  -0.001821   0.001515  -0.001975
    16  H   -0.000014   0.000019   0.000115   0.373497   0.000790  -0.000625
    17  H   -0.000043   0.000001   0.002812   0.375406   0.003260  -0.000573
    18  H   -0.000004   0.000196  -0.006980   0.362347   0.004735  -0.000776
    19  H   -0.000005   0.000029  -0.000544  -0.009146   0.313430  -0.000278
              13         14         15         16         17         18
     1  N    0.000742   0.000000   0.015328   0.004723   0.005601   0.002321
     2  S   -0.003309   0.000074   0.001139  -0.013635  -0.021619  -0.012142
     3  C   -0.050457   0.001719  -0.069416   0.007419   0.007973   0.008153
     4  C    0.450486   0.001225  -0.003815  -0.000847  -0.006737   0.000999
     5  C   -0.067815  -0.071864   0.001925   0.000069   0.000260   0.000093
     6  Br  -0.004389   0.001953   0.000069  -0.000001  -0.000019   0.000001
     7  C    0.007172   0.435409   0.001755  -0.000014  -0.000043  -0.000004
     8  N   -0.002480  -0.031630  -0.024928   0.000019   0.000001   0.000196
     9  C    0.004321   0.001516   0.432576   0.000115   0.002812  -0.006980
    10  C    0.001661   0.000001  -0.001821   0.373497   0.375406   0.362347
    11  N    0.020862  -0.000003   0.001515   0.000790   0.003260   0.004735
    12  H    0.000041   0.000000  -0.001975  -0.000625  -0.000573  -0.000776
    13  H    0.458391  -0.000126  -0.000315  -0.000099   0.000189  -0.000139
    14  H   -0.000126   0.513799  -0.000202   0.000000  -0.000001   0.000000
    15  H   -0.000315  -0.000202   0.479511  -0.000071   0.000236  -0.000150
    16  H   -0.000099   0.000000  -0.000071   0.496215  -0.013986  -0.010220
    17  H    0.000189  -0.000001   0.000236  -0.013986   0.509042  -0.016933
    18  H   -0.000139   0.000000  -0.000150  -0.010220  -0.016933   0.509179
    19  H   -0.001324   0.000000  -0.000037   0.001961   0.000040   0.000174
              19
     1  N   -0.000764
     2  S   -0.017925
     3  C    0.017765
     4  C   -0.003880
     5  C    0.000114
     6  Br  -0.000008
     7  C   -0.000005
     8  N    0.000029
     9  C   -0.000544
    10  C   -0.009146
    11  N    0.313430
    12  H   -0.000278
    13  H   -0.001324
    14  H    0.000000
    15  H   -0.000037
    16  H    0.001961
    17  H    0.000040
    18  H    0.000174
    19  H    0.481322
 Mulliken charges:
               1
     1  N   -0.549014
     2  S    0.457750
     3  C    0.138209
     4  C   -0.310578
     5  C    0.175789
     6  Br  -0.053159
     7  C   -0.092667
     8  N   -0.174563
     9  C   -0.113920
    10  C   -0.341380
    11  N   -0.549271
    12  H    0.221412
    13  H    0.186587
    14  H    0.148127
    15  H    0.168675
    16  H    0.154689
    17  H    0.155092
    18  H    0.159145
    19  H    0.219075
 Sum of Mulliken charges =  -0.00000
 Mulliken charges with hydrogens summed into heavy atoms:
               1
     1  N   -0.327603
     2  S    0.457750
     3  C    0.138209
     4  C   -0.123991
     5  C    0.175789
     6  Br  -0.053159
     7  C    0.055461
     8  N   -0.174563
     9  C    0.054756
    10  C    0.127546
    11  N   -0.330195
 Electronic spatial extent (au):  <R**2>=           3378.0650
 Charge=              0.0000 electrons
 Dipole moment (field-independent basis, Debye):
    X=             -0.3297    Y=             -0.7905    Z=              1.6030  Tot=              1.8174
 Quadrupole moment (field-independent basis, Debye-Ang):
   XX=            -84.6150   YY=            -89.5604   ZZ=            -81.2777
   XY=              4.5755   XZ=             -4.3457   YZ=             -1.2967
 Traceless Quadrupole moment (field-independent basis, Debye-Ang):
   XX=              0.5360   YY=             -4.4094   ZZ=              3.8733
   XY=              4.5755   XZ=             -4.3457   YZ=             -1.2967
 Octapole moment (field-independent basis, Debye-Ang**2):
  XXX=            110.7997  YYY=            -38.6967  ZZZ=             -1.3735  XYY=             26.4939
  XXY=            -27.7748  XXZ=             14.3837  XZZ=             10.6729  YZZ=             -5.8594
  YYZ=              2.0667  XYZ=              0.9105
 Hexadecapole moment (field-independent basis, Debye-Ang**3):
 XXXX=          -3055.1966 YYYY=           -816.7771 ZZZZ=           -251.4535 XXXY=             63.1690
 XXXZ=            -52.9191 YYYX=            -32.4455 YYYZ=              4.3942 ZZZX=             15.9061
 ZZZY=             -8.1830 XXYY=           -559.0023 XXZZ=           -489.7175 YYZZ=           -172.9986
 XXYZ=              3.4796 YYXZ=              2.2381 ZZXY=            -19.1597
 N-N= 9.745822619402D+02 E-N=-9.970988778837D+03  KE= 3.363284153368D+03
 Breneman (CHELPG) radii used.
 Read replacement radii for each type of atom:
 Rad(35) =   1.850000000000D+00
 Atom Element Radius
    1     7    1.70
    2    16    2.00
    3     6    1.50
    4     6    1.50
    5     6    1.50
    6    35    1.85
    7     6    1.50
    8     7    1.70
    9     6    1.50
   10     6    1.50
   11     7    1.70
   12     1    1.45
   13     1    1.45
   14     1    1.45
   15     1    1.45
   16     1    1.45
   17     1    1.45
   18     1    1.45
   19     1    1.45
 Generate Potential Derived Charges using the Breneman model, NDens= 1.
 Grid spacing= 0.300 Box extension= 2.800
 NStep X,Y,Z=   44     36     34   Total possible points=       53856
 Number of Points to Fit=   13257

 **********************************************************************

            Electrostatic Properties Using The SCF Density.

 **********************************************************************

       Atomic Center    1 is at  -3.654689  0.432889 -0.807012
       Atomic Center    2 is at  -2.573631 -0.450951 -0.138247
       Atomic Center    3 is at  -0.956772  0.342260 -0.066654
       Atomic Center    4 is at   0.220485 -0.398140 -0.043380
       Atomic Center    5 is at   1.410775  0.320411 -0.007514
       Atomic Center    6 is at   3.067812 -0.567671  0.022302
       Atomic Center    7 is at   1.370694  1.720116  0.003342
       Atomic Center    8 is at   0.235643  2.406596 -0.033947
       Atomic Center    9 is at  -0.911487  1.734554 -0.075510
       Atomic Center   10 is at  -3.080091 -0.341983  1.582408
       Atomic Center   11 is at  -2.163257 -1.876697 -0.577419
       Atomic Center   12 is at  -3.499826  0.401135 -1.819409
       Atomic Center   13 is at   0.176784 -1.488556 -0.072147
       Atomic Center   14 is at   2.304540  2.291564  0.037841
       Atomic Center   15 is at  -1.842881  2.309381 -0.134939
       Atomic Center   16 is at  -4.064918 -0.825618  1.632135
       Atomic Center   17 is at  -2.340300 -0.885683  2.182410
       Atomic Center   18 is at  -3.160980  0.709413  1.883556
       Atomic Center   19 is at  -3.013227 -2.430756 -0.705551
   13257 points will be used for fitting atomic charges
 Fitting point charges to electrostatic potential
 Charges from ESP fit, RMS=   0.00424 RRMS=   0.30078:
 ESP charges:
               1
     1  N   -0.748994
     2  S    0.701951
     3  C   -0.192965
     4  C    0.190439
     5  C   -0.210260
     6  Br  -0.046064
     7  C    0.425147
     8  N   -0.577759
     9  C    0.323471
    10  C   -0.255345
    11  N   -0.765598
    12  H    0.320688
    13  H    0.080046
    14  H    0.008571
    15  H    0.067711
    16  H    0.142239
    17  H    0.085856
    18  H    0.109781
    19  H    0.341084
 Sum of ESP charges =   0.00000
 ESP charges with hydrogens summed into heavy atoms:
               1
     1  N   -0.428306
     2  S    0.701951
     3  C   -0.192965
     4  C    0.270485
     5  C   -0.210260
     6  Br  -0.046064
     7  C    0.433718
     8  N   -0.577759
     9  C    0.391182
    10  C    0.082532
    11  N   -0.424514
 Charge=   0.00000 Dipole=    -0.2558    -0.7540     1.6080 Tot=     1.7944
 -----------------------------------------------------------------

              Electrostatic Properties (Atomic Units)

 -----------------------------------------------------------------
    Center     Electric         -------- Electric Field --------
               Potential          X             Y             Z
 -----------------------------------------------------------------
    1 Atom    -18.414377
    2 Atom    -59.060586
    3 Atom    -14.712323
    4 Atom    -14.717329
    5 Atom    -14.680751
    6 Atom   -175.786644
    7 Atom    -14.702222
    8 Atom    -18.361661
    9 Atom    -14.705071
   10 Atom    -14.724969
   11 Atom    -18.413140
   12 Atom     -1.040422
   13 Atom     -1.065336
   14 Atom     -1.076615
   15 Atom     -1.078885
   16 Atom     -1.064287
   17 Atom     -1.067264
   18 Atom     -1.066399
   19 Atom     -1.036578
 -----------------------------------------------------------------
 Unable to Open any file for archive entry.
 1\1\GINC-NOTCH127\SP\RPBE1PBE\def2TZVP\C6H8Br1N3S1\U1414944\24-Feb-202
 5\0\\#N Guess=Read Geom=Check Integral(Ultrafine) Density Pop=(ChelpG,
 ReadRadii) NMR pbe1pbe EmpiricalDispersion=GD3BJ def2TZVP\\SDI2979_2\\
 0,1\N,0,-3.8445028017,-0.3657690373,0.8465598813\S,0,-2.7503675246,0.4
 750329883,0.1444014827\C,0,-1.1539287496,-0.3586684955,0.0746394033\C,
 0,0.0403950137,0.3521733635,0.0202158555\C,0,1.2126195918,-0.395695571
 7,-0.0109918488\Br,0,2.8900187529,0.4509455711,-0.0808567707\C,0,1.138
 866024,-1.7938661483,0.013082701\N,0,-0.0118126487,-2.4515021361,0.079
 7246243\C,0,-1.141941487,-1.7510215944,0.1172992529\C,0,-3.2791548647,
 0.3364866498,-1.5673863969\N,0,-2.3008750079,1.9006840462,0.543783487\
 H,0,-3.6772281875,-0.3131208883,1.8561069084\H,0,0.0231885913,1.443705
 9245,0.0225854718\H,0,2.0582794225,-2.3884661427,-0.0175697489\H,0,-2.
 0861008807,-2.3014711029,0.2010878287\H,0,-4.2526111891,0.8425100397,-
 1.6182071072\H,0,-2.53352679,0.8473024252,-2.188682244\H,0,-3.38870751
 96,-0.7196636958,-1.8416333644\H,0,-3.1357772632,2.4781530332,0.667542
 184\\Version=ES64L-G16RevC.01\State=1-A\HF=-3369.2360859\RMSD=5.717e-0
 9\Dipole=-0.1294907,0.298585,-0.6366749\Quadrupole=0.3078103,-3.158298
 1,2.8504878,-3.4179005,3.3208578,-0.8555487\PG=C01 [X(C6H8Br1N3S1)]\\@
 The archive entry for this job was punched.


 SIC AS THE CAWSE OF EWERY THING IS, SIC WILBE THE EFFECT.
 -- PROVERBS AND REASONS OF THE YEAR 1585
           AS REPRINTED IN PAISLEY MAGAZINE 1828.
 Job cpu time:       0 days  0 hours 24 minutes 16.4 seconds.
 Elapsed time:       0 days  0 hours  1 minutes 38.2 seconds.
 File lengths (MBytes):  RWF=    113 Int=      0 D2E=      0 Chk=     17 Scr=      2
 Normal termination of Gaussian 16 at Mon Feb 24 19:57:50 2025.
