 Entering Gaussian System, Link 0=g16
 Input=SDI2979_3.com
 Output=SDI2979_3.log
 Initial command:
 /uufs/chpc.utah.edu/sys/installdir/gaussian16/C01/AVX/g16/l1.exe "/scratch/general/vast/u1414944/3351107-notchpeak.peaks/Gau-1358333.inp" -scrdir="/scratch/general/vast/u1414944/3351107-notchpeak.peaks/"
 Entering Link 1 = /uufs/chpc.utah.edu/sys/installdir/gaussian16/C01/AVX/g16/l1.exe PID=   1358334.
  
 Copyright (c) 1988-2019, Gaussian, Inc.  All Rights Reserved.
  
 This is part of the Gaussian(R) 16 program.  It is based on
 the Gaussian(R) 09 system (copyright 2009, Gaussian, Inc.),
 the Gaussian(R) 03 system (copyright 2003, Gaussian, Inc.),
 the Gaussian(R) 98 system (copyright 1998, Gaussian, Inc.),
 the Gaussian(R) 94 system (copyright 1995, Gaussian, Inc.),
 the Gaussian 92(TM) system (copyright 1992, Gaussian, Inc.),
 the Gaussian 90(TM) system (copyright 1990, Gaussian, Inc.),
 the Gaussian 88(TM) system (copyright 1988, Gaussian, Inc.),
 the Gaussian 86(TM) system (copyright 1986, Carnegie Mellon
 University), and the Gaussian 82(TM) system (copyright 1983,
 Carnegie Mellon University). Gaussian is a federally registered
 trademark of Gaussian, Inc.
  
 This software contains proprietary and confidential information,
 including trade secrets, belonging to Gaussian, Inc.
  
 This software is provided under written license and may be
 used, copied, transmitted, or stored only in accord with that
 written license.
  
 The following legend is applicable only to US Government
 contracts under FAR:
  
                    RESTRICTED RIGHTS LEGEND
  
 Use, reproduction and disclosure by the US Government is
 subject to restrictions as set forth in subparagraphs (a)
 and (c) of the Commercial Computer Software - Restricted
 Rights clause in FAR 52.227-19.
  
 Gaussian, Inc.
 340 Quinnipiac St., Bldg. 40, Wallingford CT 06492
  
  
 ---------------------------------------------------------------
 Warning -- This program may not be used in any manner that
 competes with the business of Gaussian, Inc. or will provide
 assistance to any competitor of Gaussian, Inc.  The licensee
 of this program is prohibited from giving any competitor of
 Gaussian, Inc. access to this program.  By using this program,
 the user acknowledges that Gaussian, Inc. is engaged in the
 business of creating and licensing software in the field of
 computational chemistry and represents and warrants to the
 licensee that it is not a competitor of Gaussian, Inc. and that
 it will not use this program in any manner prohibited above.
 ---------------------------------------------------------------
  

 Cite this work as:
 Gaussian 16, Revision C.01,
 M. J. Frisch, G. W. Trucks, H. B. Schlegel, G. E. Scuseria, 
 M. A. Robb, J. R. Cheeseman, G. Scalmani, V. Barone, 
 G. A. Petersson, H. Nakatsuji, X. Li, M. Caricato, A. V. Marenich, 
 J. Bloino, B. G. Janesko, R. Gomperts, B. Mennucci, H. P. Hratchian, 
 J. V. Ortiz, A. F. Izmaylov, J. L. Sonnenberg, D. Williams-Young, 
 F. Ding, F. Lipparini, F. Egidi, J. Goings, B. Peng, A. Petrone, 
 T. Henderson, D. Ranasinghe, V. G. Zakrzewski, J. Gao, N. Rega, 
 G. Zheng, W. Liang, M. Hada, M. Ehara, K. Toyota, R. Fukuda, 
 J. Hasegawa, M. Ishida, T. Nakajima, Y. Honda, O. Kitao, H. Nakai, 
 T. Vreven, K. Throssell, J. A. Montgomery, Jr., J. E. Peralta, 
 F. Ogliaro, M. J. Bearpark, J. J. Heyd, E. N. Brothers, K. N. Kudin, 
 V. N. Staroverov, T. A. Keith, R. Kobayashi, J. Normand, 
 K. Raghavachari, A. P. Rendell, J. C. Burant, S. S. Iyengar, 
 J. Tomasi, M. Cossi, J. M. Millam, M. Klene, C. Adamo, R. Cammi, 
 J. W. Ochterski, R. L. Martin, K. Morokuma, O. Farkas, 
 J. B. Foresman, and D. J. Fox, Gaussian, Inc., Wallingford CT, 2019.
 
 ******************************************
 Gaussian 16:  ES64L-G16RevC.01  3-Jul-2019
                24-Feb-2025 
 ******************************************
 %NProcShared=16
 Will use up to   16 processors via shared memory.
 %Mem=40GB
 %chk=SDI2979_3.chk
 ----------------------------------------------------------------------
 #N OPT FREQ=NORAMAN Integral(Ultrafine) pbe1pbe EmpiricalDispersion=GD
 3BJ def2SVP
 ----------------------------------------------------------------------
 1/18=20,19=15,26=4,38=1/1,3;
 2/9=110,12=2,17=6,18=5,40=1/2;
 3/5=43,7=101,11=2,25=1,30=1,71=1,74=-13,75=-5,124=41/1,2,3;
 4//1;
 5/5=2,38=5/2;
 6/7=2,8=2,9=2,10=2,28=1/1;
 7//1,2,3,16;
 1/18=20,19=15,26=4/3(2);
 2/9=110/2;
 99//99;
 2/9=110/2;
 3/5=43,7=101,11=2,25=1,30=1,71=1,74=-13,75=-5,124=41/1,2,3;
 4/5=5,16=3,69=1/1;
 5/5=2,38=5/2;
 7//1,2,3,16;
 1/18=20,19=15,26=4/3(-5);
 2/9=110/2;
 6/7=2,8=2,9=2,10=2,19=2,28=1/1;
 99/9=1/99;
 ---------
 SDI2979_3
 ---------
 Symbolic Z-matrix:
 Charge =  0 Multiplicity = 1
 N                    -2.63857   1.8485   -0.68479 
 S                    -2.76347   0.42842  -0.11788 
 C                    -1.17276  -0.44351  -0.07008 
 C                    -0.00929   0.30312  -0.03961 
 C                     1.19254  -0.38639  -0.01256 
 Br                    2.84073   0.55203   0.0354 
 C                     1.17684  -1.77703  -0.02153 
 N                     0.0564   -2.47034  -0.06198 
 C                    -1.09743  -1.82626  -0.08914 
 C                    -2.93197   0.76403   1.67125 
 N                    -3.69375  -0.6714   -0.64384 
 H                    -2.7809    1.91754  -1.67879 
 H                    -0.06074   1.38245  -0.05025 
 H                     2.0954   -2.34727  -0.00036 
 H                    -1.99896  -2.41775  -0.1381 
 H                    -2.86841  -0.17628   2.20586 
 H                    -2.13574   1.4406    1.95254 
 H                    -3.89385   1.23555   1.83371 
 H                    -4.57637  -0.34168  -0.9961 
 

 GradGradGradGradGradGradGradGradGradGradGradGradGradGradGradGradGradGrad
 Berny optimization.
 Initialization pass.
                           ----------------------------
                           !    Initial Parameters    !
                           ! (Angstroms and Degrees)  !
 --------------------------                            --------------------------
 ! Name  Definition              Value          Derivative Info.                !
 --------------------------------------------------------------------------------
 ! R1    R(1,2)                  1.5342         estimate D2E/DX2                !
 ! R2    R(1,12)                 1.0065         estimate D2E/DX2                !
 ! R3    R(2,3)                  1.8146         estimate D2E/DX2                !
 ! R4    R(2,10)                 1.8281         estimate D2E/DX2                !
 ! R5    R(2,11)                 1.5335         estimate D2E/DX2                !
 ! R6    R(3,4)                  1.3828         estimate D2E/DX2                !
 ! R7    R(3,9)                  1.3849         estimate D2E/DX2                !
 ! R8    R(4,5)                  1.3858         estimate D2E/DX2                !
 ! R9    R(4,13)                 1.0806         estimate D2E/DX2                !
 ! R10   R(5,6)                  1.8972         estimate D2E/DX2                !
 ! R11   R(5,7)                  1.3908         estimate D2E/DX2                !
 ! R12   R(7,8)                  1.3182         estimate D2E/DX2                !
 ! R13   R(7,14)                 1.0814         estimate D2E/DX2                !
 ! R14   R(8,9)                  1.3217         estimate D2E/DX2                !
 ! R15   R(9,15)                 1.0794         estimate D2E/DX2                !
 ! R16   R(10,16)                1.0835         estimate D2E/DX2                !
 ! R17   R(10,17)                1.0821         estimate D2E/DX2                !
 ! R18   R(10,18)                1.0835         estimate D2E/DX2                !
 ! R19   R(11,19)                1.0059         estimate D2E/DX2                !
 ! A1    A(2,1,12)             114.6397         estimate D2E/DX2                !
 ! A2    A(1,2,3)              112.5279         estimate D2E/DX2                !
 ! A3    A(1,2,10)             101.491          estimate D2E/DX2                !
 ! A4    A(1,2,11)             125.9103         estimate D2E/DX2                !
 ! A5    A(3,2,10)              98.2345         estimate D2E/DX2                !
 ! A6    A(3,2,11)             101.315          estimate D2E/DX2                !
 ! A7    A(10,2,11)            114.2937         estimate D2E/DX2                !
 ! A8    A(2,3,4)              118.6012         estimate D2E/DX2                !
 ! A9    A(2,3,9)              121.807          estimate D2E/DX2                !
 ! A10   A(4,3,9)              119.5801         estimate D2E/DX2                !
 ! A11   A(3,4,5)              117.4821         estimate D2E/DX2                !
 ! A12   A(3,4,13)             119.9367         estimate D2E/DX2                !
 ! A13   A(5,4,13)             122.5764         estimate D2E/DX2                !
 ! A14   A(4,5,6)              120.5166         estimate D2E/DX2                !
 ! A15   A(4,5,7)              119.1813         estimate D2E/DX2                !
 ! A16   A(6,5,7)              120.3021         estimate D2E/DX2                !
 ! A17   A(5,7,8)              122.3911         estimate D2E/DX2                !
 ! A18   A(5,7,14)             121.1691         estimate D2E/DX2                !
 ! A19   A(8,7,14)             116.4391         estimate D2E/DX2                !
 ! A20   A(7,8,9)              119.0999         estimate D2E/DX2                !
 ! A21   A(3,9,8)              122.2594         estimate D2E/DX2                !
 ! A22   A(3,9,15)             120.1544         estimate D2E/DX2                !
 ! A23   A(8,9,15)             117.5831         estimate D2E/DX2                !
 ! A24   A(2,10,16)            108.5515         estimate D2E/DX2                !
 ! A25   A(2,10,17)            107.5405         estimate D2E/DX2                !
 ! A26   A(2,10,18)            107.967          estimate D2E/DX2                !
 ! A27   A(16,10,17)           111.7887         estimate D2E/DX2                !
 ! A28   A(16,10,18)           110.8401         estimate D2E/DX2                !
 ! A29   A(17,10,18)           110.009          estimate D2E/DX2                !
 ! A30   A(2,11,19)            114.6653         estimate D2E/DX2                !
 ! D1    D(12,1,2,3)            91.5841         estimate D2E/DX2                !
 ! D2    D(12,1,2,10)         -164.3788         estimate D2E/DX2                !
 ! D3    D(12,1,2,11)          -32.6534         estimate D2E/DX2                !
 ! D4    D(1,2,3,4)             23.5238         estimate D2E/DX2                !
 ! D5    D(1,2,3,9)           -155.2265         estimate D2E/DX2                !
 ! D6    D(10,2,3,4)           -82.6138         estimate D2E/DX2                !
 ! D7    D(10,2,3,9)            98.6358         estimate D2E/DX2                !
 ! D8    D(11,2,3,4)           160.4565         estimate D2E/DX2                !
 ! D9    D(11,2,3,9)           -18.2939         estimate D2E/DX2                !
 ! D10   D(1,2,10,16)         -170.9468         estimate D2E/DX2                !
 ! D11   D(1,2,10,17)          -49.836          estimate D2E/DX2                !
 ! D12   D(1,2,10,18)           68.8329         estimate D2E/DX2                !
 ! D13   D(3,2,10,16)          -55.8302         estimate D2E/DX2                !
 ! D14   D(3,2,10,17)           65.2807         estimate D2E/DX2                !
 ! D15   D(3,2,10,18)         -176.0504         estimate D2E/DX2                !
 ! D16   D(11,2,10,16)          50.5991         estimate D2E/DX2                !
 ! D17   D(11,2,10,17)         171.7099         estimate D2E/DX2                !
 ! D18   D(11,2,10,18)         -69.6212         estimate D2E/DX2                !
 ! D19   D(1,2,11,19)          -34.5615         estimate D2E/DX2                !
 ! D20   D(3,2,11,19)         -163.4139         estimate D2E/DX2                !
 ! D21   D(10,2,11,19)          92.0747         estimate D2E/DX2                !
 ! D22   D(2,3,4,5)           -179.5732         estimate D2E/DX2                !
 ! D23   D(2,3,4,13)            -0.3474         estimate D2E/DX2                !
 ! D24   D(9,3,4,5)             -0.7943         estimate D2E/DX2                !
 ! D25   D(9,3,4,13)           178.4315         estimate D2E/DX2                !
 ! D26   D(2,3,9,8)            179.6251         estimate D2E/DX2                !
 ! D27   D(2,3,9,15)             0.2823         estimate D2E/DX2                !
 ! D28   D(4,3,9,8)              0.8867         estimate D2E/DX2                !
 ! D29   D(4,3,9,15)          -178.4561         estimate D2E/DX2                !
 ! D30   D(3,4,5,6)           -179.8197         estimate D2E/DX2                !
 ! D31   D(3,4,5,7)              0.2068         estimate D2E/DX2                !
 ! D32   D(13,4,5,6)             0.9765         estimate D2E/DX2                !
 ! D33   D(13,4,5,7)          -178.997          estimate D2E/DX2                !
 ! D34   D(4,5,7,8)              0.3598         estimate D2E/DX2                !
 ! D35   D(4,5,7,14)          -179.9532         estimate D2E/DX2                !
 ! D36   D(6,5,7,8)           -179.6138         estimate D2E/DX2                !
 ! D37   D(6,5,7,14)             0.0733         estimate D2E/DX2                !
 ! D38   D(5,7,8,9)             -0.308          estimate D2E/DX2                !
 ! D39   D(14,7,8,9)           179.9911         estimate D2E/DX2                !
 ! D40   D(7,8,9,3)             -0.3199         estimate D2E/DX2                !
 ! D41   D(7,8,9,15)           179.039          estimate D2E/DX2                !
 --------------------------------------------------------------------------------
 Trust Radius=3.00D-01 FncErr=1.00D-07 GrdErr=1.00D-06 EigMax=2.50D+02 EigMin=1.00D-04
 Number of steps in this run=    100 maximum allowed number of steps=    114.
 GradGradGradGradGradGradGradGradGradGradGradGradGradGradGradGradGradGrad

                          Input orientation:                          
 ---------------------------------------------------------------------
 Center     Atomic      Atomic             Coordinates (Angstroms)
 Number     Number       Type             X           Y           Z
 ---------------------------------------------------------------------
      1          7           0       -2.638565    1.848500   -0.684790
      2         16           0       -2.763474    0.428418   -0.117885
      3          6           0       -1.172758   -0.443512   -0.070082
      4          6           0       -0.009293    0.303118   -0.039609
      5          6           0        1.192544   -0.386386   -0.012555
      6         35           0        2.840729    0.552034    0.035396
      7          6           0        1.176841   -1.777030   -0.021531
      8          7           0        0.056396   -2.470343   -0.061975
      9          6           0       -1.097425   -1.826256   -0.089144
     10          6           0       -2.931970    0.764028    1.671245
     11          7           0       -3.693750   -0.671395   -0.643844
     12          1           0       -2.780903    1.917541   -1.678789
     13          1           0       -0.060737    1.382447   -0.050245
     14          1           0        2.095398   -2.347269   -0.000363
     15          1           0       -1.998958   -2.417750   -0.138098
     16          1           0       -2.868409   -0.176280    2.205862
     17          1           0       -2.135740    1.440600    1.952538
     18          1           0       -3.893851    1.235554    1.833713
     19          1           0       -4.576372   -0.341678   -0.996101
 ---------------------------------------------------------------------
                    Distance matrix (angstroms):
                    1          2          3          4          5
     1  N    0.000000
     2  S    1.534150   0.000000
     3  C    2.789225   1.814642   0.000000
     4  C    3.117296   2.758141   1.382764   0.000000
     5  C    4.485980   4.040430   2.366691   1.385843   0.000000
     6  Br   5.676456   5.607661   4.136461   2.861854   1.897220
     7  C    5.304876   4.516566   2.702081   2.394631   1.390762
     8  N    5.128657   4.044454   2.370428   2.774330   2.374058
     9  C    4.029111   2.803587   1.384925   2.391802   2.706113
    10  C    2.610185   1.828117   2.754124   3.417821   4.601114
    11  N    2.732209   1.533504   2.595483   3.858756   4.935142
    12  H    1.006509   2.157362   3.278512   3.602096   4.885970
    13  H    2.695376   2.866973   2.138016   1.080607   2.168157
    14  H    6.362651   5.597042   3.782855   3.384644   2.158785
    15  H    4.348432   2.947129   2.141226   3.372179   3.785220
    16  H    3.536725   2.403428   2.850713   3.666948   4.632155
    17  H    2.715642   2.388558   2.927149   3.127985   4.275154
    18  H    2.879983   2.395403   3.721296   4.412320   5.648966
    19  H    2.940899   2.156597   3.528805   4.710504   5.852329
                    6          7          8          9         10
     6  Br   0.000000
     7  C    2.862919   0.000000
     8  N    4.110567   1.318225   0.000000
     9  C    4.602263   2.275803   1.321700   0.000000
    10  C    6.003748   5.119062   4.732393   3.629614   0.000000
    11  N    6.682631   5.033126   4.199807   2.895219   2.828495
    12  H    6.033720   5.662164   5.469724   4.401941   3.546286
    13  H    3.019176   3.393335   3.854589   3.372241   3.404402
    14  H    2.993786   1.081373   2.043642   3.236272   6.144011
    15  H    5.680870   3.241883   2.057435   1.079363   3.777294
    16  H    6.151066   4.887507   4.354342   3.335544   1.083528
    17  H    5.406498   5.022279   4.915201   3.989851   1.082061
    18  H    7.003978   6.183002   5.738620   4.570783   1.083489
    19  H    7.541623   6.009116   5.183275   3.889680   3.322857
                   11         12         13         14         15
    11  N    0.000000
    12  H    2.933767   0.000000
    13  H    4.215378   3.215243   0.000000
    14  H    6.061093   6.692087   4.308386   0.000000
    15  H    2.485529   4.666896   4.266840   4.097278   0.000000
    16  H    3.007848   4.413870   3.924623   5.849786   3.357720
    17  H    3.691763   3.718903   2.884469   6.005356   4.390482
    18  H    3.132855   3.747189   4.273598   7.216062   4.563473
    19  H    1.005893   2.965441   4.925262   7.037499   3.418963
                   16         17         18         19
    16  H    0.000000
    17  H    1.793119   0.000000
    18  H    1.784181   1.774012   0.000000
    19  H    3.632776   4.222282   3.310791   0.000000
 Stoichiometry    C6H8BrN3S
 Framework group  C1[X(C6H8BrN3S)]
 Deg. of freedom    51
 Full point group                 C1      NOp   1
 Largest Abelian subgroup         C1      NOp   1
 Largest concise Abelian subgroup C1      NOp   1
                         Standard orientation:                         
 ---------------------------------------------------------------------
 Center     Atomic      Atomic             Coordinates (Angstroms)
 Number     Number       Type             X           Y           Z
 ---------------------------------------------------------------------
      1          7           0        2.475022   -1.794440   -0.793879
      2         16           0        2.579870   -0.407215   -0.147172
      3          6           0        0.977669    0.439761   -0.054922
      4          6           0       -0.175897   -0.322528   -0.070249
      5          6           0       -1.386797    0.348584   -0.007861
      6         35           0       -3.022545   -0.612493   -0.018050
      7          6           0       -1.389445    1.737592    0.061896
      8          7           0       -0.278168    2.446657    0.064121
      9          6           0        0.884120    1.820265    0.004042
     10          6           0        2.748714   -0.841333    1.620607
     11          7           0        3.496730    0.732663   -0.607260
     12          1           0        2.620521   -1.805239   -1.789758
     13          1           0       -0.110175   -1.398761   -0.141772
     14          1           0       -2.315501    2.293673    0.112515
     15          1           0        1.777869    2.425306   -0.008650
     16          1           0        2.671520    0.066295    2.207367
     17          1           0        1.960853   -1.543084    1.860770
     18          1           0        3.716368   -1.308696    1.759043
     19          1           0        4.384429    0.434970   -0.974940
 ---------------------------------------------------------------------
 Rotational constants (GHZ):           1.4734041           0.3449229           0.3000951
 Standard basis: def2SVP (5D, 7F)
 There are   229 symmetry adapted cartesian basis functions of A   symmetry.
 There are   216 symmetry adapted basis functions of A   symmetry.
   216 basis functions,   398 primitive gaussians,   229 cartesian basis functions
    58 alpha electrons       58 beta electrons
       nuclear repulsion energy       975.5640320873 Hartrees.
 NAtoms=   19 NActive=   19 NUniq=   19 SFac= 1.00D+00 NAtFMM=   60 NAOKFM=F Big=F
 Integral buffers will be    131072 words long.
 Raffenetti 2 integral format.
 Two-electron integral symmetry is turned on.
 Nuclear repulsion after empirical dispersion term =      975.5409864131 Hartrees.
 One-electron integrals computed using PRISM.
   1 Symmetry operations used in ECPInt.
 ECPInt:  NShTT=    4851 NPrTT=   19510 LenC2=    4626 LenP2D=   13674.
 LDataN:  DoStor=T MaxTD1= 4 Len=   56
 NBasis=   216 RedAO= T EigKep=  6.03D-04  NBF=   216
 NBsUse=   216 1.00D-06 EigRej= -1.00D+00 NBFU=   216
 ExpMin= 1.22D-01 ExpMax= 1.13D+05 ExpMxC= 1.70D+04 IAcc=3 IRadAn=         5 AccDes= 0.00D+00
 Harris functional with IExCor= 1009 and IRadAn=       5 diagonalized for initial guess.
 HarFok:  IExCor= 1009 AccDes= 0.00D+00 IRadAn=         5 IDoV= 1 UseB2=F ITyADJ=14
 ICtDFT=  3500011 ScaDFX=  1.000000  1.000000  1.000000  1.000000
 FoFCou: FMM=F IPFlag=           0 FMFlag=      100000 FMFlg1=           0
         NFxFlg=           0 DoJE=T BraDBF=F KetDBF=T FulRan=T
         wScrn=  0.000000 ICntrl=       500 IOpCl=  0 I1Cent=   200000004 NGrid=           0
         NMat0=    1 NMatS0=      1 NMatT0=    0 NMatD0=    1 NMtDS0=    0 NMtDT0=    0
 Petite list used in FoFCou.
 Requested convergence on RMS density matrix=1.00D-08 within 128 cycles.
 Requested convergence on MAX density matrix=1.00D-06.
 Requested convergence on             energy=1.00D-06.
 No special actions if energy rises.
 Integral accuracy reduced to 1.0D-05 until final iterations.
 Initial convergence to 1.0D-05 achieved.  Increase integral accuracy.
 SCF Done:  E(RPBE1PBE) =  -3368.30633546     A.U. after   14 cycles
            NFock= 14  Conv=0.75D-08     -V/T= 2.0021

 **********************************************************************

            Population analysis using the SCF Density.

 **********************************************************************

 Orbital symmetries:
       Occupied  (A) (A) (A) (A) (A) (A) (A) (A) (A) (A) (A) (A)
                 (A) (A) (A) (A) (A) (A) (A) (A) (A) (A) (A) (A)
                 (A) (A) (A) (A) (A) (A) (A) (A) (A) (A) (A) (A)
                 (A) (A) (A) (A) (A) (A) (A) (A) (A) (A) (A) (A)
                 (A) (A) (A) (A) (A) (A) (A) (A) (A) (A)
       Virtual   (A) (A) (A) (A) (A) (A) (A) (A) (A) (A) (A) (A)
                 (A) (A) (A) (A) (A) (A) (A) (A) (A) (A) (A) (A)
                 (A) (A) (A) (A) (A) (A) (A) (A) (A) (A) (A) (A)
                 (A) (A) (A) (A) (A) (A) (A) (A) (A) (A) (A) (A)
                 (A) (A) (A) (A) (A) (A) (A) (A) (A) (A) (A) (A)
                 (A) (A) (A) (A) (A) (A) (A) (A) (A) (A) (A) (A)
                 (A) (A) (A) (A) (A) (A) (A) (A) (A) (A) (A) (A)
                 (A) (A) (A) (A) (A) (A) (A) (A) (A) (A) (A) (A)
                 (A) (A) (A) (A) (A) (A) (A) (A) (A) (A) (A) (A)
                 (A) (A) (A) (A) (A) (A) (A) (A) (A) (A) (A) (A)
                 (A) (A) (A) (A) (A) (A) (A) (A) (A) (A) (A) (A)
                 (A) (A) (A) (A) (A) (A) (A) (A) (A) (A) (A) (A)
                 (A) (A) (A) (A) (A) (A) (A) (A) (A) (A) (A) (A)
                 (A) (A)
 The electronic state is 1-A.
 Alpha  occ. eigenvalues -- -483.20959 -89.19639 -62.64331 -56.43331 -56.42970
 Alpha  occ. eigenvalues --  -56.42959 -14.40806 -14.35706 -14.35656 -10.31399
 Alpha  occ. eigenvalues --  -10.29448 -10.28832 -10.28433 -10.28056 -10.26733
 Alpha  occ. eigenvalues --   -8.78946  -8.17022  -6.60448  -6.59133  -6.59101
 Alpha  occ. eigenvalues --   -6.11159  -6.11068  -6.11021  -2.68999  -2.68621
 Alpha  occ. eigenvalues --   -2.68597  -2.67540  -2.67540  -1.01974  -0.99546
 Alpha  occ. eigenvalues --   -0.87749  -0.86583  -0.83636  -0.77855  -0.77216
 Alpha  occ. eigenvalues --   -0.69316  -0.66679  -0.62466  -0.56504  -0.55516
 Alpha  occ. eigenvalues --   -0.53367  -0.50327  -0.48538  -0.45914  -0.45295
 Alpha  occ. eigenvalues --   -0.45133  -0.44600  -0.44140  -0.40662  -0.36083
 Alpha  occ. eigenvalues --   -0.35972  -0.32573  -0.31908  -0.29651  -0.28049
 Alpha  occ. eigenvalues --   -0.27321  -0.26773  -0.25501
 Alpha virt. eigenvalues --   -0.05245  -0.04226  -0.00173   0.06245   0.06706
 Alpha virt. eigenvalues --    0.07811   0.08450   0.09793   0.10918   0.11896
 Alpha virt. eigenvalues --    0.12310   0.13229   0.13628   0.16567   0.16868
 Alpha virt. eigenvalues --    0.18844   0.21169   0.24458   0.27351   0.31262
 Alpha virt. eigenvalues --    0.32281   0.32982   0.35712   0.36526   0.40884
 Alpha virt. eigenvalues --    0.41704   0.42573   0.45006   0.45167   0.46074
 Alpha virt. eigenvalues --    0.48207   0.49428   0.51247   0.51512   0.52456
 Alpha virt. eigenvalues --    0.53021   0.53842   0.54905   0.57401   0.58900
 Alpha virt. eigenvalues --    0.60363   0.61086   0.62757   0.63580   0.64504
 Alpha virt. eigenvalues --    0.65703   0.66104   0.66537   0.66955   0.67977
 Alpha virt. eigenvalues --    0.69079   0.69450   0.71294   0.71718   0.72752
 Alpha virt. eigenvalues --    0.74150   0.76356   0.76937   0.77961   0.81082
 Alpha virt. eigenvalues --    0.82321   0.83211   0.83975   0.87521   0.87910
 Alpha virt. eigenvalues --    0.89778   0.90031   0.93805   0.95273   0.96560
 Alpha virt. eigenvalues --    1.00572   1.02056   1.04947   1.07056   1.10930
 Alpha virt. eigenvalues --    1.13920   1.14391   1.16600   1.18386   1.19331
 Alpha virt. eigenvalues --    1.22681   1.24757   1.25823   1.26800   1.29934
 Alpha virt. eigenvalues --    1.32888   1.36199   1.36985   1.38856   1.44598
 Alpha virt. eigenvalues --    1.46664   1.49671   1.50991   1.55716   1.57334
 Alpha virt. eigenvalues --    1.65278   1.67031   1.69331   1.74471   1.75676
 Alpha virt. eigenvalues --    1.76213   1.77336   1.78538   1.79791   1.80531
 Alpha virt. eigenvalues --    1.83531   1.85428   1.87806   1.89681   1.94574
 Alpha virt. eigenvalues --    1.97788   1.98924   2.02834   2.04329   2.11901
 Alpha virt. eigenvalues --    2.14965   2.15491   2.19792   2.20748   2.23436
 Alpha virt. eigenvalues --    2.25585   2.28408   2.31687   2.35230   2.35524
 Alpha virt. eigenvalues --    2.37834   2.39581   2.42712   2.44948   2.48066
 Alpha virt. eigenvalues --    2.49677   2.53761   2.56665   2.57938   2.60075
 Alpha virt. eigenvalues --    2.61318   2.61500   2.71459   2.73253   2.81615
 Alpha virt. eigenvalues --    2.83078   2.83759   2.88018   2.92073   2.94202
 Alpha virt. eigenvalues --    2.96160   2.97612   3.00292   3.06655   3.26093
 Alpha virt. eigenvalues --    3.28914   3.33107   3.43888   3.47105   3.52112
 Alpha virt. eigenvalues --    3.57366   3.63983   3.84435
          Condensed to atoms (all electrons):
               1          2          3          4          5          6
     1  N    6.895264   0.353180  -0.071199   0.010206   0.001488  -0.000008
     2  S    0.353180  14.624079   0.102797  -0.065775   0.004585  -0.000020
     3  C   -0.071199   0.102797   5.788464   0.346381   0.045452   0.006802
     4  C    0.010206  -0.065775   0.346381   5.004742   0.326751  -0.076249
     5  C    0.001488   0.004585   0.045452   0.326751   5.343512   0.222353
     6  Br  -0.000008  -0.000020   0.006802  -0.076249   0.222353  34.893950
     7  C   -0.000017  -0.000135  -0.074751  -0.013577   0.398632  -0.049702
     8  N   -0.000009   0.003051  -0.023241  -0.065251  -0.021937   0.003056
     9  C    0.003115  -0.024083   0.391966  -0.022511  -0.072568   0.000211
    10  C   -0.095421   0.282771  -0.122421  -0.003387  -0.001149   0.000007
    11  N   -0.037983   0.381390  -0.102046   0.007051  -0.000153   0.000000
    12  H    0.330085  -0.012220  -0.001515  -0.001067  -0.000135   0.000001
    13  H    0.024046  -0.008407  -0.055107   0.417916  -0.038915  -0.000194
    14  H   -0.000000   0.000039   0.001509   0.005919  -0.068683   0.005141
    15  H    0.000221  -0.006355  -0.056933   0.005783   0.001109   0.000030
    16  H    0.005800  -0.015483   0.006630  -0.000993   0.000043   0.000001
    17  H    0.004348  -0.005319   0.000555   0.003436   0.000231  -0.000016
    18  H    0.006478  -0.007218   0.007431  -0.000015   0.000015  -0.000000
    19  H   -0.001160  -0.018859   0.011453  -0.000373  -0.000002  -0.000000
               7          8          9         10         11         12
     1  N   -0.000017  -0.000009   0.003115  -0.095421  -0.037983   0.330085
     2  S   -0.000135   0.003051  -0.024083   0.282771   0.381390  -0.012220
     3  C   -0.074751  -0.023241   0.391966  -0.122421  -0.102046  -0.001515
     4  C   -0.013577  -0.065251  -0.022511  -0.003387   0.007051  -0.001067
     5  C    0.398632  -0.021937  -0.072568  -0.001149  -0.000153  -0.000135
     6  Br  -0.049702   0.003056   0.000211   0.000007   0.000000   0.000001
     7  C    4.718887   0.539177  -0.058187  -0.000063   0.000030  -0.000004
     8  N    0.539177   6.277880   0.500413  -0.000182   0.000455  -0.000005
     9  C   -0.058187   0.500413   4.733017  -0.006252   0.002448  -0.000143
    10  C   -0.000063  -0.000182  -0.006252   4.952437  -0.046984   0.008751
    11  N    0.000030   0.000455   0.002448  -0.046984   6.853585  -0.001336
    12  H   -0.000004  -0.000005  -0.000143   0.008751  -0.001336   0.549021
    13  H    0.009166  -0.000648   0.008534   0.000220   0.000694  -0.000482
    14  H    0.425284  -0.032944   0.003933  -0.000001  -0.000000   0.000000
    15  H    0.003925  -0.032545   0.423619   0.000328   0.024091  -0.000012
    16  H   -0.000014   0.000089   0.001928   0.364069   0.003367  -0.000385
    17  H    0.000046  -0.000011   0.000372   0.356222   0.003341  -0.000760
    18  H    0.000000   0.000002   0.000039   0.364218   0.000732  -0.000471
    19  H    0.000001  -0.000005  -0.000374  -0.004804   0.336901   0.001553
              13         14         15         16         17         18
     1  N    0.024046  -0.000000   0.000221   0.005800   0.004348   0.006478
     2  S   -0.008407   0.000039  -0.006355  -0.015483  -0.005319  -0.007218
     3  C   -0.055107   0.001509  -0.056933   0.006630   0.000555   0.007431
     4  C    0.417916   0.005919   0.005783  -0.000993   0.003436  -0.000015
     5  C   -0.038915  -0.068683   0.001109   0.000043   0.000231   0.000015
     6  Br  -0.000194   0.005141   0.000030   0.000001  -0.000016  -0.000000
     7  C    0.009166   0.425284   0.003925  -0.000014   0.000046   0.000000
     8  N   -0.000648  -0.032944  -0.032545   0.000089  -0.000011   0.000002
     9  C    0.008534   0.003933   0.423619   0.001928   0.000372   0.000039
    10  C    0.000220  -0.000001   0.000328   0.364069   0.356222   0.364218
    11  N    0.000694  -0.000000   0.024091   0.003367   0.003341   0.000732
    12  H   -0.000482   0.000000  -0.000012  -0.000385  -0.000760  -0.000471
    13  H    0.597494  -0.000270  -0.000336  -0.000006   0.001327  -0.000131
    14  H   -0.000270   0.619301  -0.000250  -0.000000  -0.000000   0.000000
    15  H   -0.000336  -0.000250   0.582180   0.000398  -0.000030  -0.000044
    16  H   -0.000006  -0.000000   0.000398   0.580334  -0.013752  -0.009417
    17  H    0.001327  -0.000000  -0.000030  -0.013752   0.574041  -0.005994
    18  H   -0.000131   0.000000  -0.000044  -0.009417  -0.005994   0.552982
    19  H   -0.000051   0.000000  -0.000684  -0.000123  -0.000042   0.001563
              19
     1  N   -0.001160
     2  S   -0.018859
     3  C    0.011453
     4  C   -0.000373
     5  C   -0.000002
     6  Br  -0.000000
     7  C    0.000001
     8  N   -0.000005
     9  C   -0.000374
    10  C   -0.004804
    11  N    0.336901
    12  H    0.001553
    13  H   -0.000051
    14  H    0.000000
    15  H   -0.000684
    16  H   -0.000123
    17  H   -0.000042
    18  H    0.001563
    19  H    0.546046
 Mulliken charges:
               1
     1  N   -0.428432
     2  S    0.411980
     3  C   -0.202226
     4  C    0.121014
     5  C   -0.140629
     6  Br  -0.005360
     7  C    0.101302
     8  N   -0.147346
     9  C    0.114523
    10  C   -0.048357
    11  N   -0.425582
    12  H    0.129125
    13  H    0.045151
    14  H    0.041022
    15  H    0.055505
    16  H    0.077514
    17  H    0.082006
    18  H    0.089828
    19  H    0.128961
 Sum of Mulliken charges =  -0.00000
 Mulliken charges with hydrogens summed into heavy atoms:
               1
     1  N   -0.299307
     2  S    0.411980
     3  C   -0.202226
     4  C    0.166165
     5  C   -0.140629
     6  Br  -0.005360
     7  C    0.142323
     8  N   -0.147346
     9  C    0.170028
    10  C    0.200992
    11  N   -0.296622
 Electronic spatial extent (au):  <R**2>=           3336.5100
 Charge=             -0.0000 electrons
 Dipole moment (field-independent basis, Debye):
    X=              0.7591    Y=             -1.1438    Z=              0.9862  Tot=              1.6903
 Quadrupole moment (field-independent basis, Debye-Ang):
   XX=            -77.9366   YY=            -93.5956   ZZ=            -80.0003
   XY=             -2.2861   XZ=              1.8297   YZ=              0.2138
 Traceless Quadrupole moment (field-independent basis, Debye-Ang):
   XX=              5.9075   YY=             -9.7514   ZZ=              3.8439
   XY=             -2.2861   XZ=              1.8297   YZ=              0.2138
 Octapole moment (field-independent basis, Debye-Ang**2):
  XXX=            -55.1032  YYY=            -29.6411  ZZZ=             -5.0136  XYY=            -45.7917
  XXY=            -14.8254  XXZ=             -0.1745  XZZ=             -9.7080  YZZ=            -15.3840
  YYZ=              1.6903  XYZ=              1.1962
 Hexadecapole moment (field-independent basis, Debye-Ang**3):
 XXXX=          -2574.6771 YYYY=           -882.9874 ZZZZ=           -250.7886 XXXY=             15.4894
 XXXZ=            -27.0351 YYYX=             86.3199 YYYZ=             -2.4785 ZZZX=            -12.6977
 ZZZY=             14.3675 XXYY=           -620.4151 XXZZ=           -471.6189 YYZZ=           -165.7955
 XXYZ=              3.5781 YYXZ=              5.7292 ZZXY=             -3.4791
 N-N= 9.755409864131D+02 E-N=-9.969505405295D+03  KE= 3.361395402306D+03
   1 Symmetry operations used in ECPInt.
 ECPInt:  NShTT=    4851 NPrTT=   19510 LenC2=    4626 LenP2D=   13674.
 LDataN:  DoStor=T MaxTD1= 5 Len=  102
 Calling FoFJK, ICntrl=      2127 FMM=F ISym2X=0 I1Cent= 0 IOpClX= 0 NMat=1 NMatS=1 NMatT=0.
 ***** Axes restored to original set *****
 -------------------------------------------------------------------
 Center     Atomic                   Forces (Hartrees/Bohr)
 Number     Number              X              Y              Z
 -------------------------------------------------------------------
      1        7           0.000952506    0.011879855    0.017396545
      2       16          -0.002497642    0.000882209    0.004263561
      3        6          -0.006415873    0.001421520   -0.000520913
      4        6          -0.000174351    0.000639831    0.000203410
      5        6           0.009017203    0.007262623    0.000568313
      6       35          -0.005200845   -0.003295496   -0.000282581
      7        6           0.001184389    0.001566279   -0.000099153
      8        7          -0.000753638   -0.009040642   -0.000151299
      9        6          -0.001600060   -0.002099031    0.000279318
     10        6           0.002947468   -0.001538298   -0.015453760
     11        7           0.011194229   -0.013654348    0.001608764
     12        1           0.000959027   -0.006367500   -0.011955757
     13        1           0.000148666    0.009637522   -0.000626499
     14        1           0.009993619   -0.002947693    0.000297561
     15        1          -0.009712898   -0.004403932   -0.000733339
     16        1           0.000941277   -0.009090147    0.002923762
     17        1           0.007621166    0.006221420    0.003666342
     18        1          -0.009492921    0.004396538   -0.001734069
     19        1          -0.009111323    0.008529290    0.000349795
 -------------------------------------------------------------------
 Cartesian Forces:  Max     0.017396545 RMS     0.006372752

 GradGradGradGradGradGradGradGradGradGradGradGradGradGradGradGradGradGrad
 Berny optimization.
 FormGI is forming the generalized inverse of G from B-inverse, IUseBI=4.
 Internal  Forces:  Max     0.012727361 RMS     0.004693408
 Search for a local minimum.
 Step number   1 out of a maximum of  100
 All quantities printed in internal units (Hartrees-Bohrs-Radians)
 Mixed Optimization -- RFO/linear search
 Second derivative matrix not updated -- first step.
 ITU=  0
     Eigenvalues ---    0.00230   0.00230   0.01464   0.02242   0.02276
     Eigenvalues ---    0.02295   0.02318   0.02385   0.02440   0.02648
     Eigenvalues ---    0.03490   0.03499   0.05912   0.06053   0.06337
     Eigenvalues ---    0.08697   0.09546   0.15631   0.15998   0.15999
     Eigenvalues ---    0.16000   0.16000   0.16000   0.16000   0.16000
     Eigenvalues ---    0.16000   0.18387   0.19099   0.23214   0.23420
     Eigenvalues ---    0.23506   0.24021   0.24994   0.24996   0.25000
     Eigenvalues ---    0.35571   0.35576   0.35746   0.35829   0.35921
     Eigenvalues ---    0.36071   0.43633   0.45933   0.46562   0.46667
     Eigenvalues ---    0.47674   0.48302   0.59266   0.61082   0.66394
     Eigenvalues ---    0.66571
 RFO step:  Lambda=-6.95701026D-03 EMin= 2.30000000D-03
 Linear search not attempted -- first point.
 Iteration  1 RMS(Cart)=  0.03917828 RMS(Int)=  0.00105231
 Iteration  2 RMS(Cart)=  0.00116512 RMS(Int)=  0.00007722
 Iteration  3 RMS(Cart)=  0.00000151 RMS(Int)=  0.00007721
 Iteration  4 RMS(Cart)=  0.00000000 RMS(Int)=  0.00007721
 Variable       Old X    -DE/DX   Delta X   Delta X   Delta X     New X
                                 (Linear)    (Quad)   (Total)
    R1        2.89912   0.00325   0.00000   0.00484   0.00484   2.90396
    R2        1.90203   0.01123   0.00000   0.02377   0.02377   1.92580
    R3        3.42918  -0.00250   0.00000  -0.00974  -0.00974   3.41943
    R4        3.45464  -0.01056   0.00000  -0.04272  -0.04272   3.41192
    R5        2.89790   0.00174   0.00000   0.00259   0.00259   2.90049
    R6        2.61305   0.00703   0.00000   0.01369   0.01369   2.62674
    R7        2.61713   0.00970   0.00000   0.02013   0.02014   2.63727
    R8        2.61886   0.00493   0.00000   0.00924   0.00923   2.62810
    R9        2.04205   0.00963   0.00000   0.02629   0.02629   2.06834
   R10        3.58523  -0.00616   0.00000  -0.03226  -0.03226   3.55297
   R11        2.62816   0.00717   0.00000   0.01471   0.01470   2.64286
   R12        2.49108   0.01253   0.00000   0.02032   0.02032   2.51140
   R13        2.04350   0.01005   0.00000   0.02751   0.02751   2.07101
   R14        2.49765   0.01067   0.00000   0.01783   0.01784   2.51549
   R15        2.03970   0.01056   0.00000   0.02872   0.02872   2.06842
   R16        2.04757   0.00939   0.00000   0.02588   0.02588   2.07345
   R17        2.04480   0.01045   0.00000   0.02868   0.02868   2.07348
   R18        2.04750   0.01008   0.00000   0.02779   0.02779   2.07529
   R19        1.90086   0.01067   0.00000   0.02252   0.02252   1.92339
    A1        2.00084  -0.01273   0.00000  -0.07623  -0.07623   1.92461
    A2        1.96398  -0.00083   0.00000  -0.00426  -0.00425   1.95973
    A3        1.77135  -0.00240   0.00000  -0.01475  -0.01471   1.75665
    A4        2.19755   0.00340   0.00000   0.02246   0.02242   2.21996
    A5        1.71452   0.00272   0.00000   0.00978   0.00977   1.72428
    A6        1.76828  -0.00155   0.00000  -0.00612  -0.00612   1.76216
    A7        1.99480  -0.00128   0.00000  -0.00907  -0.00901   1.98579
    A8        2.06998  -0.00540   0.00000  -0.02084  -0.02085   2.04913
    A9        2.12593   0.00227   0.00000   0.00904   0.00902   2.13496
   A10        2.08707   0.00312   0.00000   0.01163   0.01164   2.09870
   A11        2.05045  -0.00071   0.00000  -0.00619  -0.00621   2.04424
   A12        2.09329   0.00096   0.00000   0.00668   0.00667   2.09996
   A13        2.13936  -0.00025   0.00000  -0.00059  -0.00060   2.13876
   A14        2.10341  -0.00025   0.00000   0.00004   0.00004   2.10346
   A15        2.08011   0.00155   0.00000   0.00395   0.00393   2.08403
   A16        2.09967  -0.00129   0.00000  -0.00399  -0.00399   2.09567
   A17        2.13613  -0.00018   0.00000   0.00006   0.00006   2.13619
   A18        2.11480  -0.00274   0.00000  -0.01698  -0.01698   2.09782
   A19        2.03225   0.00292   0.00000   0.01690   0.01690   2.04915
   A20        2.07868  -0.00072   0.00000   0.00145   0.00146   2.08015
   A21        2.13383  -0.00307   0.00000  -0.01095  -0.01093   2.12289
   A22        2.09709  -0.00015   0.00000  -0.00461  -0.00463   2.09246
   A23        2.05221   0.00321   0.00000   0.01551   0.01550   2.06771
   A24        1.89458  -0.00254   0.00000  -0.01612  -0.01629   1.87829
   A25        1.87694   0.00264   0.00000   0.01838   0.01848   1.89542
   A26        1.88438  -0.00481   0.00000  -0.03050  -0.03063   1.85375
   A27        1.95108   0.00039   0.00000   0.00577   0.00583   1.95691
   A28        1.93452   0.00280   0.00000   0.01146   0.01101   1.94553
   A29        1.92002   0.00124   0.00000   0.00937   0.00953   1.92955
   A30        2.00129  -0.01080   0.00000  -0.06467  -0.06467   1.93662
    D1        1.59844  -0.00268   0.00000  -0.04873  -0.04872   1.54972
    D2       -2.86895  -0.00102   0.00000  -0.04610  -0.04602  -2.91497
    D3       -0.56991  -0.00263   0.00000  -0.05643  -0.05651  -0.62642
    D4        0.41057  -0.00171   0.00000  -0.04164  -0.04159   0.36898
    D5       -2.70921  -0.00155   0.00000  -0.03308  -0.03308  -2.74229
    D6       -1.44188  -0.00010   0.00000  -0.02865  -0.02863  -1.47051
    D7        1.72152   0.00006   0.00000  -0.02009  -0.02012   1.70140
    D8        2.80049   0.00085   0.00000  -0.02039  -0.02039   2.78010
    D9       -0.31929   0.00101   0.00000  -0.01183  -0.01188  -0.33117
   D10       -2.98359   0.00014   0.00000  -0.01226  -0.01206  -2.99565
   D11       -0.86980   0.00069   0.00000  -0.00385  -0.00377  -0.87357
   D12        1.20136   0.00100   0.00000   0.00079   0.00067   1.20203
   D13       -0.97442  -0.00056   0.00000  -0.01765  -0.01750  -0.99192
   D14        1.13936  -0.00000   0.00000  -0.00923  -0.00921   1.13015
   D15       -3.07266   0.00031   0.00000  -0.00459  -0.00477  -3.07743
   D16        0.88312  -0.00128   0.00000  -0.02214  -0.02204   0.86108
   D17        2.99690  -0.00073   0.00000  -0.01373  -0.01375   2.98315
   D18       -1.21512  -0.00042   0.00000  -0.00909  -0.00931  -1.22443
   D19       -0.60321  -0.00123   0.00000  -0.03744  -0.03737  -0.64058
   D20       -2.85211  -0.00114   0.00000  -0.04328  -0.04329  -2.89540
   D21        1.60701  -0.00304   0.00000  -0.04835  -0.04841   1.55859
   D22       -3.13414   0.00006   0.00000   0.00425   0.00420  -3.12995
   D23       -0.00606  -0.00020   0.00000  -0.00448  -0.00454  -0.01060
   D24       -0.01386  -0.00011   0.00000  -0.00413  -0.00415  -0.01802
   D25        3.11422  -0.00037   0.00000  -0.01287  -0.01289   3.10133
   D26        3.13505  -0.00018   0.00000  -0.00533  -0.00542   3.12963
   D27        0.00493  -0.00000   0.00000  -0.00032  -0.00041   0.00452
   D28        0.01548   0.00008   0.00000   0.00371   0.00372   0.01920
   D29       -3.11465   0.00026   0.00000   0.00871   0.00874  -3.10591
   D30       -3.13845  -0.00015   0.00000  -0.00493  -0.00493   3.13981
   D31        0.00361   0.00003   0.00000   0.00184   0.00183   0.00544
   D32        0.01704   0.00010   0.00000   0.00399   0.00396   0.02100
   D33       -3.12409   0.00028   0.00000   0.01077   0.01072  -3.11337
   D34        0.00628   0.00002   0.00000   0.00095   0.00095   0.00723
   D35       -3.14078  -0.00003   0.00000  -0.00160  -0.00157   3.14084
   D36       -3.13485   0.00020   0.00000   0.00771   0.00768  -3.12717
   D37        0.00128   0.00015   0.00000   0.00517   0.00516   0.00644
   D38       -0.00537  -0.00002   0.00000  -0.00149  -0.00150  -0.00687
   D39        3.14144   0.00005   0.00000   0.00103   0.00106  -3.14069
   D40       -0.00558  -0.00000   0.00000  -0.00076  -0.00075  -0.00633
   D41        3.12482  -0.00020   0.00000  -0.00576  -0.00582   3.11900
         Item               Value     Threshold  Converged?
 Maximum Force            0.012727     0.000450     NO 
 RMS     Force            0.004693     0.000300     NO 
 Maximum Displacement     0.149242     0.001800     NO 
 RMS     Displacement     0.039586     0.001200     NO 
 Predicted change in Energy=-3.632937D-03
 GradGradGradGradGradGradGradGradGradGradGradGradGradGradGradGradGradGrad

                          Input orientation:                          
 ---------------------------------------------------------------------
 Center     Atomic      Atomic             Coordinates (Angstroms)
 Number     Number       Type             X           Y           Z
 ---------------------------------------------------------------------
      1          7           0       -2.606576    1.863594   -0.644646
      2         16           0       -2.757445    0.431014   -0.109447
      3          6           0       -1.179360   -0.453015   -0.060717
      4          6           0       -0.018124    0.310886   -0.049868
      5          6           0        1.191674   -0.374668   -0.026794
      6         35           0        2.820803    0.563803   -0.013407
      7          6           0        1.188466   -1.773197   -0.022355
      8          7           0        0.065011   -2.482696   -0.047573
      9          6           0       -1.104054   -1.846534   -0.070269
     10          6           0       -2.948079    0.753084    1.656848
     11          7           0       -3.689885   -0.665336   -0.642747
     12          1           0       -2.701928    1.873357   -1.659218
     13          1           0       -0.075216    1.403486   -0.080406
     14          1           0        2.134290   -2.326534   -0.004972
     15          1           0       -2.021439   -2.442077   -0.112641
     16          1           0       -2.915218   -0.212979    2.176025
     17          1           0       -2.141371    1.423215    1.979459
     18          1           0       -3.924988    1.240416    1.775968
     19          1           0       -4.576857   -0.271477   -0.949498
 ---------------------------------------------------------------------
                    Distance matrix (angstroms):
                    1          2          3          4          5
     1  N    0.000000
     2  S    1.536711   0.000000
     3  C    2.782912   1.809485   0.000000
     4  C    3.076483   2.742600   1.390011   0.000000
     5  C    4.451771   4.031314   2.372570   1.390729   0.000000
     6  Br   5.616437   5.580655   4.127646   2.850405   1.880151
     7  C    5.292999   4.520657   2.711263   2.408322   1.398540
     8  N    5.136546   4.057067   2.380806   2.794820   2.390311
     9  C    4.043826   2.814687   1.395585   2.415392   2.727388
    10  C    2.578126   1.805511   2.744644   3.419510   4.609124
    11  N    2.751190   1.534873   2.585841   3.845300   4.928844
    12  H    1.019090   2.117835   3.207090   3.497732   4.783154
    13  H    2.633980   2.853226   2.160120   1.094517   2.183968
    14  H    6.359415   5.616410   3.807027   3.404539   2.167667
    15  H    4.377695   2.965867   2.160592   3.405292   3.821733
    16  H    3.516190   2.379706   2.841449   3.690824   4.663165
    17  H    2.701162   2.393228   2.933944   3.140641   4.285630
    18  H    2.825939   2.360737   3.712087   4.411494   5.660271
    19  H    2.921210   2.123544   3.516514   4.683003   5.842772
                    6          7          8          9         10
     6  Br   0.000000
     7  C    2.850644   0.000000
     8  N    4.108128   1.328976   0.000000
     9  C    4.606241   2.294193   1.331139   0.000000
    10  C    6.008792   5.129602   4.738569   3.625103   0.000000
    11  N    6.655517   5.040887   4.213819   2.899910   2.801844
    12  H    5.909669   5.577799   5.406344   4.349201   3.508832
    13  H    3.016038   3.419294   3.888850   3.408994   3.419710
    14  H    2.970760   1.095932   2.075601   3.274375   6.170588
    15  H    5.700217   3.280098   2.087859   1.094560   3.768130
    16  H    6.188613   4.909925   4.356348   3.315818   1.097224
    17  H    5.416021   5.031116   4.922716   3.996082   1.097238
    18  H    7.011801   6.201873   5.753864   4.571161   1.098195
    19  H    7.503288   6.029403   5.220143   3.913337   3.239705
                   11         12         13         14         15
    11  N    0.000000
    12  H    2.907617   0.000000
    13  H    4.202628   3.100491   0.000000
    14  H    6.089938   6.615483   4.335972   0.000000
    15  H    2.494299   4.634429   4.310125   4.158729   0.000000
    16  H    2.958075   4.371199   3.971152   5.892485   3.317485
    17  H    3.692683   3.709019   2.917607   6.023277   4.396789
    18  H    3.088259   3.700945   4.277085   7.253256   4.555336
    19  H    1.017812   2.935877   4.881147   7.082011   3.455719
                   16         17         18         19
    16  H    0.000000
    17  H    1.820607   0.000000
    18  H    1.814397   1.804470   0.000000
    19  H    3.540248   4.169216   3.184167   0.000000
 Stoichiometry    C6H8BrN3S
 Framework group  C1[X(C6H8BrN3S)]
 Deg. of freedom    51
 Full point group                 C1      NOp   1
 Largest Abelian subgroup         C1      NOp   1
 Largest concise Abelian subgroup C1      NOp   1
                         Standard orientation:                         
 ---------------------------------------------------------------------
 Center     Atomic      Atomic             Coordinates (Angstroms)
 Number     Number       Type             X           Y           Z
 ---------------------------------------------------------------------
      1          7           0        2.429089   -1.822323   -0.745013
      2         16           0        2.567889   -0.412371   -0.149824
      3          6           0        0.980172    0.449928   -0.050671
      4          6           0       -0.172041   -0.327483   -0.063601
      5          6           0       -1.389433    0.342016   -0.001520
      6         35           0       -3.007457   -0.615462   -0.015755
      7          6           0       -1.402324    1.739002    0.063112
      8          7           0       -0.287381    2.462234    0.059641
      9          6           0        0.888716    1.841576    0.000386
     10          6           0        2.776991   -0.807745    1.599411
     11          7           0        3.483124    0.716888   -0.642731
     12          1           0        2.516059   -1.787351   -1.759783
     13          1           0       -0.102605   -1.417007   -0.141607
     14          1           0       -2.354292    2.279799    0.111739
     15          1           0        1.798782    2.449252   -0.023511
     16          1           0        2.737329    0.134659    2.159948
     17          1           0        1.980796   -1.500661    1.899196
     18          1           0        3.760420   -1.288098    1.689754
     19          1           0        4.371986    0.347144   -0.973118
 ---------------------------------------------------------------------
 Rotational constants (GHZ):           1.4685389           0.3478351           0.3014915
 Standard basis: def2SVP (5D, 7F)
 There are   229 symmetry adapted cartesian basis functions of A   symmetry.
 There are   216 symmetry adapted basis functions of A   symmetry.
   216 basis functions,   398 primitive gaussians,   229 cartesian basis functions
    58 alpha electrons       58 beta electrons
       nuclear repulsion energy       976.6486561759 Hartrees.
 NAtoms=   19 NActive=   19 NUniq=   19 SFac= 1.00D+00 NAtFMM=   60 NAOKFM=F Big=F
 Integral buffers will be    131072 words long.
 Raffenetti 2 integral format.
 Two-electron integral symmetry is turned on.
 Nuclear repulsion after empirical dispersion term =      976.6255343570 Hartrees.
 One-electron integrals computed using PRISM.
   1 Symmetry operations used in ECPInt.
 ECPInt:  NShTT=    4851 NPrTT=   19510 LenC2=    4626 LenP2D=   13692.
 LDataN:  DoStor=T MaxTD1= 4 Len=   56
 NBasis=   216 RedAO= T EigKep=  6.26D-04  NBF=   216
 NBsUse=   216 1.00D-06 EigRej= -1.00D+00 NBFU=   216
 Initial guess from the checkpoint file:  "SDI2979_3.chk"
 B after Tr=    -0.000000   -0.000000    0.000000
         Rot=    0.999988    0.004690   -0.001422   -0.000081 Ang=   0.56 deg.
 ExpMin= 1.22D-01 ExpMax= 1.13D+05 ExpMxC= 1.70D+04 IAcc=3 IRadAn=         5 AccDes= 0.00D+00
 Harris functional with IExCor= 1009 and IRadAn=       5 diagonalized for initial guess.
 HarFok:  IExCor= 1009 AccDes= 0.00D+00 IRadAn=         5 IDoV= 1 UseB2=F ITyADJ=14
 ICtDFT=  3500011 ScaDFX=  1.000000  1.000000  1.000000  1.000000
 FoFCou: FMM=F IPFlag=           0 FMFlag=      100000 FMFlg1=           0
         NFxFlg=           0 DoJE=T BraDBF=F KetDBF=T FulRan=T
         wScrn=  0.000000 ICntrl=       500 IOpCl=  0 I1Cent=   200000004 NGrid=           0
         NMat0=    1 NMatS0=      1 NMatT0=    0 NMatD0=    1 NMtDS0=    0 NMtDT0=    0
 Petite list used in FoFCou.
 Requested convergence on RMS density matrix=1.00D-08 within 128 cycles.
 Requested convergence on MAX density matrix=1.00D-06.
 Requested convergence on             energy=1.00D-06.
 No special actions if energy rises.
 Integral accuracy reduced to 1.0D-05 until final iterations.
 Initial convergence to 1.0D-05 achieved.  Increase integral accuracy.
 SCF Done:  E(RPBE1PBE) =  -3368.31038954     A.U. after   12 cycles
            NFock= 12  Conv=0.79D-08     -V/T= 2.0021
   1 Symmetry operations used in ECPInt.
 ECPInt:  NShTT=    4851 NPrTT=   19510 LenC2=    4626 LenP2D=   13692.
 LDataN:  DoStor=T MaxTD1= 5 Len=  102
 Calling FoFJK, ICntrl=      2127 FMM=F ISym2X=0 I1Cent= 0 IOpClX= 0 NMat=1 NMatS=1 NMatT=0.
 ***** Axes restored to original set *****
 -------------------------------------------------------------------
 Center     Atomic                   Forces (Hartrees/Bohr)
 Number     Number              X              Y              Z
 -------------------------------------------------------------------
      1        7          -0.003331906    0.010292629   -0.000550751
      2       16           0.005847888   -0.002452763    0.009863919
      3        6          -0.000796254   -0.001423221   -0.001264426
      4        6          -0.001240293   -0.000129667   -0.000187502
      5        6           0.001102821    0.000392009    0.000066612
      6       35           0.000522436    0.000028849    0.000007729
      7        6          -0.002647739   -0.000457335   -0.000128315
      8        7           0.000282543   -0.000376439    0.000071313
      9        6           0.002068950    0.000400635    0.000212193
     10        6           0.000650733   -0.000108077   -0.002734874
     11        7          -0.001482264   -0.006545632   -0.005595631
     12        1           0.002560694   -0.002325432   -0.003102607
     13        1          -0.000279693   -0.000510698   -0.000061903
     14        1          -0.000319739    0.000486564    0.000039810
     15        1           0.000506442    0.000502945   -0.000085417
     16        1          -0.000325273    0.000393867    0.000219073
     17        1          -0.000729214   -0.000368561    0.000978488
     18        1           0.000099574    0.000027153   -0.000193367
     19        1          -0.002489707    0.002173175    0.002445657
 -------------------------------------------------------------------
 Cartesian Forces:  Max     0.010292629 RMS     0.002649871

 GradGradGradGradGradGradGradGradGradGradGradGradGradGradGradGradGradGrad
 Berny optimization.
 Using GEDIIS/GDIIS optimizer.
 FormGI is forming the generalized inverse of G from B-inverse, IUseBI=4.
 Internal  Forces:  Max     0.008623510 RMS     0.001547504
 Search for a local minimum.
 Step number   2 out of a maximum of  100
 All quantities printed in internal units (Hartrees-Bohrs-Radians)
 Mixed Optimization -- RFO/linear search
 Update second derivatives using D2CorX and points    1    2
 DE= -4.05D-03 DEPred=-3.63D-03 R= 1.12D+00
 TightC=F SS=  1.41D+00  RLast= 2.11D-01 DXNew= 5.0454D-01 6.3322D-01
 Trust test= 1.12D+00 RLast= 2.11D-01 DXMaxT set to 5.05D-01
 ITU=  1  0
 Use linear search instead of GDIIS.
     Eigenvalues ---    0.00230   0.00231   0.01474   0.02242   0.02276
     Eigenvalues ---    0.02297   0.02316   0.02390   0.02443   0.02648
     Eigenvalues ---    0.03009   0.03495   0.05942   0.06198   0.06346
     Eigenvalues ---    0.08827   0.09585   0.14028   0.15670   0.15996
     Eigenvalues ---    0.15999   0.16000   0.16000   0.16000   0.16000
     Eigenvalues ---    0.16217   0.18540   0.19133   0.23141   0.23411
     Eigenvalues ---    0.23594   0.24032   0.24861   0.24997   0.25017
     Eigenvalues ---    0.35573   0.35623   0.35781   0.35880   0.36007
     Eigenvalues ---    0.37732   0.43692   0.45406   0.46022   0.46628
     Eigenvalues ---    0.48181   0.48290   0.59856   0.61149   0.66497
     Eigenvalues ---    0.70560
 RFO step:  Lambda=-1.38080637D-03 EMin= 2.29816210D-03
 Quartic linear search produced a step of  0.19202.
 Iteration  1 RMS(Cart)=  0.03519726 RMS(Int)=  0.00103470
 Iteration  2 RMS(Cart)=  0.00108019 RMS(Int)=  0.00003435
 Iteration  3 RMS(Cart)=  0.00000158 RMS(Int)=  0.00003432
 Iteration  4 RMS(Cart)=  0.00000000 RMS(Int)=  0.00003432
 Variable       Old X    -DE/DX   Delta X   Delta X   Delta X     New X
                                 (Linear)    (Quad)   (Total)
    R1        2.90396   0.00862   0.00093   0.01531   0.01624   2.92021
    R2        1.92580   0.00283   0.00456   0.00687   0.01144   1.93724
    R3        3.41943  -0.00020  -0.00187  -0.00081  -0.00268   3.41675
    R4        3.41192  -0.00167  -0.00820  -0.00751  -0.01572   3.39621
    R5        2.90049   0.00663   0.00050   0.01176   0.01225   2.91275
    R6        2.62674  -0.00106   0.00263  -0.00264  -0.00001   2.62673
    R7        2.63727  -0.00060   0.00387  -0.00181   0.00206   2.63934
    R8        2.62810   0.00024   0.00177   0.00068   0.00245   2.63055
    R9        2.06834  -0.00049   0.00505  -0.00199   0.00306   2.07140
   R10        3.55297   0.00047  -0.00619   0.00357  -0.00262   3.55035
   R11        2.64286   0.00010   0.00282   0.00014   0.00296   2.64582
   R12        2.51140  -0.00146   0.00390  -0.00310   0.00080   2.51220
   R13        2.07101  -0.00052   0.00528  -0.00210   0.00318   2.07419
   R14        2.51549  -0.00122   0.00342  -0.00271   0.00071   2.51620
   R15        2.06842  -0.00069   0.00551  -0.00267   0.00284   2.07126
   R16        2.07345  -0.00025   0.00497  -0.00120   0.00377   2.07722
   R17        2.07348  -0.00047   0.00551  -0.00196   0.00354   2.07702
   R18        2.07529  -0.00010   0.00534  -0.00071   0.00462   2.07991
   R19        1.92339   0.00227   0.00432   0.00547   0.00979   1.93318
    A1        1.92461  -0.00373  -0.01464  -0.02592  -0.04056   1.88405
    A2        1.95973   0.00020  -0.00082   0.00454   0.00358   1.96332
    A3        1.75665   0.00089  -0.00282   0.00933   0.00640   1.76305
    A4        2.21996  -0.00127   0.00430  -0.01872  -0.01442   2.20554
    A5        1.72428   0.00134   0.00188   0.01711   0.01895   1.74323
    A6        1.76216  -0.00000  -0.00117   0.00083  -0.00031   1.76185
    A7        1.98579  -0.00052  -0.00173  -0.00415  -0.00592   1.97987
    A8        2.04913  -0.00112  -0.00400  -0.00489  -0.00890   2.04023
    A9        2.13496   0.00121   0.00173   0.00563   0.00736   2.14231
   A10        2.09870  -0.00009   0.00223  -0.00069   0.00155   2.10025
   A11        2.04424  -0.00009  -0.00119   0.00019  -0.00101   2.04323
   A12        2.09996  -0.00027   0.00128  -0.00249  -0.00121   2.09874
   A13        2.13876   0.00036  -0.00011   0.00233   0.00221   2.14097
   A14        2.10346   0.00088   0.00001   0.00394   0.00394   2.10740
   A15        2.08403  -0.00091   0.00075  -0.00398  -0.00323   2.08080
   A16        2.09567   0.00004  -0.00077   0.00005  -0.00072   2.09495
   A17        2.13619   0.00124   0.00001   0.00635   0.00636   2.14254
   A18        2.09782  -0.00089  -0.00326  -0.00481  -0.00807   2.08975
   A19        2.04915  -0.00035   0.00325  -0.00153   0.00172   2.05087
   A20        2.08015  -0.00110   0.00028  -0.00639  -0.00610   2.07404
   A21        2.12289   0.00096  -0.00210   0.00449   0.00239   2.12528
   A22        2.09246  -0.00063  -0.00089  -0.00317  -0.00406   2.08840
   A23        2.06771  -0.00033   0.00298  -0.00132   0.00165   2.06937
   A24        1.87829   0.00040  -0.00313   0.00329   0.00008   1.87837
   A25        1.89542   0.00185   0.00355   0.01465   0.01821   1.91363
   A26        1.85375  -0.00068  -0.00588  -0.00580  -0.01170   1.84205
   A27        1.95691  -0.00078   0.00112  -0.00294  -0.00188   1.95504
   A28        1.94553  -0.00018   0.00211  -0.00458  -0.00260   1.94294
   A29        1.92955  -0.00050   0.00183  -0.00390  -0.00198   1.92756
   A30        1.93662  -0.00351  -0.01242  -0.02452  -0.03694   1.89968
    D1        1.54972  -0.00291  -0.00936  -0.07153  -0.08088   1.46884
    D2       -2.91497  -0.00092  -0.00884  -0.04660  -0.05542  -2.97039
    D3       -0.62642  -0.00184  -0.01085  -0.05919  -0.07006  -0.69649
    D4        0.36898   0.00097  -0.00799  -0.00785  -0.01580   0.35318
    D5       -2.74229   0.00096  -0.00635  -0.00971  -0.01604  -2.75833
    D6       -1.47051  -0.00071  -0.00550  -0.02750  -0.03300  -1.50351
    D7        1.70140  -0.00072  -0.00386  -0.02936  -0.03323   1.66817
    D8        2.78010  -0.00056  -0.00392  -0.02837  -0.03230   2.74780
    D9       -0.33117  -0.00057  -0.00228  -0.03023  -0.03254  -0.36371
   D10       -2.99565  -0.00106  -0.00232  -0.04153  -0.04386  -3.03950
   D11       -0.87357  -0.00069  -0.00072  -0.03464  -0.03536  -0.90893
   D12        1.20203  -0.00069   0.00013  -0.03479  -0.03476   1.16728
   D13       -0.99192  -0.00025  -0.00336  -0.02959  -0.03288  -1.02481
   D14        1.13015   0.00012  -0.00177  -0.02270  -0.02438   1.10577
   D15       -3.07743   0.00012  -0.00092  -0.02285  -0.02378  -3.10121
   D16        0.86108   0.00028  -0.00423  -0.02123  -0.02546   0.83562
   D17        2.98315   0.00065  -0.00264  -0.01434  -0.01696   2.96619
   D18       -1.22443   0.00065  -0.00179  -0.01450  -0.01636  -1.24079
   D19       -0.64058  -0.00182  -0.00718  -0.05375  -0.06094  -0.70153
   D20       -2.89540  -0.00101  -0.00831  -0.04536  -0.05370  -2.94910
   D21        1.55859  -0.00238  -0.00930  -0.06394  -0.07320   1.48540
   D22       -3.12995  -0.00008   0.00081  -0.00384  -0.00304  -3.13299
   D23       -0.01060  -0.00007  -0.00087  -0.00285  -0.00373  -0.01433
   D24       -0.01802  -0.00005  -0.00080  -0.00190  -0.00270  -0.02071
   D25        3.10133  -0.00003  -0.00248  -0.00090  -0.00338   3.09794
   D26        3.12963   0.00006  -0.00104   0.00407   0.00302   3.13264
   D27        0.00452   0.00007  -0.00008   0.00438   0.00429   0.00881
   D28        0.01920   0.00006   0.00071   0.00222   0.00294   0.02214
   D29       -3.10591   0.00008   0.00168   0.00253   0.00422  -3.10169
   D30        3.13981   0.00002  -0.00095   0.00133   0.00038   3.14019
   D31        0.00544   0.00002   0.00035   0.00061   0.00096   0.00640
   D32        0.02100   0.00002   0.00076   0.00038   0.00114   0.02214
   D33       -3.11337   0.00001   0.00206  -0.00034   0.00172  -3.11165
   D34        0.00723   0.00002   0.00018   0.00058   0.00077   0.00800
   D35        3.14084   0.00003  -0.00030   0.00158   0.00128  -3.14107
   D36       -3.12717   0.00001   0.00148  -0.00015   0.00132  -3.12585
   D37        0.00644   0.00003   0.00099   0.00085   0.00184   0.00828
   D38       -0.00687  -0.00001  -0.00029  -0.00039  -0.00068  -0.00755
   D39       -3.14069  -0.00003   0.00020  -0.00134  -0.00114   3.14136
   D40       -0.00633  -0.00003  -0.00014  -0.00103  -0.00117  -0.00750
   D41        3.11900  -0.00005  -0.00112  -0.00135  -0.00248   3.11652
         Item               Value     Threshold  Converged?
 Maximum Force            0.008624     0.000450     NO 
 RMS     Force            0.001548     0.000300     NO 
 Maximum Displacement     0.144053     0.001800     NO 
 RMS     Displacement     0.035331     0.001200     NO 
 Predicted change in Energy=-8.315333D-04
 GradGradGradGradGradGradGradGradGradGradGradGradGradGradGradGradGradGrad

                          Input orientation:                          
 ---------------------------------------------------------------------
 Center     Atomic      Atomic             Coordinates (Angstroms)
 Number     Number       Type             X           Y           Z
 ---------------------------------------------------------------------
      1          7           0       -2.597564    1.876853   -0.632049
      2         16           0       -2.748014    0.434361   -0.098612
      3          6           0       -1.174676   -0.455618   -0.057955
      4          6           0       -0.016798    0.313359   -0.068359
      5          6           0        1.196639   -0.368466   -0.047804
      6         35           0        2.825101    0.568378   -0.061640
      7          6           0        1.193760   -1.768400   -0.026045
      8          7           0        0.074462   -2.485633   -0.033001
      9          6           0       -1.095387   -1.850034   -0.053042
     10          6           0       -2.975047    0.739720    1.657840
     11          7           0       -3.685471   -0.653821   -0.657916
     12          1           0       -2.625699    1.839502   -1.656124
     13          1           0       -0.080437    1.406713   -0.113520
     14          1           0        2.145704   -2.314551   -0.009242
     15          1           0       -2.015014   -2.445644   -0.082836
     16          1           0       -2.989220   -0.234908    2.165955
     17          1           0       -2.166524    1.385670    2.028093
     18          1           0       -3.945920    1.250776    1.745251
     19          1           0       -4.580192   -0.223917   -0.905252
 ---------------------------------------------------------------------
                    Distance matrix (angstroms):
                    1          2          3          4          5
     1  N    0.000000
     2  S    1.545307   0.000000
     3  C    2.791884   1.808068   0.000000
     4  C    3.069628   2.734063   1.390005   0.000000
     5  C    4.447334   4.025842   2.372938   1.392027   0.000000
     6  Br   5.607385   5.574849   4.128776   2.853326   1.878764
     7  C    5.294266   4.516083   2.708118   2.408518   1.400106
     8  N    5.150716   4.061656   2.383680   2.800702   2.396225
     9  C    4.059738   2.819878   1.396677   2.417406   2.729185
    10  C    2.584406   1.797195   2.759370   3.451490   4.641149
    11  N    2.754727   1.541358   2.589079   3.839554   4.928353
    12  H    1.025142   2.101244   3.150744   3.414158   4.698093
    13  H    2.612630   2.839306   2.160723   1.096136   2.187808
    14  H    6.360374   5.613643   3.805644   3.403795   2.165516
    15  H    4.396019   2.971862   2.160322   3.406637   3.824999
    16  H    3.527287   2.373681   2.878725   3.758729   4.737086
    17  H    2.739236   2.401249   2.953930   3.188461   4.324027
    18  H    2.803853   2.345494   3.720636   4.427859   5.681805
    19  H    2.901497   2.107337   3.516978   4.670505   5.841908
                    6          7          8          9         10
     6  Br   0.000000
     7  C    2.850100   0.000000
     8  N    4.110209   1.329398   0.000000
     9  C    4.606410   2.290761   1.331516   0.000000
    10  C    6.052081   5.148309   4.749880   3.628645   0.000000
    11  N    6.651079   5.044645   4.228847   2.916390   2.794527
    12  H    5.819738   5.501125   5.350905   4.303998   3.509119
    13  H    3.024508   3.422364   3.896259   3.411771   3.458520
    14  H    2.962365   1.097616   2.078431   3.274502   6.191109
    15  H    5.701885   3.279957   2.090454   1.096063   3.754751
    16  H    6.278038   4.965257   4.391733   3.334544   1.099219
    17  H    5.472775   5.045706   4.925152   3.993525   1.099113
    18  H    7.041111   6.218459   5.769438   4.579784   1.100643
    19  H    7.495183   6.041271   5.248046   3.938830   3.174039
                   11         12         13         14         15
    11  N    0.000000
    12  H    2.887247   0.000000
    13  H    4.187891   3.007539   0.000000
    14  H    6.097655   6.537175   4.337555   0.000000
    15  H    2.516301   4.605501   4.310938   4.163434   0.000000
    16  H    2.938452   4.363898   4.043753   5.951793   3.300529
    17  H    3.698834   3.740356   2.989767   6.036364   4.376979
    18  H    3.077424   3.695800   4.292005   7.273080   4.553441
    19  H    1.022995   2.939651   4.851143   7.100089   3.491787
                   16         17         18         19
    16  H    0.000000
    17  H    1.822665   0.000000
    18  H    1.816460   1.806779   0.000000
    19  H    3.458847   4.125661   3.098739   0.000000
 Stoichiometry    C6H8BrN3S
 Framework group  C1[X(C6H8BrN3S)]
 Deg. of freedom    51
 Full point group                 C1      NOp   1
 Largest Abelian subgroup         C1      NOp   1
 Largest concise Abelian subgroup C1      NOp   1
                         Standard orientation:                         
 ---------------------------------------------------------------------
 Center     Atomic      Atomic             Coordinates (Angstroms)
 Number     Number       Type             X           Y           Z
 ---------------------------------------------------------------------
      1          7           0        2.417282   -1.843357   -0.718678
      2         16           0        2.560995   -0.415239   -0.146140
      3          6           0        0.978553    0.454197   -0.050902
      4          6           0       -0.170403   -0.328027   -0.062722
      5          6           0       -1.391008    0.338269   -0.000198
      6         35           0       -3.008571   -0.617301   -0.011799
      7          6           0       -1.403819    1.736916    0.062404
      8          7           0       -0.293160    2.467461    0.056063
      9          6           0        0.883346    1.846828   -0.003804
     10          6           0        2.824014   -0.768663    1.596221
     11          7           0        3.475362    0.699906   -0.690356
     12          1           0        2.426014   -1.775982   -1.741566
     13          1           0       -0.095048   -1.418767   -0.140962
     14          1           0       -2.361503    2.270860    0.112460
     15          1           0        1.795357    2.454071   -0.032892
     16          1           0        2.836391    0.190917    2.132257
     17          1           0        2.029965   -1.434760    1.962077
     18          1           0        3.802150   -1.270324    1.650998
     19          1           0        4.370231    0.288150   -0.966372
 ---------------------------------------------------------------------
 Rotational constants (GHZ):           1.4661465           0.3474348           0.3011223
 Standard basis: def2SVP (5D, 7F)
 There are   229 symmetry adapted cartesian basis functions of A   symmetry.
 There are   216 symmetry adapted basis functions of A   symmetry.
   216 basis functions,   398 primitive gaussians,   229 cartesian basis functions
    58 alpha electrons       58 beta electrons
       nuclear repulsion energy       976.0280659591 Hartrees.
 NAtoms=   19 NActive=   19 NUniq=   19 SFac= 1.00D+00 NAtFMM=   60 NAOKFM=F Big=F
 Integral buffers will be    131072 words long.
 Raffenetti 2 integral format.
 Two-electron integral symmetry is turned on.
 Nuclear repulsion after empirical dispersion term =      976.0049561444 Hartrees.
 One-electron integrals computed using PRISM.
   1 Symmetry operations used in ECPInt.
 ECPInt:  NShTT=    4851 NPrTT=   19510 LenC2=    4625 LenP2D=   13687.
 LDataN:  DoStor=T MaxTD1= 4 Len=   56
 NBasis=   216 RedAO= T EigKep=  6.30D-04  NBF=   216
 NBsUse=   216 1.00D-06 EigRej= -1.00D+00 NBFU=   216
 Initial guess from the checkpoint file:  "SDI2979_3.chk"
 B after Tr=     0.000000   -0.000000   -0.000000
         Rot=    0.999988    0.004688   -0.001507   -0.000250 Ang=   0.57 deg.
 ExpMin= 1.22D-01 ExpMax= 1.13D+05 ExpMxC= 1.70D+04 IAcc=3 IRadAn=         5 AccDes= 0.00D+00
 Harris functional with IExCor= 1009 and IRadAn=       5 diagonalized for initial guess.
 HarFok:  IExCor= 1009 AccDes= 0.00D+00 IRadAn=         5 IDoV= 1 UseB2=F ITyADJ=14
 ICtDFT=  3500011 ScaDFX=  1.000000  1.000000  1.000000  1.000000
 FoFCou: FMM=F IPFlag=           0 FMFlag=      100000 FMFlg1=           0
         NFxFlg=           0 DoJE=T BraDBF=F KetDBF=T FulRan=T
         wScrn=  0.000000 ICntrl=       500 IOpCl=  0 I1Cent=   200000004 NGrid=           0
         NMat0=    1 NMatS0=      1 NMatT0=    0 NMatD0=    1 NMtDS0=    0 NMtDT0=    0
 Petite list used in FoFCou.
 Requested convergence on RMS density matrix=1.00D-08 within 128 cycles.
 Requested convergence on MAX density matrix=1.00D-06.
 Requested convergence on             energy=1.00D-06.
 No special actions if energy rises.
 Integral accuracy reduced to 1.0D-05 until final iterations.
 Initial convergence to 1.0D-05 achieved.  Increase integral accuracy.
 SCF Done:  E(RPBE1PBE) =  -3368.31149756     A.U. after   12 cycles
            NFock= 12  Conv=0.76D-08     -V/T= 2.0021
   1 Symmetry operations used in ECPInt.
 ECPInt:  NShTT=    4851 NPrTT=   19510 LenC2=    4625 LenP2D=   13687.
 LDataN:  DoStor=T MaxTD1= 5 Len=  102
 Calling FoFJK, ICntrl=      2127 FMM=F ISym2X=0 I1Cent= 0 IOpClX= 0 NMat=1 NMatS=1 NMatT=0.
 ***** Axes restored to original set *****
 -------------------------------------------------------------------
 Center     Atomic                   Forces (Hartrees/Bohr)
 Number     Number              X              Y              Z
 -------------------------------------------------------------------
      1        7          -0.002458276    0.003369310   -0.002090742
      2       16           0.003619036   -0.001761306    0.003564143
      3        6          -0.000400068   -0.001008132   -0.000555389
      4        6           0.000244931    0.000193548   -0.000111715
      5        6          -0.000965969   -0.000915984   -0.000080005
      6       35           0.000526232    0.000239506   -0.000001993
      7        6          -0.000255745   -0.000309161    0.000043892
      8        7          -0.000037605    0.001714787   -0.000075788
      9        6           0.000098971    0.000274987    0.000189147
     10        6           0.000011425    0.001140794    0.000652524
     11        7          -0.001945201   -0.001783590   -0.004439718
     12        1           0.001887084   -0.000416077    0.000787608
     13        1          -0.000244993   -0.001521872    0.000241377
     14        1          -0.001499931    0.000536711   -0.000004936
     15        1           0.001472275    0.000711546    0.000012931
     16        1          -0.000141145    0.001543285   -0.000669199
     17        1          -0.001403881   -0.000878802   -0.000042416
     18        1           0.001495168   -0.000666616    0.000288458
     19        1          -0.000002310   -0.000462935    0.002291822
 -------------------------------------------------------------------
 Cartesian Forces:  Max     0.004439718 RMS     0.001400734

 GradGradGradGradGradGradGradGradGradGradGradGradGradGradGradGradGradGrad
 Berny optimization.
 Using GEDIIS/GDIIS optimizer.
 FormGI is forming the generalized inverse of G from B-inverse, IUseBI=4.
 Internal  Forces:  Max     0.003550117 RMS     0.000873673
 Search for a local minimum.
 Step number   3 out of a maximum of  100
 All quantities printed in internal units (Hartrees-Bohrs-Radians)
 Mixed Optimization -- En-DIIS/RFO-DIIS
 Update second derivatives using D2CorX and points    1    2    3
 DE= -1.11D-03 DEPred=-8.32D-04 R= 1.33D+00
 TightC=F SS=  1.41D+00  RLast= 2.11D-01 DXNew= 8.4853D-01 6.3435D-01
 Trust test= 1.33D+00 RLast= 2.11D-01 DXMaxT set to 6.34D-01
 ITU=  1  1  0
 Use linear search instead of GDIIS.
     Eigenvalues ---    0.00229   0.00237   0.01475   0.01724   0.02243
     Eigenvalues ---    0.02277   0.02300   0.02321   0.02391   0.02446
     Eigenvalues ---    0.02647   0.03504   0.05845   0.06246   0.06498
     Eigenvalues ---    0.08827   0.09353   0.14413   0.15959   0.15996
     Eigenvalues ---    0.15999   0.16000   0.16000   0.16000   0.16126
     Eigenvalues ---    0.16628   0.18600   0.19158   0.23381   0.23402
     Eigenvalues ---    0.23677   0.24137   0.24874   0.25008   0.25337
     Eigenvalues ---    0.35572   0.35671   0.35787   0.35885   0.36024
     Eigenvalues ---    0.39707   0.43680   0.46027   0.46619   0.46753
     Eigenvalues ---    0.48263   0.50140   0.60717   0.61377   0.66571
     Eigenvalues ---    0.68610
 RFO step:  Lambda=-3.80913314D-04 EMin= 2.29339376D-03
 Quartic linear search produced a step of  0.57751.
 Iteration  1 RMS(Cart)=  0.02372990 RMS(Int)=  0.00080033
 Iteration  2 RMS(Cart)=  0.00080777 RMS(Int)=  0.00002203
 Iteration  3 RMS(Cart)=  0.00000099 RMS(Int)=  0.00002202
 Variable       Old X    -DE/DX   Delta X   Delta X   Delta X     New X
                                 (Linear)    (Quad)   (Total)
    R1        2.92021   0.00315   0.00938   0.00209   0.01147   2.93168
    R2        1.93724  -0.00082   0.00661  -0.00296   0.00365   1.94088
    R3        3.41675  -0.00089  -0.00155  -0.00585  -0.00740   3.40936
    R4        3.39621   0.00042  -0.00908   0.00154  -0.00753   3.38867
    R5        2.91275   0.00355   0.00708   0.00402   0.01109   2.92384
    R6        2.62673  -0.00095  -0.00001  -0.00062  -0.00063   2.62610
    R7        2.63934  -0.00176   0.00119  -0.00311  -0.00192   2.63742
    R8        2.63055  -0.00075   0.00142  -0.00152  -0.00010   2.63045
    R9        2.07140  -0.00151   0.00177  -0.00325  -0.00148   2.06991
   R10        3.55035   0.00058  -0.00151   0.00056  -0.00096   3.54939
   R11        2.64582  -0.00116   0.00171  -0.00236  -0.00065   2.64517
   R12        2.51220  -0.00187   0.00046  -0.00168  -0.00122   2.51098
   R13        2.07419  -0.00157   0.00184  -0.00334  -0.00151   2.07269
   R14        2.51620  -0.00182   0.00041  -0.00205  -0.00164   2.51456
   R15        2.07126  -0.00162   0.00164  -0.00322  -0.00158   2.06968
   R16        2.07722  -0.00168   0.00218  -0.00430  -0.00212   2.07510
   R17        2.07702  -0.00156   0.00205  -0.00329  -0.00124   2.07578
   R18        2.07991  -0.00161   0.00267  -0.00401  -0.00134   2.07857
   R19        1.93318  -0.00075   0.00566  -0.00233   0.00333   1.93651
[...]
                 (A) (A) (A) (A) (A) (A)
 The electronic state is 1-A.
 Alpha  occ. eigenvalues -- -483.27999 -89.18718 -62.67976 -56.45345 -56.44996
 Alpha  occ. eigenvalues --  -56.44984 -14.40890 -14.35984 -14.35943 -10.31179
 Alpha  occ. eigenvalues --  -10.29069 -10.28615 -10.28111 -10.27837 -10.26480
 Alpha  occ. eigenvalues --   -8.79886  -8.14314  -6.60994  -6.59877  -6.59838
 Alpha  occ. eigenvalues --   -6.07948  -6.07821  -6.07749  -2.69569  -2.69238
 Alpha  occ. eigenvalues --   -2.69208  -2.68294  -2.68293  -1.01940  -0.99979
 Alpha  occ. eigenvalues --   -0.88569  -0.87410  -0.84240  -0.78522  -0.77935
 Alpha  occ. eigenvalues --   -0.69714  -0.67195  -0.62252  -0.56476  -0.55011
 Alpha  occ. eigenvalues --   -0.53379  -0.49695  -0.48392  -0.46255  -0.45326
 Alpha  occ. eigenvalues --   -0.45035  -0.44351  -0.44078  -0.40578  -0.37156
 Alpha  occ. eigenvalues --   -0.36545  -0.32851  -0.32593  -0.31229  -0.29101
 Alpha  occ. eigenvalues --   -0.28228  -0.27852  -0.26192
 Alpha virt. eigenvalues --   -0.06150  -0.05043  -0.00800   0.03212   0.05663
 Alpha virt. eigenvalues --    0.06320   0.06767   0.07432   0.07840   0.08346
 Alpha virt. eigenvalues --    0.09414   0.10481   0.10897   0.11506   0.12741
 Alpha virt. eigenvalues --    0.13825   0.14008   0.15057   0.18273   0.19256
 Alpha virt. eigenvalues --    0.19950   0.21335   0.21515   0.21852   0.22722
 Alpha virt. eigenvalues --    0.23443   0.23962   0.24701   0.25286   0.27014
 Alpha virt. eigenvalues --    0.27464   0.28676   0.29556   0.30180   0.31314
 Alpha virt. eigenvalues --    0.32063   0.32582   0.32909   0.34079   0.34382
 Alpha virt. eigenvalues --    0.35789   0.37545   0.37558   0.38232   0.39248
 Alpha virt. eigenvalues --    0.40430   0.41044   0.42266   0.43160   0.43470
 Alpha virt. eigenvalues --    0.44605   0.44944   0.46332   0.47046   0.47697
 Alpha virt. eigenvalues --    0.48206   0.49568   0.50489   0.50856   0.52200
 Alpha virt. eigenvalues --    0.52386   0.53974   0.54509   0.56293   0.57490
 Alpha virt. eigenvalues --    0.58167   0.59093   0.59788   0.62091   0.63357
 Alpha virt. eigenvalues --    0.64881   0.65217   0.66647   0.68027   0.68480
 Alpha virt. eigenvalues --    0.69933   0.71044   0.72500   0.73377   0.75130
 Alpha virt. eigenvalues --    0.75599   0.76079   0.76847   0.79009   0.79941
 Alpha virt. eigenvalues --    0.81628   0.82998   0.83870   0.85343   0.89247
 Alpha virt. eigenvalues --    0.91030   0.92675   0.93643   0.94350   0.95297
 Alpha virt. eigenvalues --    0.99908   1.01640   1.04131   1.05743   1.07238
 Alpha virt. eigenvalues --    1.07302   1.09037   1.10138   1.11182   1.13297
 Alpha virt. eigenvalues --    1.15293   1.17408   1.18116   1.19330   1.21630
 Alpha virt. eigenvalues --    1.22286   1.23619   1.24407   1.28009   1.31366
 Alpha virt. eigenvalues --    1.33238   1.34053   1.35077   1.35515   1.36118
 Alpha virt. eigenvalues --    1.37324   1.38332   1.40225   1.41442   1.43504
 Alpha virt. eigenvalues --    1.45767   1.47213   1.47558   1.48336   1.48942
 Alpha virt. eigenvalues --    1.50420   1.50993   1.51904   1.52599   1.53049
 Alpha virt. eigenvalues --    1.54139   1.54227   1.57141   1.57233   1.58493
 Alpha virt. eigenvalues --    1.59393   1.61621   1.61891   1.63305   1.64190
 Alpha virt. eigenvalues --    1.64935   1.65568   1.68028   1.68500   1.69245
 Alpha virt. eigenvalues --    1.70007   1.71110   1.71378   1.72124   1.73854
 Alpha virt. eigenvalues --    1.76859   1.77914   1.79755   1.81556   1.83791
 Alpha virt. eigenvalues --    1.84838   1.86226   1.89128   1.89874   1.92535
 Alpha virt. eigenvalues --    1.93194   1.93391   1.96493   1.98178   1.98431
 Alpha virt. eigenvalues --    1.99706   2.01301   2.01752   2.03040   2.03778
 Alpha virt. eigenvalues --    2.04853   2.07700   2.09071   2.10496   2.12031
 Alpha virt. eigenvalues --    2.13701   2.14637   2.16484   2.18020   2.20004
 Alpha virt. eigenvalues --    2.22369   2.24232   2.24675   2.28411   2.30477
 Alpha virt. eigenvalues --    2.31823   2.33455   2.35337   2.39093   2.40030
 Alpha virt. eigenvalues --    2.41440   2.44196   2.45727   2.48627   2.49608
 Alpha virt. eigenvalues --    2.53229   2.53385   2.54087   2.54919   2.56436
 Alpha virt. eigenvalues --    2.59087   2.61529   2.63395   2.65523   2.65846
 Alpha virt. eigenvalues --    2.66869   2.68213   2.70728   2.72224   2.72835
 Alpha virt. eigenvalues --    2.74263   2.75925   2.77474   2.79774   2.81182
 Alpha virt. eigenvalues --    2.82249   2.84685   2.84926   2.86190   2.91414
 Alpha virt. eigenvalues --    2.91895   2.93522   2.94866   2.96346   2.98961
 Alpha virt. eigenvalues --    2.99646   3.04361   3.05324   3.07645   3.09059
 Alpha virt. eigenvalues --    3.10545   3.12106   3.13328   3.13641   3.15017
 Alpha virt. eigenvalues --    3.16834   3.20235   3.21991   3.22664   3.25147
 Alpha virt. eigenvalues --    3.25606   3.28984   3.29713   3.30983   3.33478
 Alpha virt. eigenvalues --    3.35834   3.36576   3.36814   3.37686   3.40608
 Alpha virt. eigenvalues --    3.43027   3.43232   3.46723   3.47327   3.48165
 Alpha virt. eigenvalues --    3.49014   3.50427   3.53544   3.55238   3.57156
 Alpha virt. eigenvalues --    3.64231   3.68158   3.71121   3.72471   3.75452
 Alpha virt. eigenvalues --    3.76998   3.80619   3.82609   3.83762   3.87266
 Alpha virt. eigenvalues --    3.88038   3.93337   4.01098   4.01444   4.02502
 Alpha virt. eigenvalues --    4.03966   4.06307   4.09186   4.10143   4.11141
 Alpha virt. eigenvalues --    4.13399   4.15570   4.16997   4.17718   4.19251
 Alpha virt. eigenvalues --    4.21376   4.23971   4.27015   4.29753   4.30167
 Alpha virt. eigenvalues --    4.31542   4.31715   4.33191   4.37543   4.39198
 Alpha virt. eigenvalues --    4.39665   4.42961   4.47017   4.47315   4.48906
 Alpha virt. eigenvalues --    4.51517   4.53187   4.59580   4.63368   4.64133
 Alpha virt. eigenvalues --    4.67168   4.70526   4.72770   4.73517   4.77588
 Alpha virt. eigenvalues --    4.85734   4.89427   4.90287   4.91431   4.93042
 Alpha virt. eigenvalues --    4.99155   5.03178   5.06839   5.07845   5.10350
 Alpha virt. eigenvalues --    5.12819   5.16172   5.17385   5.21889   5.22435
 Alpha virt. eigenvalues --    5.24250   5.25187   5.29062   5.40426   5.54132
 Alpha virt. eigenvalues --    5.57427   5.58837   5.63792   5.76809   5.99665
 Alpha virt. eigenvalues --    7.79091   9.44440   9.50503   9.62480  21.67211
 Alpha virt. eigenvalues --   22.30327  22.40736  22.74062  22.80887  22.86637
 Alpha virt. eigenvalues --   23.06230  31.88339  31.90919  32.48339
          Condensed to atoms (all electrons):
               1          2          3          4          5          6
     1  N    6.912507   0.523974  -0.083041   0.008052  -0.000674   0.000066
     2  S    0.523974  14.116760   0.239951  -0.054457   0.006350  -0.000248
     3  C   -0.083041   0.239951   5.304872   0.255778   0.022681   0.014704
     4  C    0.008052  -0.054457   0.255778   5.564600   0.322649  -0.086963
     5  C   -0.000674   0.006350   0.022681   0.322649   4.875019   0.326975
     6  Br   0.000066  -0.000248   0.014704  -0.086963   0.326975  34.843867
     7  C   -0.000175   0.000198  -0.039180  -0.006654   0.450948  -0.052047
     8  N   -0.000278   0.004248  -0.021638  -0.114346  -0.003559   0.008023
     9  C    0.008734   0.001282   0.449340  -0.049748  -0.039845   0.001268
    10  C   -0.085379   0.286677  -0.078691   0.009283  -0.002416   0.000042
    11  N   -0.074163   0.503417  -0.114761   0.022216  -0.001560   0.000005
    12  H    0.313867  -0.024237   0.000246  -0.002734  -0.000635   0.000012
    13  H    0.019622  -0.002565  -0.066868   0.456048  -0.061507  -0.003791
    14  H    0.000001   0.000081   0.001716   0.000975  -0.072071   0.001443
    15  H    0.000501   0.000722  -0.054116   0.000397   0.001730   0.000069
    16  H    0.005450  -0.021501   0.006107   0.002834   0.000229   0.000003
    17  H    0.002991  -0.012177   0.010084  -0.010190   0.000776  -0.000009
    18  H    0.005058  -0.013595   0.007607  -0.000504   0.000079  -0.000001
    19  H   -0.000916  -0.015182   0.015136  -0.001506   0.000123  -0.000001
               7          8          9         10         11         12
     1  N   -0.000175  -0.000278   0.008734  -0.085379  -0.074163   0.313867
     2  S    0.000198   0.004248   0.001282   0.286677   0.503417  -0.024237
     3  C   -0.039180  -0.021638   0.449340  -0.078691  -0.114761   0.000246
     4  C   -0.006654  -0.114346  -0.049748   0.009283   0.022216  -0.002734
     5  C    0.450948  -0.003559  -0.039845  -0.002416  -0.001560  -0.000635
     6  Br  -0.052047   0.008023   0.001268   0.000042   0.000005   0.000012
     7  C    4.882307   0.510220  -0.097500   0.000289   0.000403   0.000011
     8  N    0.510220   6.345423   0.505547  -0.000722  -0.000521  -0.000017
     9  C   -0.097500   0.505547   4.892685   0.004213   0.003782   0.001344
    10  C    0.000289  -0.000722   0.004213   5.143328  -0.048641   0.012843
    11  N    0.000403  -0.000521   0.003782  -0.048641   6.922235  -0.002059
    12  H    0.000011  -0.000017   0.001344   0.012843  -0.002059   0.483664
    13  H    0.006656  -0.002318   0.001345  -0.001701   0.002056  -0.002615
    14  H    0.435722  -0.031827   0.002211  -0.000001  -0.000003   0.000000
    15  H    0.001885  -0.026772   0.421367   0.001217   0.015276   0.000007
    16  H   -0.000016   0.000159  -0.005179   0.377093   0.002485  -0.000566
    17  H   -0.000032   0.000011   0.001582   0.361445   0.004661  -0.000786
    18  H   -0.000008   0.000020  -0.000292   0.372887   0.000645  -0.000608
    19  H   -0.000020   0.000059  -0.001334  -0.009457   0.309519  -0.000230
              13         14         15         16         17         18
     1  N    0.019622   0.000001   0.000501   0.005450   0.002991   0.005058
     2  S   -0.002565   0.000081   0.000722  -0.021501  -0.012177  -0.013595
     3  C   -0.066868   0.001716  -0.054116   0.006107   0.010084   0.007607
     4  C    0.456048   0.000975   0.000397   0.002834  -0.010190  -0.000504
     5  C   -0.061507  -0.072071   0.001730   0.000229   0.000776   0.000079
     6  Br  -0.003791   0.001443   0.000069   0.000003  -0.000009  -0.000001
     7  C    0.006656   0.435722   0.001885  -0.000016  -0.000032  -0.000008
     8  N   -0.002318  -0.031827  -0.026772   0.000159   0.000011   0.000020
     9  C    0.001345   0.002211   0.421367  -0.005179   0.001582  -0.000292
    10  C   -0.001701  -0.000001   0.001217   0.377093   0.361445   0.372887
    11  N    0.002056  -0.000003   0.015276   0.002485   0.004661   0.000645
    12  H   -0.002615   0.000000   0.000007  -0.000566  -0.000786  -0.000608
    13  H    0.472290  -0.000158  -0.000283   0.000236  -0.000324  -0.000108
    14  H   -0.000158   0.513853  -0.000186  -0.000001   0.000000   0.000000
    15  H   -0.000283  -0.000186   0.468122   0.000461  -0.000150  -0.000061
    16  H    0.000236  -0.000001   0.000461   0.506511  -0.017069  -0.013521
    17  H   -0.000324   0.000000  -0.000150  -0.017069   0.511901  -0.010398
    18  H   -0.000108   0.000000  -0.000061  -0.013521  -0.010398   0.496232
    19  H   -0.000075   0.000000  -0.001016   0.000074   0.000194   0.001993
              19
     1  N   -0.000916
     2  S   -0.015182
     3  C    0.015136
     4  C   -0.001506
     5  C    0.000123
     6  Br  -0.000001
     7  C   -0.000020
     8  N    0.000059
     9  C   -0.001334
    10  C   -0.009457
    11  N    0.309519
    12  H   -0.000230
    13  H   -0.000075
    14  H    0.000000
    15  H   -0.001016
    16  H    0.000074
    17  H    0.000194
    18  H    0.001993
    19  H    0.483454
 Mulliken charges:
               1
     1  N   -0.556197
     2  S    0.460300
     3  C    0.130074
     4  C   -0.315731
     5  C    0.174709
     6  Br  -0.053417
     7  C   -0.093007
     8  N   -0.171714
     9  C   -0.100800
    10  C   -0.342308
    11  N   -0.544995
    12  H    0.222493
    13  H    0.184059
    14  H    0.148244
    15  H    0.170831
    16  H    0.156212
    17  H    0.157491
    18  H    0.154574
    19  H    0.219183
 Sum of Mulliken charges =  -0.00000
 Mulliken charges with hydrogens summed into heavy atoms:
               1
     1  N   -0.333704
     2  S    0.460300
     3  C    0.130074
     4  C   -0.131672
     5  C    0.174709
     6  Br  -0.053417
     7  C    0.055237
     8  N   -0.171714
     9  C    0.070031
    10  C    0.125967
    11  N   -0.325812
 Electronic spatial extent (au):  <R**2>=           3326.5898
 Charge=             -0.0000 electrons
 Dipole moment (field-independent basis, Debye):
    X=              0.3387    Y=             -0.8854    Z=              1.6073  Tot=              1.8660
 Quadrupole moment (field-independent basis, Debye-Ang):
   XX=            -79.7619   YY=            -94.2780   ZZ=            -81.5009
   XY=             -1.3690   XZ=              5.0047   YZ=              0.3120
 Traceless Quadrupole moment (field-independent basis, Debye-Ang):
   XX=              5.4184   YY=             -9.0977   ZZ=              3.6793
   XY=             -1.3690   XZ=              5.0047   YZ=              0.3120
 Octapole moment (field-independent basis, Debye-Ang**2):
  XXX=            -59.6342  YYY=            -27.5707  ZZZ=             -1.4760  XYY=            -47.0591
  XXY=             -9.6769  XXZ=             13.2730  XZZ=            -15.5369  YZZ=            -16.1937
  YYZ=              2.6922  XYZ=              0.5174
 Hexadecapole moment (field-independent basis, Debye-Ang**3):
 XXXX=          -2607.8148 YYYY=           -914.6006 ZZZZ=           -256.9426 XXXY=             23.3268
 XXXZ=             25.2318 YYYX=             95.7124 YYYZ=             -4.5141 ZZZX=              0.6633
 ZZZY=             13.1272 XXYY=           -632.9113 XXZZ=           -498.5766 YYZZ=           -171.9240
 XXYZ=              0.1960 YYXZ=             11.4414 ZZXY=             -2.1230
 N-N= 9.761443598662D+02 E-N=-9.974054843633D+03  KE= 3.363283554715D+03
 Breneman (CHELPG) radii used.
 Read replacement radii for each type of atom:
 Rad(35) =   1.850000000000D+00
 Atom Element Radius
    1     7    1.70
    2    16    2.00
    3     6    1.50
    4     6    1.50
    5     6    1.50
    6    35    1.85
    7     6    1.50
    8     7    1.70
    9     6    1.50
   10     6    1.50
   11     7    1.70
   12     1    1.45
   13     1    1.45
   14     1    1.45
   15     1    1.45
   16     1    1.45
   17     1    1.45
   18     1    1.45
   19     1    1.45
 Generate Potential Derived Charges using the Breneman model, NDens= 1.
 Grid spacing= 0.300 Box extension= 2.800
 NStep X,Y,Z=   45     35     33   Total possible points=       51975
 Number of Points to Fit=   13212

 **********************************************************************

            Electrostatic Properties Using The SCF Density.

 **********************************************************************

       Atomic Center    1 is at   2.423746 -1.843778 -0.728145
       Atomic Center    2 is at   2.557039 -0.412924 -0.148497
       Atomic Center    3 is at   0.979294  0.454185 -0.054350
       Atomic Center    4 is at  -0.170039 -0.326676 -0.066274
       Atomic Center    5 is at  -1.389863  0.338671  0.000122
       Atomic Center    6 is at  -3.009226 -0.616149 -0.010632
       Atomic Center    7 is at  -1.400787  1.736007  0.068026
       Atomic Center    8 is at  -0.290542  2.464240  0.064066
       Atomic Center    9 is at   0.884719  1.844948  0.001164
       Atomic Center   10 is at   2.836672 -0.788941  1.586959
       Atomic Center   11 is at   3.461641  0.712735 -0.701298
       Atomic Center   12 is at   2.338392 -1.756998 -1.745728
       Atomic Center   13 is at  -0.091693 -1.415172 -0.143436
       Atomic Center   14 is at  -2.354809  2.271671  0.121448
       Atomic Center   15 is at   1.794523  2.451290 -0.024467
       Atomic Center   16 is at   2.880459  0.162102  2.131570
       Atomic Center   17 is at   2.037357 -1.439840  1.961425
       Atomic Center   18 is at   3.800392 -1.314314  1.625552
       Atomic Center   19 is at   4.401784  0.331719 -0.834520
   13212 points will be used for fitting atomic charges
 Fitting point charges to electrostatic potential
 Charges from ESP fit, RMS=   0.00422 RRMS=   0.28703:
 ESP charges:
               1
     1  N   -0.737303
     2  S    0.684206
     3  C   -0.160768
     4  C    0.147766
     5  C   -0.208933
     6  Br  -0.043541
     7  C    0.423336
     8  N   -0.585394
     9  C    0.352093
    10  C   -0.275886
    11  N   -0.779768
    12  H    0.319207
    13  H    0.076686
    14  H    0.011167
    15  H    0.072370
    16  H    0.091069
    17  H    0.114121
    18  H    0.148672
    19  H    0.350901
 Sum of ESP charges =   0.00000
 ESP charges with hydrogens summed into heavy atoms:
               1
     1  N   -0.418096
     2  S    0.684206
     3  C   -0.160768
     4  C    0.224452
     5  C   -0.208933
     6  Br  -0.043541
     7  C    0.434503
     8  N   -0.585394
     9  C    0.424463
    10  C    0.077975
    11  N   -0.428867
 Charge=   0.00000 Dipole=     0.2664    -0.8628     1.6019 Tot=     1.8389
 -----------------------------------------------------------------

              Electrostatic Properties (Atomic Units)

 -----------------------------------------------------------------
    Center     Electric         -------- Electric Field --------
               Potential          X             Y             Z
 -----------------------------------------------------------------
    1 Atom    -18.413618
    2 Atom    -59.060851
    3 Atom    -14.712363
    4 Atom    -14.715059
    5 Atom    -14.679647
    6 Atom   -175.785116
    7 Atom    -14.702223
    8 Atom    -18.362507
    9 Atom    -14.706819
   10 Atom    -14.724781
   11 Atom    -18.413485
   12 Atom     -1.039815
   13 Atom     -1.058634
   14 Atom     -1.076594
   15 Atom     -1.085201
   16 Atom     -1.067147
   17 Atom     -1.065937
   18 Atom     -1.064140
   19 Atom     -1.037070
 -----------------------------------------------------------------
 Unable to Open any file for archive entry.
 1\1\GINC-NOTCH128\SP\RPBE1PBE\def2TZVP\C6H8Br1N3S1\U1414944\24-Feb-202
 5\0\\#N Guess=Read Geom=Check Integral(Ultrafine) Density Pop=(ChelpG,
 ReadRadii) NMR pbe1pbe EmpiricalDispersion=GD3BJ def2TZVP\\SDI2979_3\\
 0,1\N,0,-2.6042529348,1.8817717708,-0.6323643083\S,0,-2.7436856821,0.4
 318678974,-0.1037426853\C,0,-1.1742864486,-0.454571831,-0.0686543529\C
 ,0,-0.016737343,0.3141436735,-0.0713842797\C,0,1.1965836006,-0.3659148
 604,-0.0504566887\Br,0,2.8260141371,0.571676829,-0.0536292499\C,0,1.19
 31670527,-1.7648464441,-0.0343832408\N,0,0.075015533,-2.4807930493,-0.
 0462492232\C,0,-1.0942031272,-1.8473495708,-0.0661474333\C,0,-2.990128
 2113,0.7461399623,1.6489373418\N,0,-3.6697978538,-0.6629947021,-0.6821
 8329\H,0,-2.536864662,1.8319173833,-1.6537670364\H,0,-0.0843030175,1.4
 055128443,-0.1069570977\H,0,2.1419583708,-2.3120607063,-0.0170876315\H
 ,0,-2.0109654782,-2.4427856893,-0.0985929551\H,0,-3.0353444677,-0.2239
 446817,2.1587350963\H,0,-2.1775148817,1.3743119434,2.0334619637\H,0,-3
 .9471931691,1.2797585916,1.7233671417\H,0,-4.6077573238,-0.2674982893,
 -0.7851589992\\Version=ES64L-G16RevC.01\State=1-A\HF=-3369.2358436\RMS
 D=4.435e-09\Dipole=-0.1187989,0.3259978,0.6469564\Quadrupole=3.8799287
 ,-6.7141112,2.8341826,-1.0004343,-3.7820109,-0.5272306\PG=C01 [X(C6H8B
 r1N3S1)]\\@
 The archive entry for this job was punched.


 IT IS DOUBTED WHETHER A MAN EVER BRINGS HIS FACULTIES TO BEAR WITH THEIR FULL FORCE
 ON A SUBJECT UNTIL HE WRITES UPON IT.

                          -- CICERO
 Job cpu time:       0 days  0 hours 24 minutes 11.1 seconds.
 Elapsed time:       0 days  0 hours  1 minutes 37.9 seconds.
 File lengths (MBytes):  RWF=    113 Int=      0 D2E=      0 Chk=     17 Scr=      2
 Normal termination of Gaussian 16 at Mon Feb 24 19:57:24 2025.
