 Entering Gaussian System, Link 0=g16
 Input=SDI0241_13.com
 Output=SDI0241_13.log
 Initial command:
 /uufs/chpc.utah.edu/sys/installdir/gaussian16/C01/AVX/g16/l1.exe "/scratch/general/vast/u1414944/4689593-notchpeak.peaks/Gau-869051.inp" -scrdir="/scratch/general/vast/u1414944/4689593-notchpeak.peaks/"
 Entering Link 1 = /uufs/chpc.utah.edu/sys/installdir/gaussian16/C01/AVX/g16/l1.exe PID=    869052.
  
 Copyright (c) 1988-2019, Gaussian, Inc.  All Rights Reserved.
  
 This is part of the Gaussian(R) 16 program.  It is based on
 the Gaussian(R) 09 system (copyright 2009, Gaussian, Inc.),
 the Gaussian(R) 03 system (copyright 2003, Gaussian, Inc.),
 the Gaussian(R) 98 system (copyright 1998, Gaussian, Inc.),
 the Gaussian(R) 94 system (copyright 1995, Gaussian, Inc.),
 the Gaussian 92(TM) system (copyright 1992, Gaussian, Inc.),
 the Gaussian 90(TM) system (copyright 1990, Gaussian, Inc.),
 the Gaussian 88(TM) system (copyright 1988, Gaussian, Inc.),
 the Gaussian 86(TM) system (copyright 1986, Carnegie Mellon
 University), and the Gaussian 82(TM) system (copyright 1983,
 Carnegie Mellon University). Gaussian is a federally registered
 trademark of Gaussian, Inc.
  
 This software contains proprietary and confidential information,
 including trade secrets, belonging to Gaussian, Inc.
  
 This software is provided under written license and may be
 used, copied, transmitted, or stored only in accord with that
 written license.
  
 The following legend is applicable only to US Government
 contracts under FAR:
  
                    RESTRICTED RIGHTS LEGEND
  
 Use, reproduction and disclosure by the US Government is
 subject to restrictions as set forth in subparagraphs (a)
 and (c) of the Commercial Computer Software - Restricted
 Rights clause in FAR 52.227-19.
  
 Gaussian, Inc.
 340 Quinnipiac St., Bldg. 40, Wallingford CT 06492
  
  
 ---------------------------------------------------------------
 Warning -- This program may not be used in any manner that
 competes with the business of Gaussian, Inc. or will provide
 assistance to any competitor of Gaussian, Inc.  The licensee
 of this program is prohibited from giving any competitor of
 Gaussian, Inc. access to this program.  By using this program,
 the user acknowledges that Gaussian, Inc. is engaged in the
 business of creating and licensing software in the field of
 computational chemistry and represents and warrants to the
 licensee that it is not a competitor of Gaussian, Inc. and that
 it will not use this program in any manner prohibited above.
 ---------------------------------------------------------------
  

 Cite this work as:
 Gaussian 16, Revision C.01,
 M. J. Frisch, G. W. Trucks, H. B. Schlegel, G. E. Scuseria, 
 M. A. Robb, J. R. Cheeseman, G. Scalmani, V. Barone, 
 G. A. Petersson, H. Nakatsuji, X. Li, M. Caricato, A. V. Marenich, 
 J. Bloino, B. G. Janesko, R. Gomperts, B. Mennucci, H. P. Hratchian, 
 J. V. Ortiz, A. F. Izmaylov, J. L. Sonnenberg, D. Williams-Young, 
 F. Ding, F. Lipparini, F. Egidi, J. Goings, B. Peng, A. Petrone, 
 T. Henderson, D. Ranasinghe, V. G. Zakrzewski, J. Gao, N. Rega, 
 G. Zheng, W. Liang, M. Hada, M. Ehara, K. Toyota, R. Fukuda, 
 J. Hasegawa, M. Ishida, T. Nakajima, Y. Honda, O. Kitao, H. Nakai, 
 T. Vreven, K. Throssell, J. A. Montgomery, Jr., J. E. Peralta, 
 F. Ogliaro, M. J. Bearpark, J. J. Heyd, E. N. Brothers, K. N. Kudin, 
 V. N. Staroverov, T. A. Keith, R. Kobayashi, J. Normand, 
 K. Raghavachari, A. P. Rendell, J. C. Burant, S. S. Iyengar, 
 J. Tomasi, M. Cossi, J. M. Millam, M. Klene, C. Adamo, R. Cammi, 
 J. W. Ochterski, R. L. Martin, K. Morokuma, O. Farkas, 
 J. B. Foresman, and D. J. Fox, Gaussian, Inc., Wallingford CT, 2019.
 
 ******************************************
 Gaussian 16:  ES64L-G16RevC.01  3-Jul-2019
                 6-Jun-2025 
 ******************************************
 %NProcShared=16
 Will use up to   16 processors via shared memory.
 %Mem=40GB
 %chk=SDI0241_13.chk
 ----------------------------------------------------------------------
 #N OPT FREQ=NORAMAN Integral(Ultrafine) pbe1pbe EmpiricalDispersion=GD
 3BJ def2SVP
 ----------------------------------------------------------------------
 1/18=20,19=15,26=4,38=1/1,3;
 2/9=110,12=2,17=6,18=5,40=1/2;
 3/5=43,7=101,11=2,25=1,30=1,71=1,74=-13,75=-5,124=41/1,2,3;
 4//1;
 5/5=2,38=5/2;
 6/7=2,8=2,9=2,10=2,28=1/1;
 7//1,2,3,16;
 1/18=20,19=15,26=4/3(2);
 2/9=110/2;
 99//99;
 2/9=110/2;
 3/5=43,7=101,11=2,25=1,30=1,71=1,74=-13,75=-5,124=41/1,2,3;
 4/5=5,16=3,69=1/1;
 5/5=2,38=5/2;
 7//1,2,3,16;
 1/18=20,19=15,26=4/3(-5);
 2/9=110/2;
 6/7=2,8=2,9=2,10=2,19=2,28=1/1;
 99/9=1/99;
 ----------
 SDI0241_13
 ----------
 Symbolic Z-matrix:
 Charge =  0 Multiplicity = 1
 N                     3.04774   0.19978   0.81938 
 S                     1.5725    0.03031   0.43544 
 C                     0.74768   1.5504   -0.10402 
 C                    -0.3932    1.96205   0.55745 
 C                    -1.02086   3.1325    0.16593 
 C                    -0.50011   3.88275  -0.8767 
 C                     0.6522    3.46952  -1.52605 
 C                     1.28171   2.2988   -1.1371 
 C                     1.4244   -0.98822  -1.12949 
 C                    -0.01011  -1.0815   -1.61588 
 C                    -0.91798  -1.7159   -0.59695 
 C                    -1.99443  -1.01528  -0.07342 
 C                    -2.82082  -1.5958    0.87177 
 C                    -2.58445  -2.88947   1.30077 
 C                    -1.52329  -3.60289   0.77099 
 C                    -0.69931  -3.02077  -0.17401 
 N                     0.69108  -0.4751    1.56763 
 H                     3.64946   0.51023   0.07429 
 H                    -0.75877   1.3477    1.36441 
 H                    -1.91516   3.46072   0.67438 
 H                    -0.98956   4.79566  -1.18229 
 H                     1.06145   4.05902  -2.33308 
 H                     2.18569   1.97496  -1.63258 
 H                     1.83323  -1.96089  -0.86489 
 H                     2.06942  -0.51556  -1.86762 
 H                    -0.02725  -1.67529  -2.53691 
 H                    -0.37418  -0.07996  -1.85755 
 H                    -2.18435  -0.00425  -0.40528 
 H                    -3.65068  -1.03493   1.27658 
 H                    -3.2252   -3.342     2.04323 
 H                    -1.33674  -4.61654   1.09537 
 H                     0.12259  -3.58894  -0.58718 
 H                     1.17057  -1.07021   2.22008 
 

 GradGradGradGradGradGradGradGradGradGradGradGradGradGradGradGradGradGrad
 Berny optimization.
 Initialization pass.
                           ----------------------------
                           !    Initial Parameters    !
                           ! (Angstroms and Degrees)  !
 --------------------------                            --------------------------
 ! Name  Definition              Value          Derivative Info.                !
 --------------------------------------------------------------------------------
 ! R1    R(1,2)                  1.5338         estimate D2E/DX2                !
 ! R2    R(1,18)                 1.0068         estimate D2E/DX2                !
 ! R3    R(2,3)                  1.8116         estimate D2E/DX2                !
 ! R4    R(2,9)                  1.8731         estimate D2E/DX2                !
 ! R5    R(2,17)                 1.5212         estimate D2E/DX2                !
 ! R6    R(3,4)                  1.3815         estimate D2E/DX2                !
 ! R7    R(3,8)                  1.383          estimate D2E/DX2                !
 ! R8    R(4,5)                  1.3846         estimate D2E/DX2                !
 ! R9    R(4,19)                 1.0781         estimate D2E/DX2                !
 ! R10   R(5,6)                  1.386          estimate D2E/DX2                !
 ! R11   R(5,20)                 1.0798         estimate D2E/DX2                !
 ! R12   R(6,7)                  1.3857         estimate D2E/DX2                !
 ! R13   R(6,21)                 1.08           estimate D2E/DX2                !
 ! R14   R(7,8)                  1.385          estimate D2E/DX2                !
 ! R15   R(7,22)                 1.0799         estimate D2E/DX2                !
 ! R16   R(8,23)                 1.0805         estimate D2E/DX2                !
 ! R17   R(9,10)                 1.5176         estimate D2E/DX2                !
 ! R18   R(9,24)                 1.0878         estimate D2E/DX2                !
 ! R19   R(9,25)                 1.0883         estimate D2E/DX2                !
 ! R20   R(10,11)                1.505          estimate D2E/DX2                !
 ! R21   R(10,26)                1.096          estimate D2E/DX2                !
 ! R22   R(10,27)                1.0927         estimate D2E/DX2                !
 ! R23   R(11,12)                1.387          estimate D2E/DX2                !
 ! R24   R(11,16)                1.389          estimate D2E/DX2                !
 ! R25   R(12,13)                1.3832         estimate D2E/DX2                !
 ! R26   R(12,28)                1.0809         estimate D2E/DX2                !
 ! R27   R(13,14)                1.3833         estimate D2E/DX2                !
 ! R28   R(13,29)                1.0803         estimate D2E/DX2                !
 ! R29   R(14,15)                1.3841         estimate D2E/DX2                !
 ! R30   R(14,30)                1.0801         estimate D2E/DX2                !
 ! R31   R(15,16)                1.3823         estimate D2E/DX2                !
 ! R32   R(15,31)                1.0805         estimate D2E/DX2                !
 ! R33   R(16,32)                1.0812         estimate D2E/DX2                !
 ! R34   R(17,33)                1.0049         estimate D2E/DX2                !
 ! A1    A(2,1,18)             115.0667         estimate D2E/DX2                !
 ! A2    A(1,2,3)              114.8187         estimate D2E/DX2                !
 ! A3    A(1,2,9)              110.1987         estimate D2E/DX2                !
 ! A4    A(1,2,17)             114.0606         estimate D2E/DX2                !
 ! A5    A(3,2,9)               99.874          estimate D2E/DX2                !
 ! A6    A(3,2,17)             103.6853         estimate D2E/DX2                !
 ! A7    A(9,2,17)             113.287          estimate D2E/DX2                !
 ! A8    A(2,3,4)              118.9098         estimate D2E/DX2                !
 ! A9    A(2,3,8)              120.0463         estimate D2E/DX2                !
 ! A10   A(4,3,8)              121.0181         estimate D2E/DX2                !
 ! A11   A(3,4,5)              119.3962         estimate D2E/DX2                !
 ! A12   A(3,4,19)             117.9444         estimate D2E/DX2                !
 ! A13   A(5,4,19)             122.6593         estimate D2E/DX2                !
 ! A14   A(4,5,6)              119.9961         estimate D2E/DX2                !
 ! A15   A(4,5,20)             119.949          estimate D2E/DX2                !
 ! A16   A(6,5,20)             120.0548         estimate D2E/DX2                !
 ! A17   A(5,6,7)              120.2326         estimate D2E/DX2                !
 ! A18   A(5,6,21)             120.0085         estimate D2E/DX2                !
 ! A19   A(7,6,21)             119.758          estimate D2E/DX2                !
 ! A20   A(6,7,8)              119.8965         estimate D2E/DX2                !
 ! A21   A(6,7,22)             120.1668         estimate D2E/DX2                !
 ! A22   A(8,7,22)             119.9366         estimate D2E/DX2                !
 ! A23   A(3,8,7)              119.4534         estimate D2E/DX2                !
 ! A24   A(3,8,23)             120.2263         estimate D2E/DX2                !
 ! A25   A(7,8,23)             120.3195         estimate D2E/DX2                !
 ! A26   A(2,9,10)             112.0825         estimate D2E/DX2                !
 ! A27   A(2,9,24)             104.6723         estimate D2E/DX2                !
 ! A28   A(2,9,25)             106.478          estimate D2E/DX2                !
 ! A29   A(10,9,24)            112.2264         estimate D2E/DX2                !
 ! A30   A(10,9,25)            111.6891         estimate D2E/DX2                !
 ! A31   A(24,9,25)            109.3049         estimate D2E/DX2                !
 ! A32   A(9,10,11)            112.2801         estimate D2E/DX2                !
 ! A33   A(9,10,26)            108.5072         estimate D2E/DX2                !
 ! A34   A(9,10,27)            109.2375         estimate D2E/DX2                !
 ! A35   A(11,10,26)           109.3389         estimate D2E/DX2                !
 ! A36   A(11,10,27)           109.5795         estimate D2E/DX2                !
 ! A37   A(26,10,27)           107.7888         estimate D2E/DX2                !
 ! A38   A(10,11,12)           120.7178         estimate D2E/DX2                !
 ! A39   A(10,11,16)           120.4764         estimate D2E/DX2                !
 ! A40   A(12,11,16)           118.8026         estimate D2E/DX2                !
 ! A41   A(11,12,13)           120.6374         estimate D2E/DX2                !
 ! A42   A(11,12,28)           119.5356         estimate D2E/DX2                !
 ! A43   A(13,12,28)           119.8263         estimate D2E/DX2                !
 ! A44   A(12,13,14)           120.1541         estimate D2E/DX2                !
 ! A45   A(12,13,29)           119.8073         estimate D2E/DX2                !
 ! A46   A(14,13,29)           120.0384         estimate D2E/DX2                !
 ! A47   A(13,14,15)           119.6273         estimate D2E/DX2                !
 ! A48   A(13,14,30)           120.2412         estimate D2E/DX2                !
 ! A49   A(15,14,30)           120.1314         estimate D2E/DX2                !
 ! A50   A(14,15,16)           120.1066         estimate D2E/DX2                !
 ! A51   A(14,15,31)           120.0667         estimate D2E/DX2                !
 ! A52   A(16,15,31)           119.8267         estimate D2E/DX2                !
 ! A53   A(11,16,15)           120.6585         estimate D2E/DX2                !
 ! A54   A(11,16,32)           119.7998         estimate D2E/DX2                !
 ! A55   A(15,16,32)           119.5417         estimate D2E/DX2                !
 ! A56   A(2,17,33)            113.7982         estimate D2E/DX2                !
 ! D1    D(18,1,2,3)           -62.09           estimate D2E/DX2                !
 ! D2    D(18,1,2,9)            49.7152         estimate D2E/DX2                !
 ! D3    D(18,1,2,17)          178.4409         estimate D2E/DX2                !
 ! D4    D(1,2,3,4)           -123.5062         estimate D2E/DX2                !
 ! D5    D(1,2,3,8)             54.6662         estimate D2E/DX2                !
 ! D6    D(9,2,3,4)            118.6783         estimate D2E/DX2                !
 ! D7    D(9,2,3,8)            -63.1494         estimate D2E/DX2                !
 ! D8    D(17,2,3,4)             1.5882         estimate D2E/DX2                !
 ! D9    D(17,2,3,8)           179.7605         estimate D2E/DX2                !
 ! D10   D(1,2,9,10)          -175.0363         estimate D2E/DX2                !
 ! D11   D(1,2,9,24)            63.0799         estimate D2E/DX2                !
 ! D12   D(1,2,9,25)           -52.6305         estimate D2E/DX2                !
 ! D13   D(3,2,9,10)           -53.8371         estimate D2E/DX2                !
 ! D14   D(3,2,9,24)          -175.7208         estimate D2E/DX2                !
 ! D15   D(3,2,9,25)            68.5688         estimate D2E/DX2                !
 ! D16   D(17,2,9,10)           55.8182         estimate D2E/DX2                !
 ! D17   D(17,2,9,24)          -66.0656         estimate D2E/DX2                !
 ! D18   D(17,2,9,25)          178.224          estimate D2E/DX2                !
 ! D19   D(1,2,17,33)          -30.405          estimate D2E/DX2                !
 ! D20   D(3,2,17,33)         -155.9853         estimate D2E/DX2                !
 ! D21   D(9,2,17,33)           96.7402         estimate D2E/DX2                !
 ! D22   D(2,3,4,5)            179.0806         estimate D2E/DX2                !
 ! D23   D(2,3,4,19)            -1.0045         estimate D2E/DX2                !
 ! D24   D(8,3,4,5)              0.9266         estimate D2E/DX2                !
 ! D25   D(8,3,4,19)          -179.1584         estimate D2E/DX2                !
 ! D26   D(2,3,8,7)           -179.0231         estimate D2E/DX2                !
 ! D27   D(2,3,8,23)             0.6426         estimate D2E/DX2                !
 ! D28   D(4,3,8,7)             -0.8899         estimate D2E/DX2                !
 ! D29   D(4,3,8,23)           178.7757         estimate D2E/DX2                !
 ! D30   D(3,4,5,6)             -0.3101         estimate D2E/DX2                !
 ! D31   D(3,4,5,20)           179.7779         estimate D2E/DX2                !
 ! D32   D(19,4,5,6)           179.7791         estimate D2E/DX2                !
 ! D33   D(19,4,5,20)           -0.1329         estimate D2E/DX2                !
 ! D34   D(4,5,6,7)             -0.3311         estimate D2E/DX2                !
 ! D35   D(4,5,6,21)           179.9949         estimate D2E/DX2                !
 ! D36   D(20,5,6,7)           179.5808         estimate D2E/DX2                !
 ! D37   D(20,5,6,21)           -0.0931         estimate D2E/DX2                !
 ! D38   D(5,6,7,8)              0.3682         estimate D2E/DX2                !
 ! D39   D(5,6,7,22)          -179.5099         estimate D2E/DX2                !
 ! D40   D(21,6,7,8)          -179.957          estimate D2E/DX2                !
 ! D41   D(21,6,7,22)            0.1649         estimate D2E/DX2                !
 ! D42   D(6,7,8,3)              0.2357         estimate D2E/DX2                !
 ! D43   D(6,7,8,23)          -179.4296         estimate D2E/DX2                !
 ! D44   D(22,7,8,3)          -179.8859         estimate D2E/DX2                !
 ! D45   D(22,7,8,23)            0.4487         estimate D2E/DX2                !
 ! D46   D(2,9,10,11)          -59.803          estimate D2E/DX2                !
 ! D47   D(2,9,10,26)          179.2303         estimate D2E/DX2                !
 ! D48   D(2,9,10,27)           61.9698         estimate D2E/DX2                !
 ! D49   D(24,9,10,11)          57.6528         estimate D2E/DX2                !
 ! D50   D(24,9,10,26)         -63.3139         estimate D2E/DX2                !
 ! D51   D(24,9,10,27)         179.4256         estimate D2E/DX2                !
 ! D52   D(25,9,10,11)        -179.195          estimate D2E/DX2                !
 ! D53   D(25,9,10,26)          59.8383         estimate D2E/DX2                !
 ! D54   D(25,9,10,27)         -57.4222         estimate D2E/DX2                !
 ! D55   D(9,10,11,12)         119.1863         estimate D2E/DX2                !
 ! D56   D(9,10,11,16)         -61.4661         estimate D2E/DX2                !
 ! D57   D(26,10,11,12)       -120.3268         estimate D2E/DX2                !
 ! D58   D(26,10,11,16)         59.0209         estimate D2E/DX2                !
 ! D59   D(27,10,11,12)         -2.3913         estimate D2E/DX2                !
 ! D60   D(27,10,11,16)        176.9564         estimate D2E/DX2                !
 ! D61   D(10,11,12,13)       -179.4248         estimate D2E/DX2                !
 ! D62   D(10,11,12,28)          0.2709         estimate D2E/DX2                !
 ! D63   D(16,11,12,13)          1.2168         estimate D2E/DX2                !
 ! D64   D(16,11,12,28)       -179.0876         estimate D2E/DX2                !
 ! D65   D(10,11,16,15)        179.3875         estimate D2E/DX2                !
 ! D66   D(10,11,16,32)         -0.6537         estimate D2E/DX2                !
 ! D67   D(12,11,16,15)         -1.2524         estimate D2E/DX2                !
 ! D68   D(12,11,16,32)        178.7064         estimate D2E/DX2                !
 ! D69   D(11,12,13,14)         -0.3398         estimate D2E/DX2                !
 ! D70   D(11,12,13,29)        179.4968         estimate D2E/DX2                !
 ! D71   D(28,12,13,14)        179.9654         estimate D2E/DX2                !
 ! D72   D(28,12,13,29)         -0.1979         estimate D2E/DX2                !
 ! D73   D(12,13,14,15)         -0.5217         estimate D2E/DX2                !
 ! D74   D(12,13,14,30)        179.6225         estimate D2E/DX2                !
 ! D75   D(29,13,14,15)        179.642          estimate D2E/DX2                !
 ! D76   D(29,13,14,30)         -0.2138         estimate D2E/DX2                !
 ! D77   D(13,14,15,16)          0.4864         estimate D2E/DX2                !
 ! D78   D(13,14,15,31)       -179.5275         estimate D2E/DX2                !
 ! D79   D(30,14,15,16)       -179.6577         estimate D2E/DX2                !
 ! D80   D(30,14,15,31)          0.3284         estimate D2E/DX2                !
 ! D81   D(14,15,16,11)          0.4101         estimate D2E/DX2                !
 ! D82   D(14,15,16,32)       -179.5488         estimate D2E/DX2                !
 ! D83   D(31,15,16,11)       -179.576          estimate D2E/DX2                !
 ! D84   D(31,15,16,32)          0.4651         estimate D2E/DX2                !
 --------------------------------------------------------------------------------
 Trust Radius=3.00D-01 FncErr=1.00D-07 GrdErr=1.00D-06 EigMax=2.50D+02 EigMin=1.00D-04
 Number of steps in this run=    184 maximum allowed number of steps=    198.
 GradGradGradGradGradGradGradGradGradGradGradGradGradGradGradGradGradGrad

                          Input orientation:                          
 ---------------------------------------------------------------------
 Center     Atomic      Atomic             Coordinates (Angstroms)
 Number     Number       Type             X           Y           Z
 ---------------------------------------------------------------------
      1          7           0        3.047739    0.199778    0.819379
      2         16           0        1.572504    0.030312    0.435442
      3          6           0        0.747678    1.550402   -0.104016
      4          6           0       -0.393198    1.962052    0.557447
      5          6           0       -1.020865    3.132500    0.165933
      6          6           0       -0.500112    3.882745   -0.876697
      7          6           0        0.652202    3.469521   -1.526054
      8          6           0        1.281713    2.298802   -1.137100
      9          6           0        1.424404   -0.988221   -1.129486
     10          6           0       -0.010112   -1.081501   -1.615882
     11          6           0       -0.917979   -1.715902   -0.596946
     12          6           0       -1.994433   -1.015276   -0.073417
     13          6           0       -2.820821   -1.595798    0.871769
     14          6           0       -2.584446   -2.889469    1.300771
     15          6           0       -1.523292   -3.602892    0.770991
     16          6           0       -0.699309   -3.020767   -0.174011
     17          7           0        0.691081   -0.475104    1.567628
     18          1           0        3.649458    0.510234    0.074291
     19          1           0       -0.758769    1.347699    1.364413
     20          1           0       -1.915156    3.460723    0.674379
     21          1           0       -0.989563    4.795660   -1.182288
     22          1           0        1.061446    4.059024   -2.333077
     23          1           0        2.185686    1.974963   -1.632583
     24          1           0        1.833233   -1.960885   -0.864886
     25          1           0        2.069425   -0.515560   -1.867617
     26          1           0       -0.027250   -1.675292   -2.536913
     27          1           0       -0.374183   -0.079960   -1.857554
     28          1           0       -2.184355   -0.004249   -0.405276
     29          1           0       -3.650679   -1.034931    1.276578
     30          1           0       -3.225203   -3.341998    2.043227
     31          1           0       -1.336743   -4.616544    1.095374
     32          1           0        0.122591   -3.588942   -0.587185
     33          1           0        1.170573   -1.070212    2.220077
 ---------------------------------------------------------------------
                    Distance matrix (angstroms):
                    1          2          3          4          5
     1  N    0.000000
     2  S    1.533769   0.000000
     3  C    2.822609   1.811636   0.000000
     4  C    3.874824   2.758711   1.381516   0.000000
     5  C    5.057805   4.052378   2.388232   1.384629   0.000000
     6  C    5.387780   4.567131   2.755693   2.399429   1.386047
     7  C    4.683041   4.064797   2.390465   2.776022   2.403238
     8  C    3.369356   2.775517   1.382953   2.406287   2.773952
     9  C    2.800827   1.873057   2.820310   3.854027   4.963647
    10  C    4.113712   2.819350   3.128402   3.759432   4.685541
    11  C    4.626308   3.212101   3.699477   3.890419   4.909131
    12  C    5.262789   3.751697   3.755371   3.438957   4.267221
    13  C    6.137332   4.704882   4.856430   4.318616   5.108312
    14  C    6.441793   5.153071   5.726162   5.375068   6.324299
    15  C    5.946173   4.785052   5.699069   5.682545   6.781153
    16  C    5.039752   3.852486   4.795232   5.045514   6.171033
    17  N    2.563042   1.521248   2.626837   2.852342   4.232058
    18  H    1.006778   2.162058   3.087728   4.322531   5.356920
    19  H    4.013015   2.834312   2.113471   1.078085   2.165771
    20  H    5.940127   4.897813   3.368370   2.139169   1.079817
    21  H    6.436506   5.647104   3.835672   3.378116   2.141210
    22  H    5.364431   4.914916   3.370512   3.855958   3.382235
    23  H    3.147464   2.904202   2.141176   3.383347   3.854415
    24  H    2.996705   2.392426   3.753197   4.729636   5.928831
    25  H    2.947669   2.418468   3.020844   4.252529   5.195533
    26  H    4.923022   3.781956   4.113951   4.789493   5.604240
    27  H    4.353593   3.009913   2.644153   3.162657   3.851311
    28  H    5.377380   3.849933   3.332344   2.828678   3.393993
    29  H    6.826591   5.396655   5.285407   4.484444   5.051429
    30  H    7.306968   6.080743   6.658078   6.193605   7.092423
    31  H    6.518958   5.522001   6.619257   6.667650   7.810974
    32  H    4.988919   4.030758   5.199715   5.691199   6.859480
    33  H    2.664317   2.134859   3.528154   3.795306   5.165724
                    6          7          8          9         10
     6  C    0.000000
     7  C    1.385730   0.000000
     8  C    2.398247   1.384973   0.000000
     9  C    5.243470   4.541478   3.290128   0.000000
    10  C    5.042841   4.599840   3.650274   1.517602   0.000000
    11  C    5.621185   5.497028   4.609583   2.509955   1.504965
    12  C    5.183519   5.406314   4.779924   3.578332   2.514183
    13  C    6.201391   6.593094   6.002854   4.732453   3.788535
    14  C    7.412739   7.674866   6.914373   5.058831   4.289849
    15  C    7.732822   7.747788   6.807266   4.374612   3.787386
    16  C    6.942040   6.765976   5.757587   3.091008   2.512913
    17  N    5.136586   5.013227   3.919051   2.841738   3.315739
    18  H    5.431127   4.505777   3.205099   2.940291   4.333908
    19  H    3.393514   3.853280   3.365373   4.054910   3.917099
    20  H    2.141562   3.381318   3.853763   5.848050   5.431969
    21  H    1.079982   2.138273   3.375653   6.267639   5.973973
    22  H    2.142565   1.079945   2.139453   5.201447   5.299774
    23  H    3.380016   2.143974   1.080528   3.100503   3.763480
    24  H    6.292269   5.596542   4.303860   1.087764   2.176058
    25  H    5.189368   4.243355   3.012438   1.088254   2.169823
    26  H    5.819939   5.287020   4.412061   2.135466   1.095983
    27  H    4.084235   3.709740   2.986562   2.142413   1.092720
    28  H    4.262351   4.622691   4.225310   3.809963   2.711710
    29  H    6.224644   6.830784   6.424026   5.616742   4.649970
    30  H    8.255240   8.612248   7.889575   6.101247   5.369891
    31  H    8.765097   8.729961   7.724135   5.073328   4.648374
    32  H    7.503179   7.140298   6.025903   2.958472   2.713501
    33  H    6.075606   5.908586   4.757442   3.360168   4.013568
                   11         12         13         14         15
    11  C    0.000000
    12  C    1.386980   0.000000
    13  C    2.406732   1.383220   0.000000
    14  C    2.784906   2.397729   1.383293   0.000000
    15  C    2.407984   2.762382   2.392105   1.384084   0.000000
    16  C    1.389015   2.389447   2.761342   2.397074   1.382334
    17  N    2.968843   3.193243   3.751484   4.077922   3.914222
    18  H    5.125204   5.848291   6.850974   7.205816   6.645340
    19  H    3.641143   3.029500   3.627524   4.614189   5.044304
    20  H    5.422921   4.538728   5.140777   6.416015   7.075136
    21  H    6.538210   6.000528   6.958692   8.232281   8.639205
    22  H    6.346814   6.339794   7.571001   8.647481   8.661471
    23  H    4.932318   5.370840   6.639821   7.417643   7.116612
    24  H    2.775063   4.021396   4.980912   5.006818   4.079037
    25  H    3.461214   4.470326   5.708385   6.110044   5.422314
    26  H    2.135069   3.220907   4.407887   4.768783   4.110476
    27  H    2.135686   2.585184   3.966486   4.770076   4.543210
    28  H    2.137802   1.080914   2.137512   3.375671   3.843285
    29  H    3.382522   2.136825   1.080326   2.139333   3.372805
    30  H    3.864968   3.377663   2.141274   1.080089   2.140829
    31  H    3.384233   3.842884   3.373039   2.140500   1.080516
    32  H    2.142700   3.371870   3.842505   3.373676   2.133956
    33  H    3.565751   3.909015   4.245634   4.272586   3.971301
                   16         17         18         19         20
    16  C    0.000000
    17  N    3.383325   0.000000
    18  H    5.607262   3.457302   0.000000
    19  H    4.631822   2.337942   4.668857   0.000000
    20  H    6.648891   4.804279   6.326959   2.505643   0.000000
    21  H    7.886533   6.177990   6.439284   4.292714   2.466981
    22  H    7.608236   5.992578   5.008706   4.933144   4.273514
    23  H    5.950457   4.298607   2.683557   4.247971   4.934213
    24  H    2.830976   3.070697   3.207360   4.757623   6.768574
    25  H    4.100030   3.701672   2.705507   4.681499   6.176525
    26  H    2.800941   4.336324   5.011296   4.989382   6.344701
    27  H    3.404169   3.608711   4.502226   3.545024   4.617545
    28  H    3.370196   3.518833   5.876057   2.644212   3.639252
    29  H    3.841658   4.387367   7.558109   3.748037   4.856499
    30  H    3.376311   4.876736   8.122645   5.342035   7.061655
    31  H    2.136391   4.635365   7.224171   5.998218   8.108886
    32  H    1.081228   3.829149   5.447897   5.381074   7.445920
    33  H    3.610094   1.004867   3.639653   3.209489   5.695637
                   21         22         23         24         25
    21  H    0.000000
    22  H    2.464465   0.000000
    23  H    4.270984   2.469396   0.000000
    24  H    7.329381   6.244241   4.025479   0.000000
    25  H    6.167345   4.707388   2.504290   1.774886   0.000000
    26  H    6.680889   5.840307   4.363400   2.517664   2.487766
    27  H    4.960479   4.406625   3.290327   3.065282   2.482149
    28  H    5.007036   5.546335   4.951850   4.492291   4.527087
    29  H    6.864645   7.821899   7.182328   5.959576   6.547922
    30  H    9.034573   9.607420   8.429672   5.996029   7.163556
    31  H    9.690091   9.631774   7.955955   4.576449   6.099127
    32  H    8.478950   7.900695   6.025468   2.377811   3.856857
    33  H    7.116933   6.859460   5.014632   3.278630   4.221945
                   26         27         28         29         30
    26  H    0.000000
    27  H    1.768325   0.000000
    28  H    3.462565   2.321975   0.000000
    29  H    5.299246   4.633593   2.457853   0.000000
    30  H    5.829450   5.829691   4.268383   2.468064   0.000000
    31  H    4.853786   5.497899   4.923784   4.267913   2.467625
    32  H    2.736047   3.764781   4.266745   4.922819   4.264712
    33  H    4.942657   4.471459   4.391389   4.912831   4.951276
                   31         32         33
    31  H    0.000000
    32  H    2.452880   0.000000
    33  H    4.486430   3.914458   0.000000
 Stoichiometry    C14H16N2S
 Framework group  C1[X(C14H16N2S)]
 Deg. of freedom    93
 Full point group                 C1      NOp   1
 Largest Abelian subgroup         C1      NOp   1
 Largest concise Abelian subgroup C1      NOp   1
                         Standard orientation:                         
 ---------------------------------------------------------------------
 Center     Atomic      Atomic             Coordinates (Angstroms)
 Number     Number       Type             X           Y           Z
 ---------------------------------------------------------------------
      1          7           0        1.179678    2.724118   -1.129010
      2         16           0        0.543287    1.436159   -0.591782
      3          6           0        1.713135    0.096772   -0.246060
      4          6           0        1.530187   -1.125651   -0.863148
      5          6           0        2.429208   -2.150512   -0.621033
      6          6           0        3.504294   -1.942862    0.228790
      7          6           0        3.687817   -0.709491    0.833242
      8          6           0        2.789735    0.317218    0.593520
      9          6           0       -0.137396    1.720480    1.129896
     10          6           0       -0.669849    0.442337    1.751154
     11          6           0       -1.781307   -0.166632    0.939529
     12          6           0       -1.651742   -1.439116    0.403141
     13          6           0       -2.669594   -1.992551   -0.352494
     14          6           0       -3.834923   -1.281405   -0.575609
     15          6           0       -3.980663   -0.017969   -0.029553
     16          6           0       -2.962299    0.532625    0.725845
     17          7           0       -0.462881    0.799726   -1.538764
     18          1           0        1.829912    3.171492   -0.503986
     19          1           0        0.681693   -1.238782   -1.518530
     20          1           0        2.292744   -3.110699   -1.095820
     21          1           0        4.205588   -2.742117    0.417842
     22          1           0        4.530258   -0.546481    1.488988
     23          1           0        2.931350    1.284414    1.053976
     24          1           0       -0.915417    2.469225    0.998393
     25          1           0        0.674858    2.144897    1.716761
     26          1           0       -1.038939    0.672041    2.757229
     27          1           0        0.146844   -0.276709    1.851269
     28          1           0       -0.743624   -1.999732    0.574622
     29          1           0       -2.551140   -2.981577   -0.770706
     30          1           0       -4.628148   -1.709754   -1.170508
     31          1           0       -4.891006    0.540682   -0.192951
     32          1           0       -3.088782    1.517286    1.154215
     33          1           0       -0.945988    1.460900   -2.121184
 ---------------------------------------------------------------------
 Rotational constants (GHZ):           0.7266225           0.3320098           0.2768465
 Standard basis: def2SVP (5D, 7F)
 There are   339 symmetry adapted cartesian basis functions of A   symmetry.
 There are   322 symmetry adapted basis functions of A   symmetry.
   322 basis functions,   549 primitive gaussians,   339 cartesian basis functions
    65 alpha electrons       65 beta electrons
       nuclear repulsion energy      1338.5774200685 Hartrees.
 NAtoms=   33 NActive=   33 NUniq=   33 SFac= 1.00D+00 NAtFMM=   60 NAOKFM=F Big=F
 Integral buffers will be    131072 words long.
 Raffenetti 2 integral format.
 Two-electron integral symmetry is turned on.
 Nuclear repulsion after empirical dispersion term =     1338.5337979962 Hartrees.
 One-electron integrals computed using PRISM.
   1 Symmetry operations used in ECPInt.
 ECPInt:  NShTT=   11628 NPrTT=   42474 LenC2=   11057 LenP2D=   29248.
 LDataN:  DoStor=T MaxTD1= 4 Len=   56
 NBasis=   322 RedAO= T EigKep=  2.51D-04  NBF=   322
 NBsUse=   322 1.00D-06 EigRej= -1.00D+00 NBFU=   322
 ExpMin= 1.22D-01 ExpMax= 9.18D+03 ExpMxC= 1.38D+03 IAcc=3 IRadAn=         5 AccDes= 0.00D+00
 Harris functional with IExCor= 1009 and IRadAn=       5 diagonalized for initial guess.
 HarFok:  IExCor= 1009 AccDes= 0.00D+00 IRadAn=         5 IDoV= 1 UseB2=F ITyADJ=14
 ICtDFT=  3500011 ScaDFX=  1.000000  1.000000  1.000000  1.000000
 FoFCou: FMM=F IPFlag=           0 FMFlag=      100000 FMFlg1=           0
         NFxFlg=           0 DoJE=T BraDBF=F KetDBF=T FulRan=T
         wScrn=  0.000000 ICntrl=       500 IOpCl=  0 I1Cent=   200000004 NGrid=           0
         NMat0=    1 NMatS0=      1 NMatT0=    0 NMatD0=    1 NMtDS0=    0 NMtDT0=    0
 Petite list used in FoFCou.
 Requested convergence on RMS density matrix=1.00D-08 within 128 cycles.
 Requested convergence on MAX density matrix=1.00D-06.
 Requested convergence on             energy=1.00D-06.
 No special actions if energy rises.
 Integral accuracy reduced to 1.0D-05 until final iterations.
 Initial convergence to 1.0D-05 achieved.  Increase integral accuracy.
 SCF Done:  E(RPBE1PBE) =  -1049.21060524     A.U. after   15 cycles
            NFock= 15  Conv=0.75D-08     -V/T= 2.0069

 **********************************************************************

            Population analysis using the SCF Density.

 **********************************************************************

 Orbital symmetries:
       Occupied  (A) (A) (A) (A) (A) (A) (A) (A) (A) (A) (A) (A)
                 (A) (A) (A) (A) (A) (A) (A) (A) (A) (A) (A) (A)
                 (A) (A) (A) (A) (A) (A) (A) (A) (A) (A) (A) (A)
                 (A) (A) (A) (A) (A) (A) (A) (A) (A) (A) (A) (A)
                 (A) (A) (A) (A) (A) (A) (A) (A) (A) (A) (A) (A)
                 (A) (A) (A) (A) (A)
       Virtual   (A) (A) (A) (A) (A) (A) (A) (A) (A) (A) (A) (A)
                 (A) (A) (A) (A) (A) (A) (A) (A) (A) (A) (A) (A)
                 (A) (A) (A) (A) (A) (A) (A) (A) (A) (A) (A) (A)
                 (A) (A) (A) (A) (A) (A) (A) (A) (A) (A) (A) (A)
                 (A) (A) (A) (A) (A) (A) (A) (A) (A) (A) (A) (A)
                 (A) (A) (A) (A) (A) (A) (A) (A) (A) (A) (A) (A)
                 (A) (A) (A) (A) (A) (A) (A) (A) (A) (A) (A) (A)
                 (A) (A) (A) (A) (A) (A) (A) (A) (A) (A) (A) (A)
                 (A) (A) (A) (A) (A) (A) (A) (A) (A) (A) (A) (A)
                 (A) (A) (A) (A) (A) (A) (A) (A) (A) (A) (A) (A)
                 (A) (A) (A) (A) (A) (A) (A) (A) (A) (A) (A) (A)
                 (A) (A) (A) (A) (A) (A) (A) (A) (A) (A) (A) (A)
                 (A) (A) (A) (A) (A) (A) (A) (A) (A) (A) (A) (A)
                 (A) (A) (A) (A) (A) (A) (A) (A) (A) (A) (A) (A)
                 (A) (A) (A) (A) (A) (A) (A) (A) (A) (A) (A) (A)
                 (A) (A) (A) (A) (A) (A) (A) (A) (A) (A) (A) (A)
                 (A) (A) (A) (A) (A) (A) (A) (A) (A) (A) (A) (A)
                 (A) (A) (A) (A) (A) (A) (A) (A) (A) (A) (A) (A)
                 (A) (A) (A) (A) (A) (A) (A) (A) (A) (A) (A) (A)
                 (A) (A) (A) (A) (A) (A) (A) (A) (A) (A) (A) (A)
                 (A) (A) (A) (A) (A) (A) (A) (A) (A) (A) (A) (A)
                 (A) (A) (A) (A) (A)
 The electronic state is 1-A.
 Alpha  occ. eigenvalues --  -89.17613 -14.33841 -14.33345 -10.26645 -10.26377
 Alpha  occ. eigenvalues --  -10.26173 -10.25499 -10.25359 -10.25115 -10.24896
 Alpha  occ. eigenvalues --  -10.24776 -10.23641 -10.22763 -10.22632 -10.22600
 Alpha  occ. eigenvalues --  -10.22506 -10.22385  -8.15048  -6.09168  -6.09078
 Alpha  occ. eigenvalues --   -6.09066  -1.00254  -0.89874  -0.87805  -0.84473
 Alpha  occ. eigenvalues --   -0.82159  -0.79044  -0.78322  -0.75719  -0.75073
 Alpha  occ. eigenvalues --   -0.68357  -0.65610  -0.64084  -0.61724  -0.60554
 Alpha  occ. eigenvalues --   -0.58962  -0.55627  -0.52983  -0.51981  -0.50757
 Alpha  occ. eigenvalues --   -0.48996  -0.48599  -0.47653  -0.46507  -0.45661
 Alpha  occ. eigenvalues --   -0.45316  -0.44681  -0.44337  -0.42775  -0.40760
 Alpha  occ. eigenvalues --   -0.40594  -0.39242  -0.38106  -0.37593  -0.37179
 Alpha  occ. eigenvalues --   -0.34753  -0.34511  -0.30520  -0.29435  -0.28644
 Alpha  occ. eigenvalues --   -0.27012  -0.26148  -0.25638  -0.24138  -0.23114
 Alpha virt. eigenvalues --   -0.03322  -0.02046   0.00267   0.00865   0.04725
 Alpha virt. eigenvalues --    0.06749   0.07555   0.08410   0.08580   0.09174
 Alpha virt. eigenvalues --    0.10085   0.10608   0.11352   0.12742   0.12937
 Alpha virt. eigenvalues --    0.13682   0.13989   0.14390   0.15458   0.16667
 Alpha virt. eigenvalues --    0.17386   0.18134   0.18490   0.18850   0.20248
 Alpha virt. eigenvalues --    0.22013   0.22696   0.24959   0.28619   0.28873
 Alpha virt. eigenvalues --    0.30031   0.31077   0.31749   0.32570   0.33153
 Alpha virt. eigenvalues --    0.34062   0.37357   0.38059   0.38727   0.39642
 Alpha virt. eigenvalues --    0.41119   0.42334   0.43694   0.44182   0.44980
 Alpha virt. eigenvalues --    0.45342   0.45868   0.47378   0.48076   0.48661
 Alpha virt. eigenvalues --    0.49352   0.49684   0.50375   0.51167   0.51256
 Alpha virt. eigenvalues --    0.51867   0.53389   0.54302   0.55400   0.56261
 Alpha virt. eigenvalues --    0.56868   0.57929   0.59211   0.60505   0.61304
 Alpha virt. eigenvalues --    0.61897   0.63879   0.64156   0.64606   0.65899
 Alpha virt. eigenvalues --    0.66215   0.66548   0.66878   0.67614   0.68440
 Alpha virt. eigenvalues --    0.68496   0.68881   0.69690   0.70468   0.70761
 Alpha virt. eigenvalues --    0.71517   0.72068   0.73018   0.73274   0.74366
 Alpha virt. eigenvalues --    0.75058   0.75325   0.76229   0.76868   0.77513
 Alpha virt. eigenvalues --    0.78170   0.78317   0.79213   0.80061   0.80783
 Alpha virt. eigenvalues --    0.81662   0.82784   0.84081   0.85339   0.85880
 Alpha virt. eigenvalues --    0.87187   0.87892   0.90251   0.91427   0.92312
 Alpha virt. eigenvalues --    0.94047   0.95198   0.96813   0.98091   1.00231
 Alpha virt. eigenvalues --    1.03750   1.04148   1.05163   1.08584   1.10352
 Alpha virt. eigenvalues --    1.10589   1.12700   1.15922   1.16926   1.17588
 Alpha virt. eigenvalues --    1.19630   1.20468   1.21886   1.24038   1.24550
 Alpha virt. eigenvalues --    1.26020   1.26674   1.27479   1.28826   1.29158
 Alpha virt. eigenvalues --    1.30041   1.30907   1.32469   1.32967   1.33984
 Alpha virt. eigenvalues --    1.35652   1.35948   1.40243   1.43899   1.46809
 Alpha virt. eigenvalues --    1.49364   1.52281   1.54025   1.55677   1.57563
 Alpha virt. eigenvalues --    1.60469   1.67018   1.68242   1.68376   1.69543
 Alpha virt. eigenvalues --    1.71088   1.71475   1.72029   1.73334   1.74345
 Alpha virt. eigenvalues --    1.75648   1.75776   1.76542   1.77203   1.77540
 Alpha virt. eigenvalues --    1.78033   1.78944   1.79450   1.79807   1.81046
 Alpha virt. eigenvalues --    1.81921   1.82332   1.82960   1.83384   1.84862
 Alpha virt. eigenvalues --    1.85584   1.86356   1.87831   1.91087   1.91506
 Alpha virt. eigenvalues --    1.93418   1.95369   1.96875   1.97528   1.98409
 Alpha virt. eigenvalues --    1.98877   1.99074   2.00511   2.01413   2.02235
 Alpha virt. eigenvalues --    2.03160   2.06913   2.07755   2.10969   2.11504
 Alpha virt. eigenvalues --    2.14321   2.15173   2.16042   2.16499   2.17175
 Alpha virt. eigenvalues --    2.18203   2.19592   2.21638   2.23158   2.24026
 Alpha virt. eigenvalues --    2.27806   2.28427   2.30199   2.30938   2.32037
 Alpha virt. eigenvalues --    2.33441   2.34177   2.34771   2.36447   2.37018
 Alpha virt. eigenvalues --    2.38608   2.39520   2.40833   2.42205   2.44319
 Alpha virt. eigenvalues --    2.45569   2.51112   2.52595   2.53841   2.55435
 Alpha virt. eigenvalues --    2.59928   2.60417   2.62747   2.63667   2.64776
 Alpha virt. eigenvalues --    2.65765   2.66060   2.66687   2.67285   2.68759
 Alpha virt. eigenvalues --    2.71181   2.75589   2.76187   2.77902   2.78704
 Alpha virt. eigenvalues --    2.84149   2.84758   2.87036   2.88980   2.89319
 Alpha virt. eigenvalues --    2.91996   2.93372   2.93994   2.97299   2.98034
 Alpha virt. eigenvalues --    3.02947   3.06311   3.06963   3.14407   3.15756
 Alpha virt. eigenvalues --    3.19049   3.24000   3.28277   3.30961   3.34656
 Alpha virt. eigenvalues --    3.65803   3.70947
          Condensed to atoms (all electrons):
               1          2          3          4          5          6
     1  N    6.919805   0.331329  -0.030985  -0.000062  -0.000065  -0.000020
     2  S    0.331329  14.686667   0.081395  -0.031823   0.006510   0.000044
     3  C   -0.030985   0.081395   5.920679   0.302119   0.110366  -0.189419
     4  C   -0.000062  -0.031823   0.302119   5.082194   0.193176   0.114501
     5  C   -0.000065   0.006510   0.110366   0.193176   5.175481   0.240226
     6  C   -0.000020   0.000044  -0.189419   0.114501   0.240226   5.132276
     7  C    0.000173   0.002017   0.105349  -0.141958   0.094613   0.268163
     8  C   -0.000769  -0.043793   0.133363   0.061443  -0.152582   0.097028
     9  C   -0.064283   0.216981  -0.117557  -0.000199  -0.000333  -0.000164
    10  C    0.004588  -0.059767   0.008183   0.000362   0.000402   0.000123
    11  C    0.000240  -0.007180  -0.005217  -0.000258   0.000100  -0.000001
    12  C   -0.000022   0.006844  -0.001403   0.000769  -0.001258  -0.000047
    13  C    0.000000  -0.000265   0.000088  -0.000749   0.000065  -0.000002
    14  C    0.000000   0.000109   0.000013   0.000014  -0.000005   0.000000
    15  C   -0.000001  -0.000381  -0.000048  -0.000003   0.000002  -0.000000
    16  C   -0.000051   0.001130   0.000734   0.000037  -0.000011   0.000000
    17  N   -0.070309   0.412426  -0.101495  -0.002312   0.002411  -0.000066
    18  H    0.308651  -0.002448  -0.010307  -0.000563  -0.000036   0.000010
    19  H    0.000499  -0.016499  -0.047652   0.440636  -0.068515   0.012070
    20  H    0.000002  -0.000147   0.017491  -0.074529   0.459188  -0.075030
    21  H   -0.000000   0.000021  -0.001571   0.014051  -0.068004   0.450020
    22  H    0.000003  -0.000157   0.016913  -0.001818   0.014261  -0.070686
    23  H    0.002056  -0.003828  -0.091404   0.012608  -0.001607   0.013923
    24  H    0.008324  -0.013679   0.008929  -0.000031   0.000001   0.000003
    25  H    0.002436  -0.005485  -0.000444  -0.000319  -0.000026   0.000024
    26  H   -0.000128   0.005306  -0.000842   0.000036  -0.000004  -0.000008
    27  H    0.000065  -0.011305   0.009435  -0.002391  -0.000320   0.000049
    28  H   -0.000005  -0.000305  -0.001585   0.006715   0.000890   0.000148
    29  H   -0.000000  -0.000002   0.000008   0.000012   0.000009  -0.000000
    30  H   -0.000000  -0.000000   0.000000   0.000000  -0.000000   0.000000
    31  H   -0.000000  -0.000004   0.000000  -0.000000   0.000000  -0.000000
    32  H   -0.000035  -0.000005  -0.000023  -0.000006  -0.000000  -0.000000
    33  H    0.004658  -0.015463   0.008970   0.000194  -0.000064   0.000007
               7          8          9         10         11         12
     1  N    0.000173  -0.000769  -0.064283   0.004588   0.000240  -0.000022
     2  S    0.002017  -0.043793   0.216981  -0.059767  -0.007180   0.006844
     3  C    0.105349   0.133363  -0.117557   0.008183  -0.005217  -0.001403
     4  C   -0.141958   0.061443  -0.000199   0.000362  -0.000258   0.000769
     5  C    0.094613  -0.152582  -0.000333   0.000402   0.000100  -0.001258
     6  C    0.268163   0.097028  -0.000164   0.000123  -0.000001  -0.000047
     7  C    5.028118   0.309675  -0.000561  -0.000544   0.000071   0.000011
     8  C    0.309675   5.179548  -0.007075  -0.000773   0.000041   0.000059
     9  C   -0.000561  -0.007075   5.333998   0.236514  -0.074108   0.000712
    10  C   -0.000544  -0.000773   0.236514   4.939698   0.337508  -0.075085
    11  C    0.000071   0.000041  -0.074108   0.337508   5.354458   0.299285
    12  C    0.000011   0.000059   0.000712  -0.075085   0.299285   5.066188
    13  C   -0.000000   0.000004  -0.000698   0.013546   0.095691   0.306682
    14  C    0.000000  -0.000000   0.000004  -0.000145  -0.162525   0.086795
    15  C   -0.000000   0.000001   0.000388   0.012742   0.100463  -0.139362
    16  C    0.000000  -0.000026  -0.008896  -0.112704   0.259449   0.058189
    17  N   -0.000030   0.008247  -0.060418  -0.015873   0.012469  -0.004811
    18  H    0.000363   0.005743  -0.000313   0.000456  -0.000095   0.000002
    19  H   -0.002008   0.015181   0.001358  -0.000015  -0.000169   0.001791
    20  H    0.014588  -0.001948   0.000012  -0.000015   0.000002  -0.000014
    21  H   -0.069024   0.015085  -0.000000   0.000001  -0.000000  -0.000000
    22  H    0.454407  -0.072430   0.000045  -0.000019   0.000001  -0.000000
    23  H   -0.048070   0.444096   0.001053  -0.000782   0.000042  -0.000014
    24  H   -0.000016  -0.000242   0.345727  -0.002734  -0.011906  -0.000163
    25  H    0.000680   0.004691   0.323716  -0.016234   0.011372  -0.000216
    26  H   -0.000001  -0.000082  -0.002111   0.340723  -0.008182   0.004166
    27  H    0.000297   0.000438  -0.017147   0.365067  -0.011911  -0.013329
    28  H   -0.000027  -0.000405   0.000482  -0.018174  -0.068402   0.443106
    29  H    0.000000  -0.000000   0.000007  -0.000349   0.017336  -0.072140
    30  H   -0.000000   0.000000  -0.000000   0.000038  -0.001356   0.014674
    31  H   -0.000000   0.000000   0.000011  -0.000346   0.016575  -0.001800
    32  H    0.000000   0.000002   0.001697  -0.016088  -0.081068   0.015201
    33  H   -0.000006  -0.000455  -0.000577  -0.000259  -0.000786   0.000270
              13         14         15         16         17         18
     1  N    0.000000   0.000000  -0.000001  -0.000051  -0.070309   0.308651
     2  S   -0.000265   0.000109  -0.000381   0.001130   0.412426  -0.002448
     3  C    0.000088   0.000013  -0.000048   0.000734  -0.101495  -0.010307
     4  C   -0.000749   0.000014  -0.000003   0.000037  -0.002312  -0.000563
     5  C    0.000065  -0.000005   0.000002  -0.000011   0.002411  -0.000036
     6  C   -0.000002   0.000000  -0.000000   0.000000  -0.000066   0.000010
     7  C   -0.000000   0.000000  -0.000000   0.000000  -0.000030   0.000363
     8  C    0.000004  -0.000000   0.000001  -0.000026   0.008247   0.005743
     9  C   -0.000698   0.000004   0.000388  -0.008896  -0.060418  -0.000313
    10  C    0.013546  -0.000145   0.012742  -0.112704  -0.015873   0.000456
    11  C    0.095691  -0.162525   0.100463   0.259449   0.012469  -0.000095
    12  C    0.306682   0.086795  -0.139362   0.058189  -0.004811   0.000002
    13  C    5.034191   0.285238   0.083022  -0.139441   0.000124   0.000000
    14  C    0.285238   5.100972   0.287146   0.082122   0.000540  -0.000000
    15  C    0.083022   0.287146   5.022211   0.312708  -0.002128   0.000000
    16  C   -0.139441   0.082122   0.312708   5.151207   0.007770   0.000006
    17  N    0.000124   0.000540  -0.002128   0.007770   6.836669   0.005152
    18  H    0.000000  -0.000000   0.000000   0.000006   0.005152   0.583768
    19  H    0.000842  -0.000073   0.000018  -0.000237   0.034835  -0.000069
    20  H    0.000008  -0.000000   0.000000   0.000000  -0.000008   0.000000
    21  H   -0.000000   0.000000  -0.000000   0.000000   0.000000  -0.000000
    22  H   -0.000000  -0.000000   0.000000  -0.000000   0.000001  -0.000003
    23  H   -0.000000  -0.000000   0.000000   0.000001   0.000362   0.002735
    24  H    0.000052   0.000011  -0.000493   0.008144  -0.001026  -0.000530
    25  H    0.000008   0.000002  -0.000018   0.000488   0.003605   0.001737
    26  H   -0.000569   0.000076   0.000363  -0.008108  -0.000115  -0.000017
    27  H    0.000587  -0.000013  -0.000425   0.011035   0.000675  -0.000005
    28  H   -0.066523   0.014764  -0.001752   0.015681  -0.000848   0.000001
    29  H    0.450242  -0.075279   0.015080  -0.001830  -0.000037   0.000000
    30  H   -0.070367   0.448619  -0.070986   0.014882  -0.000014   0.000000
    31  H    0.014970  -0.073739   0.450499  -0.072412  -0.000029   0.000000
    32  H   -0.001716   0.015023  -0.061327   0.446830   0.000242   0.000001
    33  H   -0.000165   0.000116  -0.000043   0.001278   0.335429  -0.000216
              19         20         21         22         23         24
     1  N    0.000499   0.000002  -0.000000   0.000003   0.002056   0.008324
     2  S   -0.016499  -0.000147   0.000021  -0.000157  -0.003828  -0.013679
     3  C   -0.047652   0.017491  -0.001571   0.016913  -0.091404   0.008929
     4  C    0.440636  -0.074529   0.014051  -0.001818   0.012608  -0.000031
     5  C   -0.068515   0.459188  -0.068004   0.014261  -0.001607   0.000001
     6  C    0.012070  -0.075030   0.450020  -0.070686   0.013923   0.000003
     7  C   -0.002008   0.014588  -0.069024   0.454407  -0.048070  -0.000016
     8  C    0.015181  -0.001948   0.015085  -0.072430   0.444096  -0.000242
     9  C    0.001358   0.000012  -0.000000   0.000045   0.001053   0.345727
    10  C   -0.000015  -0.000015   0.000001  -0.000019  -0.000782  -0.002734
    11  C   -0.000169   0.000002  -0.000000   0.000001   0.000042  -0.011906
    12  C    0.001791  -0.000014  -0.000000  -0.000000  -0.000014  -0.000163
    13  C    0.000842   0.000008  -0.000000  -0.000000  -0.000000   0.000052
    14  C   -0.000073  -0.000000   0.000000  -0.000000  -0.000000   0.000011
    15  C    0.000018   0.000000  -0.000000   0.000000   0.000000  -0.000493
    16  C   -0.000237   0.000000   0.000000  -0.000000   0.000001   0.008144
    17  N    0.034835  -0.000008   0.000000   0.000001   0.000362  -0.001026
    18  H   -0.000069   0.000000  -0.000000  -0.000003   0.002735  -0.000530
    19  H    0.586462  -0.010217  -0.000186   0.000026  -0.000195  -0.000054
    20  H   -0.010217   0.659301  -0.012187  -0.000262   0.000042  -0.000000
    21  H   -0.000186  -0.012187   0.660924  -0.012130  -0.000277   0.000000
    22  H    0.000026  -0.000262  -0.012130   0.662496  -0.012533  -0.000001
    23  H   -0.000195   0.000042  -0.000277  -0.012533   0.672995  -0.000316
    24  H   -0.000054  -0.000000   0.000000  -0.000001  -0.000316   0.586680
    25  H   -0.000093   0.000000  -0.000000  -0.000023   0.002209  -0.009526
    26  H    0.000010   0.000000   0.000000   0.000001   0.000033  -0.008656
    27  H   -0.000075  -0.000001  -0.000003   0.000030   0.000335   0.006364
    28  H   -0.000876   0.000153   0.000001  -0.000002   0.000002  -0.000022
    29  H    0.000128   0.000004  -0.000000   0.000000   0.000000   0.000000
    30  H   -0.000000  -0.000000   0.000000  -0.000000   0.000000  -0.000000
    31  H   -0.000000   0.000000  -0.000000   0.000000  -0.000000   0.000021
    32  H    0.000002   0.000000   0.000000   0.000000   0.000001   0.002824
    33  H   -0.000985  -0.000002   0.000000  -0.000000  -0.000035   0.001412
              25         26         27         28         29         30
     1  N    0.002436  -0.000128   0.000065  -0.000005  -0.000000  -0.000000
     2  S   -0.005485   0.005306  -0.011305  -0.000305  -0.000002  -0.000000
     3  C   -0.000444  -0.000842   0.009435  -0.001585   0.000008   0.000000
     4  C   -0.000319   0.000036  -0.002391   0.006715   0.000012   0.000000
     5  C   -0.000026  -0.000004  -0.000320   0.000890   0.000009  -0.000000
     6  C    0.000024  -0.000008   0.000049   0.000148  -0.000000   0.000000
     7  C    0.000680  -0.000001   0.000297  -0.000027   0.000000  -0.000000
     8  C    0.004691  -0.000082   0.000438  -0.000405  -0.000000   0.000000
     9  C    0.323716  -0.002111  -0.017147   0.000482   0.000007  -0.000000
    10  C   -0.016234   0.340723   0.365067  -0.018174  -0.000349   0.000038
    11  C    0.011372  -0.008182  -0.011911  -0.068402   0.017336  -0.001356
    12  C   -0.000216   0.004166  -0.013329   0.443106  -0.072140   0.014674
    13  C    0.000008  -0.000569   0.000587  -0.066523   0.450242  -0.070367
    14  C    0.000002   0.000076  -0.000013   0.014764  -0.075279   0.448619
    15  C   -0.000018   0.000363  -0.000425  -0.001752   0.015080  -0.070986
    16  C    0.000488  -0.008108   0.011035   0.015681  -0.001830   0.014882
    17  N    0.003605  -0.000115   0.000675  -0.000848  -0.000037  -0.000014
    18  H    0.001737  -0.000017  -0.000005   0.000001   0.000000   0.000000
    19  H   -0.000093   0.000010  -0.000075  -0.000876   0.000128  -0.000000
    20  H    0.000000   0.000000  -0.000001   0.000153   0.000004  -0.000000
    21  H   -0.000000   0.000000  -0.000003   0.000001  -0.000000   0.000000
    22  H   -0.000023   0.000001   0.000030  -0.000002   0.000000  -0.000000
    23  H    0.002209   0.000033   0.000335   0.000002   0.000000   0.000000
    24  H   -0.009526  -0.008656   0.006364  -0.000022   0.000000  -0.000000
    25  H    0.636966  -0.006297  -0.006070  -0.000040  -0.000000   0.000000
    26  H   -0.006297   0.642578  -0.021084   0.000265   0.000014  -0.000001
    27  H   -0.006070  -0.021084   0.634496   0.008012  -0.000009  -0.000001
    28  H   -0.000040   0.000265   0.008012   0.683530  -0.013370  -0.000300
    29  H   -0.000000   0.000014  -0.000009  -0.013370   0.688258  -0.012840
    30  H    0.000000  -0.000001  -0.000001  -0.000300  -0.012840   0.681431
    31  H   -0.000001  -0.000000   0.000012   0.000038  -0.000318  -0.012706
    32  H   -0.000251   0.003359   0.000068  -0.000284   0.000040  -0.000320
    33  H   -0.000118   0.000014  -0.000043   0.000008   0.000000   0.000002
              31         32         33
     1  N   -0.000000  -0.000035   0.004658
     2  S   -0.000004  -0.000005  -0.015463
     3  C    0.000000  -0.000023   0.008970
     4  C   -0.000000  -0.000006   0.000194
     5  C    0.000000  -0.000000  -0.000064
     6  C   -0.000000  -0.000000   0.000007
     7  C   -0.000000   0.000000  -0.000006
     8  C    0.000000   0.000002  -0.000455
     9  C    0.000011   0.001697  -0.000577
    10  C   -0.000346  -0.016088  -0.000259
    11  C    0.016575  -0.081068  -0.000786
    12  C   -0.001800   0.015201   0.000270
    13  C    0.014970  -0.001716  -0.000165
    14  C   -0.073739   0.015023   0.000116
    15  C    0.450499  -0.061327  -0.000043
    16  C   -0.072412   0.446830   0.001278
    17  N   -0.000029   0.000242   0.335429
    18  H    0.000000   0.000001  -0.000216
    19  H   -0.000000   0.000002  -0.000985
    20  H    0.000000   0.000000  -0.000002
    21  H   -0.000000   0.000000   0.000000
    22  H    0.000000   0.000000  -0.000000
    23  H   -0.000000   0.000001  -0.000035
    24  H    0.000021   0.002824   0.001412
    25  H   -0.000001  -0.000251  -0.000118
    26  H   -0.000000   0.003359   0.000014
    27  H    0.000012   0.000068  -0.000043
    28  H    0.000038  -0.000284   0.000008
    29  H   -0.000318   0.000040   0.000000
    30  H   -0.012706  -0.000320   0.000002
    31  H    0.685039  -0.013565   0.000004
    32  H   -0.013565   0.697757  -0.000091
    33  H    0.000004  -0.000091   0.534021
 Mulliken charges:
               1
     1  N   -0.416095
     2  S    0.461756
     3  C   -0.124083
     4  C    0.028154
     5  C   -0.004869
     6  C    0.006826
     7  C   -0.016282
     8  C    0.005934
     9  C   -0.108264
    10  C    0.059955
    11  C   -0.071936
    12  C    0.004919
    13  C   -0.004864
    14  C   -0.009785
    15  C   -0.007677
    16  C   -0.027973
    17  N   -0.401434
    18  H    0.105976
    19  H    0.054062
    20  H    0.023571
    21  H    0.023278
    22  H    0.021880
    23  H    0.006570
    24  H    0.080904
    25  H    0.057226
    26  H    0.059261
    27  H    0.047168
    28  H   -0.000874
    29  H    0.005036
    30  H    0.009246
    31  H    0.007753
    32  H   -0.008266
    33  H    0.132928
 Sum of Mulliken charges =  -0.00000
 Mulliken charges with hydrogens summed into heavy atoms:
               1
     1  N   -0.310119
     2  S    0.461756
     3  C   -0.124083
     4  C    0.082216
     5  C    0.018701
     6  C    0.030104
     7  C    0.005599
     8  C    0.012504
     9  C    0.029866
    10  C    0.166384
    11  C   -0.071936
    12  C    0.004045
    13  C    0.000171
    14  C   -0.000539
    15  C    0.000076
    16  C   -0.036239
    17  N   -0.268507
 Electronic spatial extent (au):  <R**2>=           4221.6922
 Charge=             -0.0000 electrons
 Dipole moment (field-independent basis, Debye):
    X=              1.4505    Y=             -0.8884    Z=              3.2986  Tot=              3.7113
 Quadrupole moment (field-independent basis, Debye-Ang):
   XX=            -98.7024   YY=           -103.2268   ZZ=           -111.0585
   XY=             -6.0136   XZ=              8.4934   YZ=             10.4609
 Traceless Quadrupole moment (field-independent basis, Debye-Ang):
   XX=              5.6268   YY=              1.1024   ZZ=             -6.7293
   XY=             -6.0136   XZ=              8.4934   YZ=             10.4609
 Octapole moment (field-independent basis, Debye-Ang**2):
  XXX=             17.0280  YYY=            -16.1267  ZZZ=              1.8442  XYY=              7.4272
  XXY=              3.2229  XXZ=              3.8099  XZZ=             -3.0484  YZZ=              0.6885
  YYZ=              8.6907  XYZ=              3.3536
 Hexadecapole moment (field-independent basis, Debye-Ang**3):
 XXXX=          -3500.2058 YYYY=          -1438.4249 ZZZZ=           -660.4572 XXXY=            -64.7287
 XXXZ=            156.6638 YYYX=            -30.1959 YYYZ=             80.0963 ZZZX=             23.9960
 ZZZY=             11.9712 XXYY=           -783.6697 XXZZ=           -741.1563 YYZZ=           -371.3873
 XXYZ=             33.2436 YYXZ=             36.2637 ZZXY=            -19.7173
 N-N= 1.338533797996D+03 E-N=-5.131438768662D+03  KE= 1.042062953785D+03
   1 Symmetry operations used in ECPInt.
 ECPInt:  NShTT=   11628 NPrTT=   42474 LenC2=   11057 LenP2D=   29248.
 LDataN:  DoStor=T MaxTD1= 5 Len=  102
 Calling FoFJK, ICntrl=      2127 FMM=F ISym2X=0 I1Cent= 0 IOpClX= 0 NMat=1 NMatS=1 NMatT=0.
 ***** Axes restored to original set *****
 -------------------------------------------------------------------
 Center     Atomic                   Forces (Hartrees/Bohr)
 Number     Number              X              Y              Z
 -------------------------------------------------------------------
      1        7           0.002580308   -0.000543116    0.006589609
      2       16           0.007797293   -0.005121808    0.000691776
      3        6           0.000474401   -0.010064733    0.002216738
      4        6          -0.001376242    0.000033581    0.002251562
      5        6           0.001361659    0.000833348   -0.000967540
      6        6          -0.000909032    0.000643725    0.000155268
      7        6           0.000880372   -0.000964399   -0.000110449
      8        6           0.002565750   -0.001242159   -0.001021522
      9        6          -0.009670980    0.013272161    0.008102828
     10        6           0.001641915   -0.003421401    0.008121753
     11        6          -0.000134475    0.001830949   -0.009020089
     12        6          -0.001817780   -0.001491099   -0.001504554
     13        6          -0.000918753    0.000689171   -0.000035212
     14        6          -0.000984686   -0.000101877    0.001752542
     15        6           0.001129651   -0.001372843    0.000175712
     16        6          -0.000889352    0.000411609   -0.000632263
     17        7          -0.018845600    0.008633876   -0.003425524
     18        1           0.005840127    0.002170575   -0.011377560
     19        1          -0.003508685   -0.005991650    0.007709866
     20        1          -0.007520352    0.002564224    0.004546351
     21        1          -0.004200423    0.007659240   -0.002592507
     22        1           0.003610204    0.004790348   -0.006605773
     23        1           0.008041036   -0.002013268   -0.004923224
     24        1           0.005281621   -0.005554302    0.004917762
     25        1           0.006715319    0.003111834   -0.005327077
     26        1           0.000429256   -0.001192575   -0.005083578
     27        1          -0.002218144    0.003841479   -0.003496634
     28        1          -0.001100710    0.007958571   -0.002608830
     29        1          -0.006952803    0.004687894    0.003401422
     30        1          -0.005456845   -0.003779840    0.006178673
     31        1           0.001402253   -0.008459346    0.002581250
     32        1           0.007165163   -0.004873294   -0.003224760
     33        1           0.009588534   -0.006944875    0.002563984
 -------------------------------------------------------------------
 Cartesian Forces:  Max     0.018845600 RMS     0.005139633

 GradGradGradGradGradGradGradGradGradGradGradGradGradGradGradGradGradGrad
 Berny optimization.
 FormGI is forming the generalized inverse of G from B-inverse, IUseBI=4.
 Internal  Forces:  Max     0.024525763 RMS     0.005051030
 Search for a local minimum.
 Step number   1 out of a maximum of  184
 All quantities printed in internal units (Hartrees-Bohrs-Radians)
 Mixed Optimization -- RFO/linear search
 Second derivative matrix not updated -- first step.
 ITU=  0
     Eigenvalues ---    0.00230   0.00230   0.00533   0.00700   0.01500
     Eigenvalues ---    0.01621   0.02254   0.02275   0.02278   0.02279
     Eigenvalues ---    0.02282   0.02284   0.02286   0.02293   0.02300
     Eigenvalues ---    0.02301   0.02304   0.02308   0.02310   0.02310
     Eigenvalues ---    0.02313   0.02321   0.03495   0.03661   0.03722
     Eigenvalues ---    0.04274   0.04838   0.05577   0.06696   0.07903
     Eigenvalues ---    0.08212   0.09245   0.09302   0.12032   0.12804
     Eigenvalues ---    0.16000   0.16000   0.16000   0.16000   0.16000
     Eigenvalues ---    0.16000   0.16000   0.16000   0.16000   0.16000
     Eigenvalues ---    0.16000   0.16000   0.16346   0.19609   0.21114
     Eigenvalues ---    0.21983   0.21991   0.21999   0.21999   0.22000
     Eigenvalues ---    0.22000   0.23475   0.23490   0.24987   0.24998
     Eigenvalues ---    0.25221   0.30599   0.31862   0.34130   0.34500
     Eigenvalues ---    0.35015   0.35072   0.35846   0.35884   0.35931
     Eigenvalues ---    0.35932   0.35955   0.35984   0.35996   0.36001
     Eigenvalues ---    0.36016   0.36227   0.43545   0.43585   0.43628
     Eigenvalues ---    0.43762   0.46516   0.46843   0.47813   0.48076
     Eigenvalues ---    0.48102   0.48236   0.48357   0.48465   0.48611
     Eigenvalues ---    0.48654   0.66499   0.70049
 RFO step:  Lambda=-1.64314094D-02 EMin= 2.30000000D-03
 Linear search not attempted -- first point.
 Iteration  1 RMS(Cart)=  0.19679477 RMS(Int)=  0.00598184
 Iteration  2 RMS(Cart)=  0.02412034 RMS(Int)=  0.00042635
 Iteration  3 RMS(Cart)=  0.00026823 RMS(Int)=  0.00041494
 Iteration  4 RMS(Cart)=  0.00000019 RMS(Int)=  0.00041494
 Variable       Old X    -DE/DX   Delta X   Delta X   Delta X     New X
                                 (Linear)    (Quad)   (Total)
    R1        2.89840   0.00708   0.00000   0.01039   0.01039   2.90879
    R2        1.90254   0.01258   0.00000   0.02612   0.02612   1.92866
    R3        3.42350  -0.00308   0.00000  -0.01146  -0.01146   3.41203
    R4        3.53957  -0.00611   0.00000  -0.02684  -0.02684   3.51273
    R5        2.87474   0.00416   0.00000   0.00581   0.00581   2.88055
    R6        2.61069   0.01018   0.00000   0.02035   0.02036   2.63104
    R7        2.61340   0.01039   0.00000   0.02080   0.02081   2.63422
    R8        2.61657   0.00963   0.00000   0.01937   0.01937   2.63594
    R9        2.03729   0.01038   0.00000   0.02740   0.02740   2.06468
   R10        2.61925   0.00955   0.00000   0.01913   0.01912   2.63837
   R11        2.04056   0.00915   0.00000   0.02429   0.02429   2.06485
   R12        2.61865   0.01019   0.00000   0.02031   0.02030   2.63895
   R13        2.04087   0.00911   0.00000   0.02421   0.02421   2.06508
   R14        2.61722   0.00815   0.00000   0.01626   0.01626   2.63348
   R15        2.04080   0.00892   0.00000   0.02369   0.02369   2.06449
   R16        2.04190   0.00959   0.00000   0.02552   0.02552   2.06742
   R17        2.86785   0.00964   0.00000   0.02991   0.02991   2.89776
   R18        2.05558   0.00815   0.00000   0.02219   0.02219   2.07777
   R19        2.05650   0.00894   0.00000   0.02440   0.02440   2.08090
   R20        2.84397   0.00507   0.00000   0.01513   0.01513   2.85910
   R21        2.07111   0.00491   0.00000   0.01373   0.01373   2.08484
   R22        2.06494   0.00503   0.00000   0.01393   0.01393   2.07887
   R23        2.62101   0.00953   0.00000   0.01910   0.01910   2.64011
   R24        2.62486   0.00965   0.00000   0.01953   0.01953   2.64439
   R25        2.61391   0.00998   0.00000   0.01986   0.01986   2.63377
   R26        2.04263   0.00844   0.00000   0.02249   0.02249   2.06512
   R27        2.61405   0.00988   0.00000   0.01981   0.01981   2.63385
   R28        2.04152   0.00905   0.00000   0.02407   0.02407   2.06559
   R29        2.61554   0.01058   0.00000   0.02131   0.02131   2.63685
   R30        2.04107   0.00907   0.00000   0.02410   0.02410   2.06517
   R31        2.61223   0.01016   0.00000   0.02023   0.02023   2.63246
   R32        2.04188   0.00895   0.00000   0.02383   0.02383   2.06570
   R33        2.04323   0.00924   0.00000   0.02465   0.02465   2.06787
   R34        1.89892   0.01035   0.00000   0.02135   0.02135   1.92028
    A1        2.00829  -0.00487   0.00000  -0.02762  -0.02762   1.98067
    A2        2.00396  -0.00011   0.00000  -0.00749  -0.00835   1.99562
    A3        1.92333  -0.00654   0.00000  -0.04203  -0.04237   1.88096
    A4        1.99073   0.00609   0.00000   0.04938   0.04959   2.04032
    A5        1.74313   0.00129   0.00000  -0.01052  -0.01093   1.73220
    A6        1.80965  -0.00240   0.00000  -0.00601  -0.00597   1.80368
    A7        1.97723   0.00134   0.00000   0.01112   0.01131   1.98854
    A8        2.07537   0.00201   0.00000   0.00703   0.00694   2.08231
    A9        2.09520  -0.00400   0.00000  -0.01555  -0.01562   2.07959
   A10        2.11216   0.00198   0.00000   0.00794   0.00790   2.12007
   A11        2.08386  -0.00210   0.00000  -0.00812  -0.00810   2.07576
   A12        2.05852   0.00098   0.00000   0.00368   0.00367   2.06219
   A13        2.14081   0.00112   0.00000   0.00444   0.00443   2.14524
   A14        2.09433   0.00080   0.00000   0.00352   0.00353   2.09785
   A15        2.09351  -0.00073   0.00000  -0.00360  -0.00360   2.08990
   A16        2.09535  -0.00008   0.00000   0.00008   0.00008   2.09543
   A17        2.09846   0.00015   0.00000   0.00020   0.00019   2.09864
   A18        2.09454  -0.00012   0.00000  -0.00037  -0.00036   2.09418
   A19        2.09017  -0.00003   0.00000   0.00015   0.00016   2.09033
   A20        2.09259   0.00024   0.00000   0.00067   0.00066   2.09325
   A21        2.09731   0.00010   0.00000   0.00091   0.00091   2.09822
   A22        2.09329  -0.00034   0.00000  -0.00159  -0.00159   2.09170
   A23        2.08485  -0.00107   0.00000  -0.00427  -0.00426   2.08060
   A24        2.09835   0.00156   0.00000   0.00794   0.00793   2.10627
   A25        2.09997  -0.00049   0.00000  -0.00368  -0.00369   2.09628
   A26        1.95621   0.02453   0.00000   0.11143   0.11107   2.06728
   A27        1.82688  -0.00979   0.00000  -0.03955  -0.04149   1.78539
   A28        1.85839  -0.00905   0.00000  -0.04158  -0.04196   1.81643
   A29        1.95872  -0.00332   0.00000   0.00343   0.00344   1.96216
   A30        1.94934  -0.00594   0.00000  -0.02170  -0.02088   1.92846
   A31        1.90773   0.00303   0.00000  -0.01630  -0.01780   1.88993
   A32        1.95966   0.01707   0.00000   0.08050   0.07962   2.03928
   A33        1.89381  -0.00653   0.00000  -0.04267  -0.04182   1.85198
   A34        1.90655  -0.00283   0.00000   0.00826   0.00610   1.91265
   A35        1.90832  -0.00543   0.00000  -0.03318  -0.03203   1.87629
   A36        1.91252  -0.00388   0.00000   0.00677   0.00448   1.91700
   A37        1.88127   0.00101   0.00000  -0.02421  -0.02452   1.85675
   A38        2.10692   0.00106   0.00000   0.00424   0.00419   2.11111
   A39        2.10271   0.00009   0.00000   0.00060   0.00054   2.10325
   A40        2.07350  -0.00116   0.00000  -0.00504  -0.00509   2.06841
   A41        2.10552   0.00108   0.00000   0.00403   0.00402   2.10954
   A42        2.08629  -0.00086   0.00000  -0.00382  -0.00383   2.08246
   A43        2.09136  -0.00022   0.00000  -0.00023  -0.00024   2.09113
   A44        2.09708  -0.00006   0.00000  -0.00022  -0.00023   2.09686
   A45        2.09103   0.00004   0.00000   0.00019   0.00019   2.09122
   A46        2.09507   0.00001   0.00000   0.00003   0.00003   2.09510
   A47        2.08789  -0.00064   0.00000  -0.00228  -0.00230   2.08559
   A48        2.09860   0.00026   0.00000   0.00081   0.00081   2.09941
   A49        2.09669   0.00038   0.00000   0.00146   0.00146   2.09815
   A50        2.09626  -0.00002   0.00000   0.00017   0.00016   2.09642
   A51        2.09556  -0.00003   0.00000  -0.00034  -0.00034   2.09522
   A52        2.09137   0.00006   0.00000   0.00017   0.00017   2.09154
   A53        2.10589   0.00078   0.00000   0.00303   0.00302   2.10890
   A54        2.09090  -0.00024   0.00000  -0.00063  -0.00064   2.09026
   A55        2.08640  -0.00055   0.00000  -0.00239  -0.00240   2.08399
   A56        1.98615  -0.01145   0.00000  -0.06490  -0.06490   1.92125
    D1       -1.08368   0.00031   0.00000   0.00237   0.00226  -1.08142
    D2        0.86769  -0.00236   0.00000  -0.04221  -0.04179   0.82591
    D3        3.11438  -0.00115   0.00000  -0.02242  -0.02273   3.09165
    D4       -2.15559  -0.00367   0.00000  -0.01072  -0.01073  -2.16632
    D5        0.95410  -0.00429   0.00000  -0.03128  -0.03120   0.92291
    D6        2.07133   0.00334   0.00000   0.04893   0.04893   2.12026
    D7       -1.10216   0.00272   0.00000   0.02837   0.02847  -1.07370
    D8        0.02772   0.00220   0.00000   0.04268   0.04255   0.07027
    D9        3.13741   0.00158   0.00000   0.02212   0.02208  -3.12369
   D10       -3.05496   0.00285   0.00000   0.04381   0.04349  -3.01147
   D11        1.10095  -0.00059   0.00000   0.00250   0.00306   1.10401
   D12       -0.91857   0.00436   0.00000   0.05688   0.05584  -0.86274
   D13       -0.93963   0.00063   0.00000   0.01166   0.01185  -0.92779
   D14       -3.06691  -0.00281   0.00000  -0.02965  -0.02858  -3.09549
   D15        1.19675   0.00214   0.00000   0.02473   0.02419   1.22094
   D16        0.97421  -0.00098   0.00000   0.00311   0.00309   0.97730
   D17       -1.15306  -0.00442   0.00000  -0.03820  -0.03734  -1.19040
   D18        3.11060   0.00053   0.00000   0.01618   0.01543   3.12603
   D19       -0.53067   0.00048   0.00000  -0.01199  -0.01220  -0.54287
   D20       -2.72246  -0.00142   0.00000  -0.02877  -0.02889  -2.75135
   D21        1.68844  -0.00217   0.00000  -0.01777  -0.01743   1.67100
   D22        3.12555  -0.00072   0.00000  -0.01887  -0.01902   3.10652
   D23       -0.01753  -0.00053   0.00000  -0.01462  -0.01476  -0.03229
   D24        0.01617   0.00002   0.00000   0.00234   0.00238   0.01855
   D25       -3.12690   0.00021   0.00000   0.00658   0.00664  -3.12026
   D26       -3.12454   0.00049   0.00000   0.01550   0.01541  -3.10913
   D27        0.01122   0.00037   0.00000   0.01260   0.01253   0.02374
   D28       -0.01553  -0.00015   0.00000  -0.00553  -0.00555  -0.02108
   D29        3.12023  -0.00027   0.00000  -0.00842  -0.00843   3.11179
   D30       -0.00541   0.00013   0.00000   0.00253   0.00251  -0.00291
   D31        3.13772   0.00010   0.00000   0.00181   0.00180   3.13952
   D32        3.13774  -0.00007   0.00000  -0.00192  -0.00197   3.13577
   D33       -0.00232  -0.00010   0.00000  -0.00265  -0.00267  -0.00499
   D34       -0.00578  -0.00014   0.00000  -0.00411  -0.00411  -0.00989
   D35        3.14150  -0.00006   0.00000  -0.00152  -0.00151   3.13999
   D36        3.13428  -0.00011   0.00000  -0.00339  -0.00340   3.13087
   D37       -0.00163  -0.00003   0.00000  -0.00079  -0.00081  -0.00244
   D38        0.00643   0.00002   0.00000   0.00093   0.00093   0.00736
   D39       -3.13304   0.00017   0.00000   0.00515   0.00513  -3.12791
   D40       -3.14084  -0.00005   0.00000  -0.00166  -0.00166   3.14069
   D41        0.00288   0.00009   0.00000   0.00256   0.00254   0.00542
   D42        0.00411   0.00010   0.00000   0.00378   0.00376   0.00787
   D43       -3.13164   0.00022   0.00000   0.00664   0.00659  -3.12505
   D44       -3.13960  -0.00004   0.00000  -0.00042  -0.00042  -3.14002
   D45        0.00783   0.00007   0.00000   0.00244   0.00241   0.01024
   D46       -1.04376  -0.00280   0.00000  -0.08005  -0.08108  -1.12483
   D47        3.12816  -0.00242   0.00000  -0.06070  -0.06078   3.06738
   D48        1.08158   0.00163   0.00000  -0.01222  -0.01230   1.06928
   D49        1.00623  -0.00100   0.00000  -0.05321  -0.05327   0.95296
   D50       -1.10504  -0.00062   0.00000  -0.03386  -0.03298  -1.13802
   D51        3.13157   0.00344   0.00000   0.01462   0.01550  -3.13612
   D52       -3.12754  -0.00394   0.00000  -0.08826  -0.08906   3.06659
   D53        1.04438  -0.00355   0.00000  -0.06891  -0.06876   0.97561
   D54       -1.00221   0.00050   0.00000  -0.02043  -0.02028  -1.02249
   D55        2.08019   0.00315   0.00000   0.07660   0.07716   2.15735
   D56       -1.07279   0.00250   0.00000   0.05657   0.05709  -1.01570
   D57       -2.10010   0.00229   0.00000   0.05239   0.05223  -2.04787
   D58        1.03011   0.00163   0.00000   0.03236   0.03216   1.06226
   D59       -0.04174  -0.00196   0.00000   0.00748   0.00715  -0.03459
   D60        3.08847  -0.00262   0.00000  -0.01255  -0.01292   3.07555
   D61       -3.13155  -0.00019   0.00000  -0.00669  -0.00669  -3.13824
   D62        0.00473  -0.00041   0.00000  -0.01254  -0.01253  -0.00780
   D63        0.02124   0.00045   0.00000   0.01298   0.01296   0.03420
   D64       -3.12567   0.00022   0.00000   0.00713   0.00711  -3.11855
   D65        3.13090   0.00011   0.00000   0.00457   0.00454   3.13544
   D66       -0.01141   0.00044   0.00000   0.01321   0.01318   0.00177
   D67       -0.02186  -0.00052   0.00000  -0.01502  -0.01499  -0.03685
   D68        3.11901  -0.00019   0.00000  -0.00638  -0.00635   3.11267
   D69       -0.00593  -0.00007   0.00000  -0.00238  -0.00239  -0.00832
   D70        3.13281  -0.00015   0.00000  -0.00429  -0.00430   3.12851
   D71        3.14099   0.00015   0.00000   0.00350   0.00350  -3.13870
   D72       -0.00345   0.00007   0.00000   0.00159   0.00159  -0.00187
   D73       -0.00911  -0.00024   0.00000  -0.00647  -0.00647  -0.01557
   D74        3.13500  -0.00000   0.00000   0.00003   0.00004   3.13504
   D75        3.13534  -0.00016   0.00000  -0.00455  -0.00455   3.13079
   D76       -0.00373   0.00008   0.00000   0.00196   0.00195  -0.00178
   D77        0.00849   0.00016   0.00000   0.00443   0.00444   0.01293
   D78       -3.13335   0.00026   0.00000   0.00698   0.00699  -3.12636
   D79       -3.13562  -0.00008   0.00000  -0.00206  -0.00206  -3.13768
   D80        0.00573   0.00002   0.00000   0.00049   0.00049   0.00622
   D81        0.00716   0.00023   0.00000   0.00647   0.00648   0.01363
   D82       -3.13372  -0.00010   0.00000  -0.00215  -0.00214  -3.13586
   D83       -3.13419   0.00014   0.00000   0.00393   0.00393  -3.13026
   D84        0.00812  -0.00019   0.00000  -0.00469  -0.00468   0.00343
         Item               Value     Threshold  Converged?
 Maximum Force            0.024526     0.000450     NO 
[...]
     8  C    0.000010  -0.000006   0.000018  -0.000057   0.019026   0.003832
     9  C    0.000836  -0.001194   0.005994  -0.011804  -0.045539  -0.005726
    10  C    0.014961  -0.000985   0.005884  -0.078750  -0.016057   0.002378
    11  C    0.037245  -0.109034   0.042190   0.386978   0.014092   0.000122
    12  C    0.433659   0.037113  -0.089571   0.024418   0.001964  -0.000155
    13  C    4.906332   0.455549   0.027230  -0.098489  -0.002701   0.000010
    14  C    0.455549   4.903395   0.456738   0.047752   0.000185  -0.000005
    15  C    0.027230   0.456738   4.909996   0.418833   0.000281   0.000014
    16  C   -0.098489   0.047752   0.418833   5.141804   0.000943  -0.000099
    17  N   -0.002701   0.000185   0.000281   0.000943   6.929051   0.007477
    18  H    0.000010  -0.000005   0.000014  -0.000099   0.007477   0.496819
    19  H    0.000113  -0.000000  -0.000002   0.000042   0.014898  -0.000069
    20  H   -0.000000  -0.000000   0.000000  -0.000000  -0.000105   0.000000
    21  H   -0.000000   0.000000  -0.000000   0.000000  -0.000001  -0.000000
    22  H    0.000000   0.000000  -0.000000   0.000000  -0.000001  -0.000010
    23  H    0.000000  -0.000000   0.000001  -0.000006   0.002224   0.001326
    24  H   -0.000273   0.000191  -0.000600  -0.002263  -0.003131  -0.000084
    25  H   -0.000022   0.000010  -0.000133   0.000585   0.003531  -0.000886
    26  H   -0.001535   0.000304   0.001102   0.004550   0.000304  -0.000108
    27  H    0.001464   0.000034  -0.000419   0.003171   0.000284   0.000062
    28  H   -0.052850   0.012507  -0.003443   0.015474   0.007615  -0.000011
    29  H    0.425659  -0.054910   0.010860  -0.002084  -0.000192   0.000000
    30  H   -0.048227   0.420960  -0.049872   0.009866  -0.000002  -0.000000
    31  H    0.010019  -0.050452   0.423367  -0.053111   0.000001   0.000000
    32  H   -0.003194   0.010762  -0.047737   0.427609   0.000065  -0.000021
    33  H    0.001077  -0.000136   0.000196  -0.001315   0.305231   0.000407
              19         20         21         22         23         24
     1  N    0.000546   0.000006  -0.000002  -0.000084   0.025517   0.012142
     2  S   -0.008240  -0.000310   0.000028  -0.000473   0.015916  -0.022971
     3  C   -0.040283   0.009906  -0.001776   0.012675  -0.133764   0.012333
     4  C    0.419294  -0.050108   0.010542  -0.001754   0.012476  -0.000187
     5  C   -0.053289   0.424409  -0.050512   0.009538  -0.004373   0.000081
     6  C    0.008051  -0.050125   0.422204  -0.049498   0.012625  -0.000012
     7  C   -0.003027   0.008916  -0.048129   0.421980  -0.039129  -0.000061
     8  C    0.013326  -0.000185   0.009477  -0.048385   0.441931  -0.002548
     9  C    0.002810  -0.000009   0.000003   0.000009   0.002243   0.380095
    10  C   -0.000620  -0.000014   0.000000   0.000001  -0.000726  -0.031438
    11  C   -0.000864   0.000012  -0.000000   0.000001   0.000014  -0.004009
    12  C   -0.000074   0.000001   0.000000   0.000000  -0.000012   0.004157
    13  C    0.000113  -0.000000  -0.000000   0.000000   0.000000  -0.000273
    14  C   -0.000000  -0.000000   0.000000   0.000000  -0.000000   0.000191
    15  C   -0.000002   0.000000  -0.000000  -0.000000   0.000001  -0.000600
    16  C    0.000042  -0.000000   0.000000   0.000000  -0.000006  -0.002263
    17  N    0.014898  -0.000105  -0.000001  -0.000001   0.002224  -0.003131
    18  H   -0.000069   0.000000  -0.000000  -0.000010   0.001326  -0.000084
    19  H    0.479731  -0.005587  -0.000172   0.000048   0.000087  -0.000169
    20  H   -0.005587   0.546045  -0.007792  -0.000266   0.000111  -0.000001
    21  H   -0.000172  -0.007792   0.548764  -0.007169  -0.000320   0.000000
    22  H    0.000048  -0.000266  -0.007169   0.545136  -0.007814   0.000000
    23  H    0.000087   0.000111  -0.000320  -0.007814   0.557823  -0.001081
    24  H   -0.000169  -0.000001   0.000000   0.000000  -0.001081   0.522470
    25  H   -0.000087   0.000008  -0.000003   0.000038  -0.000081  -0.020620
    26  H    0.000212  -0.000001   0.000000  -0.000001   0.000129  -0.001988
    27  H   -0.002219   0.000021  -0.000002   0.000003  -0.000159   0.004300
    28  H    0.000123   0.000012  -0.000000   0.000000  -0.000004   0.000133
    29  H    0.000006  -0.000000  -0.000000  -0.000000   0.000000  -0.000000
    30  H    0.000000  -0.000000   0.000000   0.000000  -0.000000  -0.000001
    31  H   -0.000000   0.000000  -0.000000  -0.000000   0.000000   0.000021
    32  H    0.000000  -0.000000   0.000000   0.000000  -0.000001   0.001829
    33  H   -0.001022  -0.000002   0.000000  -0.000000  -0.000134   0.001803
              25         26         27         28         29         30
     1  N    0.003273  -0.000535   0.000656   0.000088  -0.000001   0.000000
     2  S   -0.016194   0.001942  -0.001473   0.001040  -0.000033   0.000002
     3  C    0.013788  -0.001758   0.006593  -0.000414   0.000007  -0.000000
     4  C    0.000863   0.001228  -0.003015   0.001552  -0.000014   0.000000
     5  C    0.000382  -0.000223   0.002730   0.000378  -0.000001   0.000000
     6  C   -0.000396   0.000085  -0.000364  -0.000014   0.000000   0.000000
     7  C    0.001474  -0.000143   0.000271   0.000003  -0.000000  -0.000000
     8  C   -0.012288   0.000725  -0.000861  -0.000047   0.000000  -0.000000
     9  C    0.347394  -0.024337  -0.040416  -0.001080   0.000047  -0.000006
    10  C   -0.016277   0.372481   0.422309  -0.011269  -0.000455   0.000110
    11  C    0.010825  -0.039274  -0.049312  -0.067284   0.012741  -0.000833
    12  C   -0.000552   0.000145   0.010631   0.431860  -0.051236   0.008976
    13  C   -0.000022  -0.001535   0.001464  -0.052850   0.425659  -0.048227
    14  C    0.000010   0.000304   0.000034   0.012507  -0.054910   0.420960
    15  C   -0.000133   0.001102  -0.000419  -0.003443   0.010860  -0.049872
    16  C    0.000585   0.004550   0.003171   0.015474  -0.002084   0.009866
    17  N    0.003531   0.000304   0.000284   0.007615  -0.000192  -0.000002
    18  H   -0.000886  -0.000108   0.000062  -0.000011   0.000000  -0.000000
    19  H   -0.000087   0.000212  -0.002219   0.000123   0.000006   0.000000
    20  H    0.000008  -0.000001   0.000021   0.000012  -0.000000  -0.000000
    21  H   -0.000003   0.000000  -0.000002  -0.000000  -0.000000   0.000000
    22  H    0.000038  -0.000001   0.000003   0.000000  -0.000000   0.000000
    23  H   -0.000081   0.000129  -0.000159  -0.000004   0.000000  -0.000000
    24  H   -0.020620  -0.001988   0.004300   0.000133  -0.000000  -0.000001
    25  H    0.543317  -0.008507   0.001222  -0.000019  -0.000001   0.000000
    26  H   -0.008507   0.582597  -0.020953   0.000595   0.000019  -0.000003
    27  H    0.001222  -0.020953   0.513103   0.003621  -0.000054  -0.000003
    28  H   -0.000019   0.000595   0.003621   0.564399  -0.008751  -0.000304
    29  H   -0.000001   0.000019  -0.000054  -0.008751   0.558623  -0.007806
    30  H    0.000000  -0.000003  -0.000003  -0.000304  -0.007806   0.557827
    31  H   -0.000002  -0.000023   0.000016   0.000075  -0.000302  -0.007725
    32  H   -0.000044   0.002192   0.000145  -0.000199   0.000079  -0.000320
    33  H   -0.000039  -0.000035   0.000234  -0.000932   0.000027  -0.000001
              31         32         33
     1  N   -0.000001   0.000032  -0.000494
     2  S   -0.000003   0.000051  -0.007139
     3  C    0.000000  -0.000006   0.016043
     4  C   -0.000000   0.000003  -0.002485
     5  C   -0.000000   0.000000  -0.000036
     6  C   -0.000000   0.000000  -0.000005
     7  C   -0.000000  -0.000000   0.000060
     8  C    0.000000  -0.000005  -0.001342
     9  C    0.000096  -0.000824  -0.006768
    10  C   -0.000558  -0.002920  -0.002035
    11  C    0.011992  -0.070286   0.005557
    12  C   -0.001624   0.013706  -0.003845
    13  C    0.010019  -0.003194   0.001077
    14  C   -0.050452   0.010762  -0.000136
    15  C    0.423367  -0.047737   0.000196
    16  C   -0.053111   0.427609  -0.001315
    17  N    0.000001   0.000065   0.305231
    18  H    0.000000  -0.000021   0.000407
    19  H   -0.000000   0.000000  -0.001022
    20  H    0.000000  -0.000000  -0.000002
    21  H   -0.000000   0.000000   0.000000
    22  H   -0.000000   0.000000  -0.000000
    23  H    0.000000  -0.000001  -0.000134
    24  H    0.000021   0.001829   0.001803
    25  H   -0.000002  -0.000044  -0.000039
    26  H   -0.000023   0.002192  -0.000035
    27  H    0.000016   0.000145   0.000234
    28  H    0.000075  -0.000199  -0.000932
    29  H   -0.000302   0.000079   0.000027
    30  H   -0.007725  -0.000320  -0.000001
    31  H    0.559761  -0.008230  -0.000001
    32  H   -0.008230   0.562667  -0.000029
    33  H   -0.000001  -0.000029   0.473011
 Mulliken charges:
               1
     1  N   -0.556697
     2  S    0.497689
     3  C    0.192859
     4  C   -0.211387
     5  C   -0.108063
     6  C   -0.103720
     7  C   -0.121050
     8  C   -0.217674
     9  C   -0.289769
    10  C   -0.215101
    11  C    0.170025
    12  C   -0.187254
    13  C   -0.107084
    14  C   -0.129129
    15  C   -0.110092
    16  C   -0.234709
    17  N   -0.529854
    18  H    0.215151
    19  H    0.176436
    20  H    0.125058
    21  H    0.124861
    22  H    0.126026
    23  H    0.115179
    24  H    0.151881
    25  H    0.149443
    26  H    0.130814
    27  H    0.148380
    28  H    0.107144
    29  H    0.117770
    30  H    0.117362
    31  H    0.116683
    32  H    0.114674
    33  H    0.224148
 Sum of Mulliken charges =  -0.00000
 Mulliken charges with hydrogens summed into heavy atoms:
               1
     1  N   -0.341546
     2  S    0.497689
     3  C    0.192859
     4  C   -0.034951
     5  C    0.016995
     6  C    0.021141
     7  C    0.004976
     8  C   -0.102496
     9  C    0.011555
    10  C    0.064093
    11  C    0.170025
    12  C   -0.080110
    13  C    0.010686
    14  C   -0.011767
    15  C    0.006591
    16  C   -0.120035
    17  N   -0.305705
 Electronic spatial extent (au):  <R**2>=           5102.8599
 Charge=              0.0000 electrons
 Dipole moment (field-independent basis, Debye):
    X=              0.2746    Y=             -0.9083    Z=              3.9880  Tot=              4.0993
 Quadrupole moment (field-independent basis, Debye-Ang):
   XX=            -95.4348   YY=           -105.3417   ZZ=           -114.0687
   XY=             -6.1653   XZ=              8.5300   YZ=             10.5646
 Traceless Quadrupole moment (field-independent basis, Debye-Ang):
   XX=              9.5136   YY=             -0.3933   ZZ=             -9.1203
   XY=             -6.1653   XZ=              8.5300   YZ=             10.5646
 Octapole moment (field-independent basis, Debye-Ang**2):
  XXX=             22.9052  YYY=            -10.6184  ZZZ=              8.0342  XYY=             10.8923
  XXY=             -1.8075  XXZ=              7.6679  XZZ=            -14.0115  YZZ=             -0.8215
  YYZ=             13.0262  XYZ=             -2.9140
 Hexadecapole moment (field-independent basis, Debye-Ang**3):
 XXXX=          -4901.6648 YYYY=          -1047.9815 ZZZZ=           -638.0007 XXXY=            -92.2695
 XXXZ=            176.3987 YYYX=            -48.8380 YYYZ=             75.0612 ZZZX=             16.3922
 ZZZY=             17.7131 XXYY=          -1036.3434 XXZZ=          -1036.4782 YYZZ=           -307.0302
 XXYZ=             67.1762 YYXZ=             37.5611 ZZXY=             -6.0967
 N-N= 1.291921445690D+03 E-N=-5.043569158917D+03  KE= 1.045804631021D+03
 Breneman (CHELPG) radii used.
 Read replacement radii for each type of atom:
 Atom Element Radius
    1     7    1.70
    2    16    2.00
    3     6    1.50
    4     6    1.50
    5     6    1.50
    6     6    1.50
    7     6    1.50
    8     6    1.50
    9     6    1.50
   10     6    1.50
   11     6    1.50
   12     6    1.50
   13     6    1.50
   14     6    1.50
   15     6    1.50
   16     6    1.50
   17     7    1.70
   18     1    1.45
   19     1    1.45
   20     1    1.45
   21     1    1.45
   22     1    1.45
   23     1    1.45
   24     1    1.45
   25     1    1.45
   26     1    1.45
   27     1    1.45
   28     1    1.45
   29     1    1.45
   30     1    1.45
   31     1    1.45
   32     1    1.45
   33     1    1.45
 Generate Potential Derived Charges using the Breneman model, NDens= 1.
 Grid spacing= 0.300 Box extension= 2.800
 NStep X,Y,Z=   57     41     35   Total possible points=       81795
 Number of Points to Fit=   19404

 **********************************************************************

            Electrostatic Properties Using The SCF Density.

 **********************************************************************

       Atomic Center    1 is at   1.055959  2.524413 -1.043776
       Atomic Center    2 is at   0.679556  1.075834 -0.654142
       Atomic Center    3 is at   2.101640  0.061611 -0.218660
       Atomic Center    4 is at   2.112027 -1.314545 -0.435354
       Atomic Center    5 is at   3.242965 -2.043197 -0.070959
       Atomic Center    6 is at   4.343378 -1.397740  0.493663
       Atomic Center    7 is at   4.326591 -0.015888  0.683562
       Atomic Center    8 is at   3.202506  0.721447  0.318841
       Atomic Center    9 is at  -0.155315  1.156826  0.987565
       Atomic Center   10 is at  -0.852662 -0.137082  1.384814
       Atomic Center   11 is at  -2.207061 -0.324141  0.748814
       Atomic Center   12 is at  -2.429727 -1.298465 -0.228360
       Atomic Center   13 is at  -3.688359 -1.452566 -0.806903
       Atomic Center   14 is at  -4.745323 -0.630971 -0.419578
       Atomic Center   15 is at  -4.536199  0.344613  0.554361
       Atomic Center   16 is at  -3.277706  0.492636  1.132629
       Atomic Center   17 is at  -0.018904  0.177342 -1.691418
       Atomic Center   18 is at   1.028219  3.129024 -0.221049
       Atomic Center   19 is at   1.247842 -1.781289 -0.910054
       Atomic Center   20 is at   3.268077 -3.122653 -0.237583
       Atomic Center   21 is at   5.227428 -1.974740  0.775135
       Atomic Center   22 is at   5.198355  0.491626  1.102806
       Atomic Center   23 is at   3.180825  1.810389  0.414057
       Atomic Center   24 is at  -0.866869  1.990327  0.878361
       Atomic Center   25 is at   0.626852  1.451055  1.703941
       Atomic Center   26 is at  -0.971219 -0.128295  2.481133
       Atomic Center   27 is at  -0.200711 -0.995256  1.158548
       Atomic Center   28 is at  -1.599231 -1.927263 -0.554278
       Atomic Center   29 is at  -3.841557 -2.217911 -1.571581
       Atomic Center   30 is at  -5.731107 -0.750536 -0.875265
       Atomic Center   31 is at  -5.358968  0.991234  0.869047
       Atomic Center   32 is at  -3.125712  1.255437  1.902839
       Atomic Center   33 is at  -0.835025  0.677978 -2.050043
   19404 points will be used for fitting atomic charges
 Fitting point charges to electrostatic potential
 Charges from ESP fit, RMS=   0.00379 RRMS=   0.22794:
 ESP charges:
               1
     1  N   -0.767326
     2  S    0.665794
     3  C    0.110981
     4  C   -0.065792
     5  C   -0.111146
     6  C   -0.076627
     7  C   -0.112551
     8  C   -0.125288
     9  C    0.064350
    10  C   -0.144786
    11  C    0.174975
    12  C   -0.164411
    13  C   -0.070362
    14  C   -0.120620
    15  C   -0.065346
    16  C   -0.206117
    17  N   -0.715858
    18  H    0.313764
    19  H    0.113857
    20  H    0.099028
    21  H    0.098626
    22  H    0.108622
    23  H    0.106195
    24  H    0.019987
    25  H   -0.009766
    26  H    0.063996
    27  H   -0.012781
    28  H    0.125664
    29  H    0.086775
    30  H    0.096028
    31  H    0.087077
    32  H    0.112077
    33  H    0.320979
 Sum of ESP charges =   0.00000
 ESP charges with hydrogens summed into heavy atoms:
               1
     1  N   -0.453562
     2  S    0.665794
     3  C    0.110981
     4  C    0.048065
     5  C   -0.012117
     6  C    0.021999
     7  C   -0.003929
     8  C   -0.019093
     9  C    0.074571
    10  C   -0.093571
    11  C    0.174975
    12  C   -0.038747
    13  C    0.016413
    14  C   -0.024592
    15  C    0.021731
    16  C   -0.094040
    17  N   -0.394879
 Charge=   0.00000 Dipole=     0.2538    -1.0318     3.9988 Tot=     4.1375
 -----------------------------------------------------------------

              Electrostatic Properties (Atomic Units)

 -----------------------------------------------------------------
    Center     Electric         -------- Electric Field --------
               Potential          X             Y             Z
 -----------------------------------------------------------------
    1 Atom    -18.428754
    2 Atom    -59.078254
    3 Atom    -14.731429
    4 Atom    -14.746635
    5 Atom    -14.748011
    6 Atom    -14.746313
    7 Atom    -14.746744
    8 Atom    -14.744049
    9 Atom    -14.726003
   10 Atom    -14.740852
   11 Atom    -14.750586
   12 Atom    -14.765552
   13 Atom    -14.763341
   14 Atom    -14.763158
   15 Atom    -14.761277
   16 Atom    -14.761240
   17 Atom    -18.428709
   18 Atom     -1.048529
   19 Atom     -1.092705
   20 Atom     -1.090665
   21 Atom     -1.089193
   22 Atom     -1.089242
   23 Atom     -1.084985
   24 Atom     -1.079252
   25 Atom     -1.076799
   26 Atom     -1.097624
   27 Atom     -1.100688
   28 Atom     -1.107932
   29 Atom     -1.104313
   30 Atom     -1.103091
   31 Atom     -1.101668
   32 Atom     -1.097881
   33 Atom     -1.054222
 -----------------------------------------------------------------
 Unable to Open any file for archive entry.
 1\1\GINC-NOTCH229\SP\RPBE1PBE\def2TZVP\C14H16N2S1\U1414944\06-Jun-2025
 \0\\#N Guess=Read Geom=Check Integral(Ultrafine) Density Pop=(ChelpG,R
 eadRadii) NMR pbe1pbe EmpiricalDispersion=GD3BJ def2TZVP\\SDI0241_13\\
 0,1\N,0,2.7294660129,0.3194588069,0.9299896825\S,0,1.233682121,0.41742
 58147,0.5493223098\C,0,0.7928330831,1.9872622273,-0.213488089\C,0,-0.4
 802821692,2.5356561842,-0.074520456\C,0,-0.7587149676,3.7523897388,-0.
 6948210008\C,0,0.2271775695,4.4065085632,-1.4340538282\C,0,1.503949895
 1,3.8557362265,-1.5452297987\C,0,1.792963346,2.6421876258,-0.925533333
 2\C,0,0.9658903393,-0.7083469963,-0.885840885\C,0,-0.5021987191,-0.959
 7095459,-1.2017954593\C,0,-1.1511720106,-1.9951451243,-0.3182854388\C,
 0,-2.1153284237,-1.6473986453,0.6320987107\C,0,-2.700340235,-2.6192711
 102,1.4419387841\C,0,-2.3272408619,-3.9561817242,1.3167252923\C,0,-1.3
 667331442,-4.3160466097,0.3722801309\C,0,-0.7874290287,-3.3420604277,-
 0.4375756702\N,0,0.1693646924,0.3170806063,1.6575795873\H,0,3.26228951
 62,-0.0917396921,0.1617332813\H,0,-1.21634009,2.013944624,0.5387028577
 \H,0,-1.751284969,4.1973067404,-0.5924860098\H,0,0.0027022254,5.360982
 2451,-1.9160214194\H,0,2.2821219364,4.381067398,-2.1036053681\H,0,2.79
 73943483,2.2116269776,-0.9581964245\H,0,1.4875497148,-1.6332700214,-0.
 593696817\H,0,1.5054781773,-0.2488643908,-1.7280245937\H,0,-0.56425752
 29,-1.2955799735,-2.2503130843\H,0,-1.0600772561,-0.011403371,-1.15505
 61647\H,0,-2.3923343014,-0.5985361318,0.7524645112\H,0,-3.4499096193,-
 2.3269426544,2.1812931881\H,0,-2.7843155821,-4.7172509415,1.9535708427
 \H,0,-1.0700429043,-5.3619766025,0.2622779736\H,0,-0.0408042438,-3.635
 7054814,-1.1822346275\H,0,0.3492079631,-0.5322906026,2.197512134\\Vers
 ion=ES64L-G16RevC.01\State=1-A\HF=-1050.086702\RMSD=3.479e-09\Dipole=-
 0.3329218,-0.0949218,-1.5751978\Quadrupole=-2.9030682,7.3286115,-4.425
 5433,-2.9414301,-9.3097127,-5.8979401\PG=C01 [X(C14H16N2S1)]\\@
 The archive entry for this job was punched.


 OF ALL THE WONDERS OF THE UNIVERSE, THE GREATEST IS MAN.

                                    -- ARISTOTLE
 Job cpu time:       0 days  0 hours 52 minutes 33.3 seconds.
 Elapsed time:       0 days  0 hours  3 minutes 35.5 seconds.
 File lengths (MBytes):  RWF=    238 Int=      0 D2E=      0 Chk=     37 Scr=      2
 Normal termination of Gaussian 16 at Fri Jun  6 22:01:51 2025.
