 Entering Gaussian System, Link 0=g16
 Input=SDI0241_10.com
 Output=SDI0241_10.log
 Initial command:
 /uufs/chpc.utah.edu/sys/installdir/gaussian16/C01/AVX/g16/l1.exe "/scratch/general/vast/u1414944/4692925-notchpeak.peaks/Gau-3315789.inp" -scrdir="/scratch/general/vast/u1414944/4692925-notchpeak.peaks/"
 Entering Link 1 = /uufs/chpc.utah.edu/sys/installdir/gaussian16/C01/AVX/g16/l1.exe PID=   3315790.
  
 Copyright (c) 1988-2019, Gaussian, Inc.  All Rights Reserved.
  
 This is part of the Gaussian(R) 16 program.  It is based on
 the Gaussian(R) 09 system (copyright 2009, Gaussian, Inc.),
 the Gaussian(R) 03 system (copyright 2003, Gaussian, Inc.),
 the Gaussian(R) 98 system (copyright 1998, Gaussian, Inc.),
 the Gaussian(R) 94 system (copyright 1995, Gaussian, Inc.),
 the Gaussian 92(TM) system (copyright 1992, Gaussian, Inc.),
 the Gaussian 90(TM) system (copyright 1990, Gaussian, Inc.),
 the Gaussian 88(TM) system (copyright 1988, Gaussian, Inc.),
 the Gaussian 86(TM) system (copyright 1986, Carnegie Mellon
 University), and the Gaussian 82(TM) system (copyright 1983,
 Carnegie Mellon University). Gaussian is a federally registered
 trademark of Gaussian, Inc.
  
 This software contains proprietary and confidential information,
 including trade secrets, belonging to Gaussian, Inc.
  
 This software is provided under written license and may be
 used, copied, transmitted, or stored only in accord with that
 written license.
  
 The following legend is applicable only to US Government
 contracts under FAR:
  
                    RESTRICTED RIGHTS LEGEND
  
 Use, reproduction and disclosure by the US Government is
 subject to restrictions as set forth in subparagraphs (a)
 and (c) of the Commercial Computer Software - Restricted
 Rights clause in FAR 52.227-19.
  
 Gaussian, Inc.
 340 Quinnipiac St., Bldg. 40, Wallingford CT 06492
  
  
 ---------------------------------------------------------------
 Warning -- This program may not be used in any manner that
 competes with the business of Gaussian, Inc. or will provide
 assistance to any competitor of Gaussian, Inc.  The licensee
 of this program is prohibited from giving any competitor of
 Gaussian, Inc. access to this program.  By using this program,
 the user acknowledges that Gaussian, Inc. is engaged in the
 business of creating and licensing software in the field of
 computational chemistry and represents and warrants to the
 licensee that it is not a competitor of Gaussian, Inc. and that
 it will not use this program in any manner prohibited above.
 ---------------------------------------------------------------
  

 Cite this work as:
 Gaussian 16, Revision C.01,
 M. J. Frisch, G. W. Trucks, H. B. Schlegel, G. E. Scuseria, 
 M. A. Robb, J. R. Cheeseman, G. Scalmani, V. Barone, 
 G. A. Petersson, H. Nakatsuji, X. Li, M. Caricato, A. V. Marenich, 
 J. Bloino, B. G. Janesko, R. Gomperts, B. Mennucci, H. P. Hratchian, 
 J. V. Ortiz, A. F. Izmaylov, J. L. Sonnenberg, D. Williams-Young, 
 F. Ding, F. Lipparini, F. Egidi, J. Goings, B. Peng, A. Petrone, 
 T. Henderson, D. Ranasinghe, V. G. Zakrzewski, J. Gao, N. Rega, 
 G. Zheng, W. Liang, M. Hada, M. Ehara, K. Toyota, R. Fukuda, 
 J. Hasegawa, M. Ishida, T. Nakajima, Y. Honda, O. Kitao, H. Nakai, 
 T. Vreven, K. Throssell, J. A. Montgomery, Jr., J. E. Peralta, 
 F. Ogliaro, M. J. Bearpark, J. J. Heyd, E. N. Brothers, K. N. Kudin, 
 V. N. Staroverov, T. A. Keith, R. Kobayashi, J. Normand, 
 K. Raghavachari, A. P. Rendell, J. C. Burant, S. S. Iyengar, 
 J. Tomasi, M. Cossi, J. M. Millam, M. Klene, C. Adamo, R. Cammi, 
 J. W. Ochterski, R. L. Martin, K. Morokuma, O. Farkas, 
 J. B. Foresman, and D. J. Fox, Gaussian, Inc., Wallingford CT, 2019.
 
 ******************************************
 Gaussian 16:  ES64L-G16RevC.01  3-Jul-2019
                 7-Jun-2025 
 ******************************************
 %NProcShared=16
 Will use up to   16 processors via shared memory.
 %Mem=40GB
 %chk=SDI0241_10.chk
 ----------------------------------------------------------------------
 #N OPT=(CalcAll,Tight) FREQ=NORAMAN Integral(Ultrafine) pbe1pbe Empiri
 calDispersion=GD3BJ def2SVP
 ----------------------------------------------------------------------
 1/7=10,10=4,18=20,19=15,26=4,38=1/1,3;
 2/9=110,12=2,17=6,18=5,40=1/2;
 3/5=43,7=101,11=2,25=1,30=1,71=2,74=-13,75=-5,124=41,140=1/1,2,3;
 4//1;
 5/5=2,38=5/2;
 8/6=4,10=90,11=11/1;
 11/6=1,8=1,9=11,15=111,16=1/1,2,10;
 10/6=1/2;
 6/7=2,8=2,9=2,10=2,18=1,28=1/1;
 7/10=1,25=1/1,2,3,16;
 1/7=10,10=4,18=20,19=15,26=4/3(3);
 2/9=110/2;
 7/8=1,9=1,25=1,44=-1/16;
 99//99;
 2/9=110/2;
 3/5=43,7=101,11=2,25=1,30=1,71=2,74=-13,75=-5,124=41,140=1/1,2,3;
 4/5=5,16=3,69=1/1;
 5/5=2,38=5/2;
 8/6=4,10=90,11=11/1;
 11/6=1,8=1,9=11,15=111,16=1/1,2,10;
 10/6=1/2;
 7/10=1,25=1/1,2,3,16;
 1/7=10,10=4,18=20,19=15,26=4/3(-8);
 2/9=110/2;
 6/7=2,8=2,9=2,10=2,18=1,19=2,28=1/1;
 7/8=1,9=1,25=1,44=-1/16;
 99//99;
 ----------
 SDI0241_10
 ----------
 Symbolic Z-matrix:
 Charge =  0 Multiplicity = 1
 N                     1.83897  -0.38498   0.99698 
 S                     0.60382   0.27292   0.37251 
 C                     0.76013   2.0496    0.03218 
 C                     1.94792   2.5631   -0.45445 
 C                     2.0455    3.91835  -0.72212 
 C                     0.95589   4.74539  -0.50149 
 C                    -0.22938   4.22253  -0.00891 
 C                    -0.32908   2.86799   0.25979 
 C                     0.32035  -0.28013  -1.39472 
 C                     0.48056  -1.78808  -1.49809 
 C                    -0.53135  -2.48781  -0.63254 
 C                    -0.16705  -3.01584   0.59851 
 C                    -1.11132  -3.62449   1.40708 
 C                    -2.42921  -3.71276   0.99337 
 C                    -2.79944  -3.19077  -0.2341 
 C                    -1.85527  -2.58265  -1.04111 
 N                    -0.66707   0.17888   1.20458 
 H                     2.67083  -0.33465   0.43148 
 H                     2.79423   1.91014  -0.6131 
 H                     2.97045   4.32824  -1.09988 
 H                     1.03386   5.8021   -0.71034 
 H                    -1.07483   4.87071   0.16683 
 H                    -1.22672   2.42163   0.65605 
 H                     1.03947   0.2518   -2.01501 
 H                    -0.6899    0.04499  -1.62716 
 H                     1.48821  -2.0581   -1.17367 
 H                     0.35953  -2.09477  -2.54147 
 H                     0.85684  -2.93291   0.9322 
 H                    -0.81673  -4.02795   2.36492 
 H                    -3.16613  -4.18595   1.62556 
 H                    -3.82639  -3.2568   -0.56302 
 H                    -2.14815  -2.17766  -2.00008 
 H                    -0.70058  -0.61742   1.81628 
 

 GradGradGradGradGradGradGradGradGradGradGradGradGradGradGradGradGradGrad
 Berny optimization.
 Initialization pass.
                           ----------------------------
                           !    Initial Parameters    !
                           ! (Angstroms and Degrees)  !
 --------------------------                            --------------------------
 ! Name  Definition              Value          Derivative Info.                !
 --------------------------------------------------------------------------------
 ! R1    R(1,2)                  1.5324         calculate D2E/DX2 analytically  !
 ! R2    R(1,18)                 1.0071         calculate D2E/DX2 analytically  !
 ! R3    R(2,3)                  1.8157         calculate D2E/DX2 analytically  !
 ! R4    R(2,9)                  1.8733         calculate D2E/DX2 analytically  !
 ! R5    R(2,17)                 1.522          calculate D2E/DX2 analytically  !
 ! R6    R(3,4)                  1.3825         calculate D2E/DX2 analytically  !
 ! R7    R(3,8)                  1.3813         calculate D2E/DX2 analytically  !
 ! R8    R(4,5)                  1.3849         calculate D2E/DX2 analytically  !
 ! R9    R(4,19)                 1.0806         calculate D2E/DX2 analytically  !
 ! R10   R(5,6)                  1.3856         calculate D2E/DX2 analytically  !
 ! R11   R(5,20)                 1.0799         calculate D2E/DX2 analytically  !
 ! R12   R(6,7)                  1.386          calculate D2E/DX2 analytically  !
 ! R13   R(6,21)                 1.08           calculate D2E/DX2 analytically  !
 ! R14   R(7,8)                  1.3845         calculate D2E/DX2 analytically  !
 ! R15   R(7,22)                 1.0797         calculate D2E/DX2 analytically  !
 ! R16   R(8,23)                 1.078          calculate D2E/DX2 analytically  !
 ! R17   R(9,10)                 1.52           calculate D2E/DX2 analytically  !
 ! R18   R(9,24)                 1.0885         calculate D2E/DX2 analytically  !
 ! R19   R(9,25)                 1.0864         calculate D2E/DX2 analytically  !
 ! R20   R(10,11)                1.5042         calculate D2E/DX2 analytically  !
 ! R21   R(10,26)                1.0925         calculate D2E/DX2 analytically  !
 ! R22   R(10,27)                1.0942         calculate D2E/DX2 analytically  !
 ! R23   R(11,12)                1.3882         calculate D2E/DX2 analytically  !
 ! R24   R(11,16)                1.3888         calculate D2E/DX2 analytically  !
 ! R25   R(12,13)                1.3842         calculate D2E/DX2 analytically  !
 ! R26   R(12,28)                1.0801         calculate D2E/DX2 analytically  !
 ! R27   R(13,14)                1.3841         calculate D2E/DX2 analytically  !
 ! R28   R(13,29)                1.0803         calculate D2E/DX2 analytically  !
 ! R29   R(14,15)                1.3843         calculate D2E/DX2 analytically  !
 ! R30   R(14,30)                1.0801         calculate D2E/DX2 analytically  !
 ! R31   R(15,16)                1.3829         calculate D2E/DX2 analytically  !
 ! R32   R(15,31)                1.0804         calculate D2E/DX2 analytically  !
 ! R33   R(16,32)                1.0814         calculate D2E/DX2 analytically  !
 ! R34   R(17,33)                1.0047         calculate D2E/DX2 analytically  !
 ! A1    A(2,1,18)             114.5488         calculate D2E/DX2 analytically  !
 ! A2    A(1,2,3)              115.2819         calculate D2E/DX2 analytically  !
 ! A3    A(1,2,9)              112.3117         calculate D2E/DX2 analytically  !
 ! A4    A(1,2,17)             115.0699         calculate D2E/DX2 analytically  !
 ! A5    A(3,2,9)               97.1857         calculate D2E/DX2 analytically  !
 ! A6    A(3,2,17)             103.5809         calculate D2E/DX2 analytically  !
 ! A7    A(9,2,17)             111.7868         calculate D2E/DX2 analytically  !
 ! A8    A(2,3,4)              120.2236         calculate D2E/DX2 analytically  !
 ! A9    A(2,3,8)              118.7491         calculate D2E/DX2 analytically  !
 ! A10   A(4,3,8)              121.0257         calculate D2E/DX2 analytically  !
 ! A11   A(3,4,5)              119.4755         calculate D2E/DX2 analytically  !
 ! A12   A(3,4,19)             120.0069         calculate D2E/DX2 analytically  !
 ! A13   A(5,4,19)             120.5144         calculate D2E/DX2 analytically  !
 ! A14   A(4,5,6)              119.8625         calculate D2E/DX2 analytically  !
 ! A15   A(4,5,20)             119.9601         calculate D2E/DX2 analytically  !
 ! A16   A(6,5,20)             120.1773         calculate D2E/DX2 analytically  !
 ! A17   A(5,6,7)              120.2599         calculate D2E/DX2 analytically  !
 ! A18   A(5,6,21)             119.7657         calculate D2E/DX2 analytically  !
 ! A19   A(7,6,21)             119.9737         calculate D2E/DX2 analytically  !
 ! A20   A(6,7,8)              119.9765         calculate D2E/DX2 analytically  !
 ! A21   A(6,7,22)             120.067          calculate D2E/DX2 analytically  !
 ! A22   A(8,7,22)             119.9565         calculate D2E/DX2 analytically  !
 ! A23   A(3,8,7)              119.399          calculate D2E/DX2 analytically  !
 ! A24   A(3,8,23)             118.1558         calculate D2E/DX2 analytically  !
 ! A25   A(7,8,23)             122.44           calculate D2E/DX2 analytically  !
 ! A26   A(2,9,10)             109.9439         calculate D2E/DX2 analytically  !
 ! A27   A(2,9,24)             107.0587         calculate D2E/DX2 analytically  !
 ! A28   A(2,9,25)             104.7258         calculate D2E/DX2 analytically  !
 ! A29   A(10,9,24)            112.1123         calculate D2E/DX2 analytically  !
 ! A30   A(10,9,25)            112.3553         calculate D2E/DX2 analytically  !
 ! A31   A(24,9,25)            110.2531         calculate D2E/DX2 analytically  !
 ! A32   A(9,10,11)            110.5765         calculate D2E/DX2 analytically  !
 ! A33   A(9,10,26)            108.798          calculate D2E/DX2 analytically  !
 ! A34   A(9,10,27)            109.3451         calculate D2E/DX2 analytically  !
 ! A35   A(11,10,26)           109.5494         calculate D2E/DX2 analytically  !
 ! A36   A(11,10,27)           110.1134         calculate D2E/DX2 analytically  !
 ! A37   A(26,10,27)           108.4151         calculate D2E/DX2 analytically  !
 ! A38   A(10,11,12)           120.7094         calculate D2E/DX2 analytically  !
 ! A39   A(10,11,16)           120.2503         calculate D2E/DX2 analytically  !
 ! A40   A(12,11,16)           119.0183         calculate D2E/DX2 analytically  !
 ! A41   A(11,12,13)           120.4162         calculate D2E/DX2 analytically  !
 ! A42   A(11,12,28)           119.5741         calculate D2E/DX2 analytically  !
 ! A43   A(13,12,28)           119.9997         calculate D2E/DX2 analytically  !
 ! A44   A(12,13,14)           120.1985         calculate D2E/DX2 analytically  !
 ! A45   A(12,13,29)           119.7447         calculate D2E/DX2 analytically  !
 ! A46   A(14,13,29)           120.0565         calculate D2E/DX2 analytically  !
 ! A47   A(13,14,15)           119.7122         calculate D2E/DX2 analytically  !
 ! A48   A(13,14,30)           120.1728         calculate D2E/DX2 analytically  !
 ! A49   A(15,14,30)           120.115          calculate D2E/DX2 analytically  !
 ! A50   A(14,15,16)           120.0442         calculate D2E/DX2 analytically  !
 ! A51   A(14,15,31)           120.0763         calculate D2E/DX2 analytically  !
 ! A52   A(16,15,31)           119.8795         calculate D2E/DX2 analytically  !
 ! A53   A(11,16,15)           120.6104         calculate D2E/DX2 analytically  !
 ! A54   A(11,16,32)           119.5704         calculate D2E/DX2 analytically  !
 ! A55   A(15,16,32)           119.8192         calculate D2E/DX2 analytically  !
 ! A56   A(2,17,33)            114.185          calculate D2E/DX2 analytically  !
 ! D1    D(18,1,2,3)           -60.6863         calculate D2E/DX2 analytically  !
 ! D2    D(18,1,2,9)            49.395          calculate D2E/DX2 analytically  !
 ! D3    D(18,1,2,17)          178.8065         calculate D2E/DX2 analytically  !
 ! D4    D(1,2,3,4)             39.3052         calculate D2E/DX2 analytically  !
 ! D5    D(1,2,3,8)           -141.1475         calculate D2E/DX2 analytically  !
 ! D6    D(9,2,3,4)            -79.5587         calculate D2E/DX2 analytically  !
 ! D7    D(9,2,3,8)             99.9886         calculate D2E/DX2 analytically  !
 ! D8    D(17,2,3,4)           165.9025         calculate D2E/DX2 analytically  !
 ! D9    D(17,2,3,8)           -14.5502         calculate D2E/DX2 analytically  !
 ! D10   D(1,2,9,10)            45.2115         calculate D2E/DX2 analytically  !
 ! D11   D(1,2,9,24)           -76.8082         calculate D2E/DX2 analytically  !
 ! D12   D(1,2,9,25)           166.1239         calculate D2E/DX2 analytically  !
 ! D13   D(3,2,9,10)           166.3445         calculate D2E/DX2 analytically  !
 ! D14   D(3,2,9,24)            44.3248         calculate D2E/DX2 analytically  !
 ! D15   D(3,2,9,25)           -72.7431         calculate D2E/DX2 analytically  !
 ! D16   D(17,2,9,10)          -85.8807         calculate D2E/DX2 analytically  !
 ! D17   D(17,2,9,24)          152.0996         calculate D2E/DX2 analytically  !
 ! D18   D(17,2,9,25)           35.0317         calculate D2E/DX2 analytically  !
 ! D19   D(1,2,17,33)          -27.1734         calculate D2E/DX2 analytically  !
 ! D20   D(3,2,17,33)         -153.9045         calculate D2E/DX2 analytically  !
 ! D21   D(9,2,17,33)          102.4956         calculate D2E/DX2 analytically  !
 ! D22   D(2,3,4,5)            179.3134         calculate D2E/DX2 analytically  !
 ! D23   D(2,3,4,19)            -1.3398         calculate D2E/DX2 analytically  !
 ! D24   D(8,3,4,5)             -0.2234         calculate D2E/DX2 analytically  !
 ! D25   D(8,3,4,19)           179.1234         calculate D2E/DX2 analytically  !
 ! D26   D(2,3,8,7)           -179.3006         calculate D2E/DX2 analytically  !
 ! D27   D(2,3,8,23)             1.5067         calculate D2E/DX2 analytically  !
 ! D28   D(4,3,8,7)              0.2429         calculate D2E/DX2 analytically  !
 ! D29   D(4,3,8,23)          -178.9497         calculate D2E/DX2 analytically  !
 ! D30   D(3,4,5,6)             -0.0302         calculate D2E/DX2 analytically  !
 ! D31   D(3,4,5,20)           179.8327         calculate D2E/DX2 analytically  !
 ! D32   D(19,4,5,6)          -179.3736         calculate D2E/DX2 analytically  !
 ! D33   D(19,4,5,20)            0.4893         calculate D2E/DX2 analytically  !
 ! D34   D(4,5,6,7)              0.2616         calculate D2E/DX2 analytically  !
 ! D35   D(4,5,6,21)           179.9722         calculate D2E/DX2 analytically  !
 ! D36   D(20,5,6,7)          -179.6011         calculate D2E/DX2 analytically  !
 ! D37   D(20,5,6,21)            0.1095         calculate D2E/DX2 analytically  !
 ! D38   D(5,6,7,8)             -0.2421         calculate D2E/DX2 analytically  !
 ! D39   D(5,6,7,22)           179.6735         calculate D2E/DX2 analytically  !
 ! D40   D(21,6,7,8)          -179.9521         calculate D2E/DX2 analytically  !
 ! D41   D(21,6,7,22)           -0.0364         calculate D2E/DX2 analytically  !
 ! D42   D(6,7,8,3)             -0.0089         calculate D2E/DX2 analytically  !
 ! D43   D(6,7,8,23)           179.1476         calculate D2E/DX2 analytically  !
 ! D44   D(22,7,8,3)          -179.9247         calculate D2E/DX2 analytically  !
 ! D45   D(22,7,8,23)           -0.7681         calculate D2E/DX2 analytically  !
 ! D46   D(2,9,10,11)           61.2291         calculate D2E/DX2 analytically  !
 ! D47   D(2,9,10,26)          -59.1252         calculate D2E/DX2 analytically  !
 ! D48   D(2,9,10,27)         -177.3655         calculate D2E/DX2 analytically  !
 ! D49   D(24,9,10,11)        -179.8058         calculate D2E/DX2 analytically  !
 ! D50   D(24,9,10,26)          59.8398         calculate D2E/DX2 analytically  !
 ! D51   D(24,9,10,27)         -58.4005         calculate D2E/DX2 analytically  !
 ! D52   D(25,9,10,11)         -54.978          calculate D2E/DX2 analytically  !
 ! D53   D(25,9,10,26)        -175.3323         calculate D2E/DX2 analytically  !
 ! D54   D(25,9,10,27)          66.4274         calculate D2E/DX2 analytically  !
 ! D55   D(9,10,11,12)        -101.8463         calculate D2E/DX2 analytically  !
 ! D56   D(9,10,11,16)          76.4283         calculate D2E/DX2 analytically  !
 ! D57   D(26,10,11,12)         18.0579         calculate D2E/DX2 analytically  !
 ! D58   D(26,10,11,16)       -163.6676         calculate D2E/DX2 analytically  !
 ! D59   D(27,10,11,12)        137.2037         calculate D2E/DX2 analytically  !
 ! D60   D(27,10,11,16)        -44.5217         calculate D2E/DX2 analytically  !
 ! D61   D(10,11,12,13)        178.1317         calculate D2E/DX2 analytically  !
 ! D62   D(10,11,12,28)         -0.7209         calculate D2E/DX2 analytically  !
 ! D63   D(16,11,12,13)         -0.1638         calculate D2E/DX2 analytically  !
 ! D64   D(16,11,12,28)       -179.0164         calculate D2E/DX2 analytically  !
 ! D65   D(10,11,16,15)       -178.1503         calculate D2E/DX2 analytically  !
 ! D66   D(10,11,16,32)          1.9259         calculate D2E/DX2 analytically  !
 ! D67   D(12,11,16,15)          0.1532         calculate D2E/DX2 analytically  !
 ! D68   D(12,11,16,32)       -179.7706         calculate D2E/DX2 analytically  !
 ! D69   D(11,12,13,14)          0.0527         calculate D2E/DX2 analytically  !
 ! D70   D(11,12,13,29)       -179.7361         calculate D2E/DX2 analytically  !
 ! D71   D(28,12,13,14)        178.9004         calculate D2E/DX2 analytically  !
 ! D72   D(28,12,13,29)         -0.8884         calculate D2E/DX2 analytically  !
 ! D73   D(12,13,14,15)          0.0714         calculate D2E/DX2 analytically  !
 ! D74   D(12,13,14,30)       -179.8716         calculate D2E/DX2 analytically  !
 ! D75   D(29,13,14,15)        179.8596         calculate D2E/DX2 analytically  !
 ! D76   D(29,13,14,30)         -0.0834         calculate D2E/DX2 analytically  !
 ! D77   D(13,14,15,16)         -0.0821         calculate D2E/DX2 analytically  !
 ! D78   D(13,14,15,31)        179.9748         calculate D2E/DX2 analytically  !
 ! D79   D(30,14,15,16)        179.8608         calculate D2E/DX2 analytically  !
 ! D80   D(30,14,15,31)         -0.0822         calculate D2E/DX2 analytically  !
 ! D81   D(14,15,16,11)         -0.031          calculate D2E/DX2 analytically  !
 ! D82   D(14,15,16,32)        179.8926         calculate D2E/DX2 analytically  !
 ! D83   D(31,15,16,11)        179.9121         calculate D2E/DX2 analytically  !
 ! D84   D(31,15,16,32)         -0.1643         calculate D2E/DX2 analytically  !
 --------------------------------------------------------------------------------
 Trust Radius=3.00D-01 FncErr=1.00D-07 GrdErr=1.00D-06 EigMax=2.50D+02 EigMin=1.00D-04
 Number of steps in this run=    184 maximum allowed number of steps=    198.
 GradGradGradGradGradGradGradGradGradGradGradGradGradGradGradGradGradGrad

                          Input orientation:                          
 ---------------------------------------------------------------------
 Center     Atomic      Atomic             Coordinates (Angstroms)
 Number     Number       Type             X           Y           Z
 ---------------------------------------------------------------------
      1          7           0        1.838965   -0.384982    0.996980
      2         16           0        0.603817    0.272919    0.372505
      3          6           0        0.760133    2.049601    0.032184
      4          6           0        1.947924    2.563099   -0.454448
      5          6           0        2.045505    3.918352   -0.722122
      6          6           0        0.955890    4.745389   -0.501488
      7          6           0       -0.229378    4.222526   -0.008914
      8          6           0       -0.329077    2.867991    0.259791
      9          6           0        0.320350   -0.280125   -1.394719
     10          6           0        0.480560   -1.788076   -1.498093
     11          6           0       -0.531348   -2.487809   -0.632544
     12          6           0       -0.167054   -3.015841    0.598512
     13          6           0       -1.111323   -3.624486    1.407079
     14          6           0       -2.429213   -3.712756    0.993370
     15          6           0       -2.799436   -3.190767   -0.234095
     16          6           0       -1.855274   -2.582653   -1.041109
     17          7           0       -0.667073    0.178880    1.204580
     18          1           0        2.670835   -0.334654    0.431478
     19          1           0        2.794225    1.910143   -0.613101
     20          1           0        2.970447    4.328241   -1.099884
     21          1           0        1.033857    5.802102   -0.710340
     22          1           0       -1.074828    4.870706    0.166828
     23          1           0       -1.226716    2.421625    0.656052
     24          1           0        1.039467    0.251798   -2.015012
     25          1           0       -0.689897    0.044988   -1.627157
     26          1           0        1.488210   -2.058097   -1.173669
     27          1           0        0.359533   -2.094768   -2.541473
     28          1           0        0.856838   -2.932910    0.932202
     29          1           0       -0.816727   -4.027947    2.364915
     30          1           0       -3.166126   -4.185949    1.625563
     31          1           0       -3.826394   -3.256796   -0.563023
     32          1           0       -2.148150   -2.177656   -2.000076
     33          1           0       -0.700578   -0.617420    1.816279
 ---------------------------------------------------------------------
                    Distance matrix (angstroms):
                    1          2          3          4          5
     1  N    0.000000
     2  S    1.532446   0.000000
     3  C    2.832296   1.815723   0.000000
     4  C    3.287810   2.781259   1.382512   0.000000
     5  C    4.638605   4.070117   2.390270   1.384876   0.000000
     6  C    5.417189   4.570647   2.755069   2.397652   1.385615
     7  C    5.149660   4.054515   2.387975   2.773598   2.403389
     8  C    3.978151   2.759963   1.381284   2.405791   2.775977
     9  C    2.835033   1.873311   2.767144   3.408377   4.588656
    10  C    3.168490   2.786042   4.140975   4.709042   5.967790
    11  C    3.563091   3.149658   4.764228   5.629403   6.905585
    12  C    3.332313   3.385449   5.180647   6.058583   7.397468
    13  C    4.400769   4.381988   6.130901   7.149160   8.449466
    14  C    5.412156   5.046816   6.655866   7.787288   9.011094
    15  C    5.559024   4.893590   6.340575   7.462772   8.616914
    16  C    4.757202   4.024889   5.426793   6.425516   7.588208
    17  N    2.577065   1.521958   2.628883   3.908335   5.005388
    18  H    1.007141   2.155269   3.081378   3.115195   4.450831
    19  H    2.961837   2.906856   2.138545   1.080624   2.146014
    20  H    5.281246   4.920823   3.370351   2.139595   1.079922
    21  H    6.468628   5.650606   3.835040   3.375224   2.138242
    22  H    6.066432   4.898959   3.368062   3.853318   3.381373
    23  H    4.170333   2.836934   2.115463   3.366239   3.853178
    24  H    3.180689   2.427030   2.738820   2.933048   4.015881
    25  H    3.669621   2.392551   2.979005   3.830696   4.827470
    26  H    2.762981   2.933674   4.342506   4.699369   6.019337
    27  H    4.199135   3.762564   4.894893   5.345502   6.504626
    28  H    2.731430   3.264142   5.064070   5.772295   7.147693
    29  H    4.711172   4.948241   6.698112   7.683358   8.992544
    30  H    6.316122   5.971945   7.538995   8.719495   9.917279
    31  H    6.540430   5.741156   7.039058   8.199129   9.272931
    32  H    5.300294   4.382669   5.518866   6.453026   7.508743
    33  H    2.678536   2.139774   3.525573   4.720854   5.878577
                    6          7          8          9         10
     6  C    0.000000
     7  C    1.385957   0.000000
     8  C    2.399023   1.384524   0.000000
     9  C    5.143692   4.743050   3.615217   0.000000
    10  C    6.626110   6.232897   5.042284   1.519957   0.000000
    11  C    7.385676   6.746013   5.433394   2.485994   1.504247
    12  C    7.918819   7.264077   5.895801   3.419747   2.514470
    13  C    8.830109   8.022373   6.639310   4.591787   3.787679
    14  C    9.232212   8.295333   6.946577   5.004600   4.287022
    15  C    8.783881   7.849384   6.561643   4.421759   3.784654
    16  C    7.867277   7.072441   5.807852   3.187478   2.509244
    17  N    5.137868   4.244434   2.870224   2.818164   3.534179
    18  H    5.442270   5.419693   4.391570   2.977038   3.260826
    19  H    3.380911   3.854133   3.381484   3.395330   4.451189
    20  H    2.142552   3.382347   3.855892   5.324189   6.615697
    21  H    1.079972   2.140753   3.377536   6.162058   7.650980
    22  H    2.141533   1.079725   2.139078   5.560217   7.037796
    23  H    3.391688   2.163355   1.077971   3.728073   5.027596
    24  H    4.742373   4.626130   3.727212   1.088501   2.177308
    25  H    5.105832   4.503622   3.414690   1.086428   2.178705
    26  H    6.857304   6.614604   5.442765   2.138678   1.092484
    27  H    7.162746   6.831462   5.740230   2.146977   1.094235
    28  H    7.811630   7.298345   5.958942   3.569265   2.712667
    29  H    9.398397   8.605251   7.226570   5.428993   4.650033
    30  H   10.064004   9.055300   7.724782   6.044259   5.367060
    31  H    9.322499   8.317801   7.100793   5.171825   4.645573
    32  H    7.733653   6.971997   5.820187   3.171840   2.704418
    33  H    6.072533   5.194077   3.835200   3.386232   3.708178
                   11         12         13         14         15
    11  C    0.000000
    12  C    1.388173   0.000000
    13  C    2.405923   1.384151   0.000000
    14  C    2.783160   2.399785   1.384118   0.000000
    15  C    2.407724   2.766454   2.394012   1.384272   0.000000
    16  C    1.388776   2.392926   2.762699   2.397007   1.382938
    17  N    3.241092   3.289921   3.834574   4.277216   4.239255
    18  H    4.002774   3.907720   5.106810   6.143108   6.206790
    19  H    5.513783   5.873883   7.068702   7.841049   7.579709
    20  H    7.677207   8.164803   9.283942   9.909373   9.517176
    21  H    8.436738   8.995076   9.896758  10.267814   9.787372
    22  H    7.421732   7.950348   8.585328   8.728880   8.253628
    23  H    5.123140   5.540057   6.093671   6.260225   5.896165
    24  H    3.447336   4.354729   5.600195   6.066283   5.455282
    25  H    2.725703   3.820424   4.780087   4.900308   4.106201
    26  H    2.134499   2.607259   3.983893   4.772856   4.533173
    27  H    2.142933   3.314388   4.482691   4.784360   4.062547
    28  H    2.138599   1.080084   2.139496   3.377874   3.846438
    29  H    3.382045   2.136964   1.080286   2.140232   3.374443
    30  H    3.863260   3.379115   2.141306   1.080102   2.140835
    31  H    3.384302   3.846816   3.374628   2.140648   1.080368
    32  H    2.140184   3.373419   3.844091   3.375833   2.137582
    33  H    3.086054   2.742267   3.062451   3.639569   3.902738
                   16         17         18         19         20
    16  C    0.000000
    17  N    3.752467   0.000000
    18  H    5.263808   3.464540   0.000000
    19  H    6.479680   4.275725   2.479009   0.000000
    20  H    8.429205   5.979908   4.917055   2.472895   0.000000
    21  H    8.874717   6.179054   6.453155   4.272668   2.464627
    22  H    7.590835   4.822492   6.418395   4.933842   4.273531
    23  H    5.321489   2.375708   4.778955   4.247392   4.933019
    24  H    4.166788   3.644636   2.998433   2.791888   4.602557
    25  H    2.933608   2.834993   3.959372   4.079978   5.658833
    26  H    3.386978   3.912210   2.635405   4.215073   6.556507
    27  H    2.719282   4.500701   4.156749   5.068102   7.081673
    28  H    3.372267   3.475591   3.208153   5.440275   7.830775
    29  H    3.842975   4.366482   5.435226   7.560983   9.806804
    30  H    3.376393   5.047200   7.094253   8.814746  10.843294
    31  H    2.137370   4.990951   7.193186   8.398355  10.198924
    32  H    1.081396   4.244605   5.703659   6.562078   8.326889
    33  H    3.655152   1.004685   3.655687   4.950162   6.814689
                   21         22         23         24         25
    21  H    0.000000
    22  H    2.466470   0.000000
    23  H    4.290086   2.502081   0.000000
    24  H    5.701586   5.528560   4.120476   0.000000
    25  H    6.079165   5.162761   3.339105   1.784349   0.000000
    26  H    7.886941   7.508289   5.548569   2.498968   3.061498
    27  H    8.134391   7.609869   5.756576   2.499168   2.552613
    28  H    8.889866   8.075491   5.752261   4.343016   4.220259
    29  H   10.464785   9.169746   6.684706   6.398862   5.704518
    30  H   11.084108   9.408743   6.954229   7.115785   5.883258
    31  H   10.281409   8.611625   6.363092   6.172123   4.676726
    32  H    8.687067   7.451638   5.390496   4.007913   2.684346
    33  H    7.113531   5.742846   3.295261   4.296753   3.506587
                   26         27         28         29         30
    26  H    0.000000
    27  H    1.773737   0.000000
    28  H    2.366141   3.607799   0.000000
    29  H    4.659895   5.403093   2.460201   0.000000
    30  H    5.833206   5.845296   4.270256   2.468052   0.000000
    31  H    5.482225   4.773527   4.926790   4.269144   2.467628
    32  H    3.730999   2.566798   4.265984   4.924369   4.267877
    33  H    3.975693   4.721906   2.927222   3.456326   4.341624
                   31         32         33
    31  H    0.000000
    32  H    2.458896   0.000000
    33  H    4.732664   4.369711   0.000000
 Stoichiometry    C14H16N2S
 Framework group  C1[X(C14H16N2S)]
 Deg. of freedom    93
 Full point group                 C1      NOp   1
 Largest Abelian subgroup         C1      NOp   1
 Largest concise Abelian subgroup C1      NOp   1
                         Standard orientation:                         
 ---------------------------------------------------------------------
 Center     Atomic      Atomic             Coordinates (Angstroms)
 Number     Number       Type             X           Y           Z
 ---------------------------------------------------------------------
      1          7           0       -0.220671   -1.675967   -1.303870
      2         16           0       -0.446810   -0.398291   -0.488519
      3          6           0       -2.185057    0.039979   -0.199959
      4          6           0       -3.114975   -0.945611    0.074275
      5          6           0       -4.433898   -0.592575    0.305986
      6          6           0       -4.809247    0.740503    0.261883
      7          6           0       -3.871046    1.721333   -0.018524
      8          6           0       -2.551979    1.370663   -0.250904
      9          6           0        0.044109   -0.604542    1.307520
     10          6           0        1.389167   -1.306346    1.400040
     11          6           0        2.458225   -0.491428    0.724923
     12          6           0        2.910862   -0.827552   -0.543606
     13          6           0        3.867131   -0.051151   -1.174973
     14          6           0        4.381800    1.068577   -0.544810
     15          6           0        3.937138    1.408556    0.721246
     16          6           0        2.981512    0.632300    1.351106
     17          7           0        0.144833    0.866415   -1.094185
     18          1           0       -0.598924   -2.510984   -0.886732
     19          1           0       -2.812645   -1.982852    0.096122
     20          1           0       -5.167311   -1.356303    0.518253
     21          1           0       -5.838302    1.014014    0.442376
     22          1           0       -4.168006    2.758694   -0.057303
     23          1           0       -1.792749    2.099034   -0.485567
     24          1           0       -0.748357   -1.172087    1.792004
     25          1           0        0.077758    0.406973    1.702526
     26          1           0        1.311470   -2.281744    0.914156
     27          1           0        1.644264   -1.463736    2.452420
     28          1           0        2.498468   -1.690489   -1.045455
     29          1           0        4.208512   -0.320319   -2.163925
     30          1           0        5.126483    1.675307   -1.038719
     31          1           0        4.335154    2.281080    1.218719
     32          1           0        2.638014    0.900258    2.340866
     33          1           0        0.943557    0.706456   -1.682271
 ---------------------------------------------------------------------
 Rotational constants (GHZ):           1.1372330           0.2286644           0.2211831
 Standard basis: def2SVP (5D, 7F)
 There are   339 symmetry adapted cartesian basis functions of A   symmetry.
 There are   322 symmetry adapted basis functions of A   symmetry.
   322 basis functions,   549 primitive gaussians,   339 cartesian basis functions
    65 alpha electrons       65 beta electrons
       nuclear repulsion energy      1305.2932576103 Hartrees.
 NAtoms=   33 NActive=   33 NUniq=   33 SFac= 1.00D+00 NAtFMM=   60 NAOKFM=F Big=F
 Integral buffers will be    131072 words long.
 Raffenetti 2 integral format.
 Two-electron integral symmetry is turned on.
 Nuclear repulsion after empirical dispersion term =     1305.2513607615 Hartrees.
 One-electron integrals computed using PRISM.
   1 Symmetry operations used in ECPInt.
 ECPInt:  NShTT=   11628 NPrTT=   42474 LenC2=   10722 LenP2D=   28148.
 LDataN:  DoStor=T MaxTD1= 4 Len=   56
 NBasis=   322 RedAO= T EigKep=  2.62D-04  NBF=   322
 NBsUse=   322 1.00D-06 EigRej= -1.00D+00 NBFU=   322
 ExpMin= 1.22D-01 ExpMax= 9.18D+03 ExpMxC= 1.38D+03 IAcc=3 IRadAn=         5 AccDes= 0.00D+00
 Harris functional with IExCor= 1009 and IRadAn=       5 diagonalized for initial guess.
 HarFok:  IExCor= 1009 AccDes= 0.00D+00 IRadAn=         5 IDoV= 1 UseB2=F ITyADJ=14
 ICtDFT=  3500011 ScaDFX=  1.000000  1.000000  1.000000  1.000000
 FoFCou: FMM=F IPFlag=           0 FMFlag=      100000 FMFlg1=           0
         NFxFlg=           0 DoJE=T BraDBF=F KetDBF=T FulRan=T
         wScrn=  0.000000 ICntrl=       500 IOpCl=  0 I1Cent=   200000004 NGrid=           0
         NMat0=    1 NMatS0=      1 NMatT0=    0 NMatD0=    1 NMtDS0=    0 NMtDT0=    0
 Petite list used in FoFCou.
 Requested convergence on RMS density matrix=1.00D-08 within 128 cycles.
 Requested convergence on MAX density matrix=1.00D-06.
 Requested convergence on             energy=1.00D-06.
 No special actions if energy rises.
 Integral accuracy reduced to 1.0D-05 until final iterations.
 Initial convergence to 1.0D-05 achieved.  Increase integral accuracy.
 SCF Done:  E(RPBE1PBE) =  -1049.21511753     A.U. after   15 cycles
            NFock= 15  Conv=0.57D-08     -V/T= 2.0069
 DoSCS=F DFT=T ScalE2(SS,OS)=  1.000000  1.000000
 Range of M.O.s used for correlation:     1   322
 NBasis=   322 NAE=    65 NBE=    65 NFC=     0 NFV=     0
 NROrb=    322 NOA=    65 NOB=    65 NVA=   257 NVB=   257

 **** Warning!!: The largest alpha MO coefficient is  0.16203151D+02

   1 Symmetry operations used in ECPInt.
 ECPInt:  NShTT=   11628 NPrTT=   42474 LenC2=   10722 LenP2D=   28148.
 LDataN:  DoStor=T MaxTD1= 5 Len=  102
 Symmetrizing basis deriv contribution to polar:
 IMax=3 JMax=2 DiffMx= 0.00D+00
 G2DrvN: will do    34 centers at a time, making    1 passes.
 Calling FoFCou, ICntrl=  3107 FMM=F I1Cent=   0 AccDes= 0.00D+00.
 End of G2Drv F.D. properties file   721 does not exist.
 End of G2Drv F.D. properties file   722 does not exist.
 End of G2Drv F.D. properties file   788 does not exist.
          IDoAtm=111111111111111111111111111111111
          Differentiating once with respect to electric field.
                with respect to dipole field.
          Differentiating once with respect to nuclear coordinates.
 Keep R1 ints in memory in canonical form, NReq=1371850709.
          There are   102 degrees of freedom in the 1st order CPHF.  IDoFFX=6 NUNeed=     3.
     99 vectors produced by pass  0 Test12= 1.67D-14 1.00D-09 XBig12= 1.82D+02 5.68D+00.
 AX will form    99 AO Fock derivatives at one time.
     99 vectors produced by pass  1 Test12= 1.67D-14 1.00D-09 XBig12= 3.58D+01 1.23D+00.
     99 vectors produced by pass  2 Test12= 1.67D-14 1.00D-09 XBig12= 3.05D-01 6.84D-02.
     99 vectors produced by pass  3 Test12= 1.67D-14 1.00D-09 XBig12= 1.16D-03 3.28D-03.
     99 vectors produced by pass  4 Test12= 1.67D-14 1.00D-09 XBig12= 3.12D-06 1.38D-04.
     93 vectors produced by pass  5 Test12= 1.67D-14 1.00D-09 XBig12= 4.44D-09 6.04D-06.
     25 vectors produced by pass  6 Test12= 1.67D-14 1.00D-09 XBig12= 5.04D-12 2.13D-07.
      3 vectors produced by pass  7 Test12= 1.67D-14 1.00D-09 XBig12= 4.72D-15 5.72D-09.
 InvSVY:  IOpt=1 It=  1 EMax= 1.24D-14
 Solved reduced A of dimension   616 with   102 vectors.
 Isotropic polarizability for W=    0.000000      172.06 Bohr**3.
 End of Minotr F.D. properties file   721 does not exist.
 End of Minotr F.D. properties file   722 does not exist.
 End of Minotr F.D. properties file   788 does not exist.

 **********************************************************************

            Population analysis using the SCF Density.

 **********************************************************************

 Orbital symmetries:
       Occupied  (A) (A) (A) (A) (A) (A) (A) (A) (A) (A) (A) (A)
                 (A) (A) (A) (A) (A) (A) (A) (A) (A) (A) (A) (A)
                 (A) (A) (A) (A) (A) (A) (A) (A) (A) (A) (A) (A)
                 (A) (A) (A) (A) (A) (A) (A) (A) (A) (A) (A) (A)
                 (A) (A) (A) (A) (A) (A) (A) (A) (A) (A) (A) (A)
                 (A) (A) (A) (A) (A)
       Virtual   (A) (A) (A) (A) (A) (A) (A) (A) (A) (A) (A) (A)
                 (A) (A) (A) (A) (A) (A) (A) (A) (A) (A) (A) (A)
                 (A) (A) (A) (A) (A) (A) (A) (A) (A) (A) (A) (A)
                 (A) (A) (A) (A) (A) (A) (A) (A) (A) (A) (A) (A)
                 (A) (A) (A) (A) (A) (A) (A) (A) (A) (A) (A) (A)
                 (A) (A) (A) (A) (A) (A) (A) (A) (A) (A) (A) (A)
                 (A) (A) (A) (A) (A) (A) (A) (A) (A) (A) (A) (A)
                 (A) (A) (A) (A) (A) (A) (A) (A) (A) (A) (A) (A)
                 (A) (A) (A) (A) (A) (A) (A) (A) (A) (A) (A) (A)
                 (A) (A) (A) (A) (A) (A) (A) (A) (A) (A) (A) (A)
                 (A) (A) (A) (A) (A) (A) (A) (A) (A) (A) (A) (A)
                 (A) (A) (A) (A) (A) (A) (A) (A) (A) (A) (A) (A)
                 (A) (A) (A) (A) (A) (A) (A) (A) (A) (A) (A) (A)
                 (A) (A) (A) (A) (A) (A) (A) (A) (A) (A) (A) (A)
                 (A) (A) (A) (A) (A) (A) (A) (A) (A) (A) (A) (A)
                 (A) (A) (A) (A) (A) (A) (A) (A) (A) (A) (A) (A)
                 (A) (A) (A) (A) (A) (A) (A) (A) (A) (A) (A) (A)
                 (A) (A) (A) (A) (A) (A) (A) (A) (A) (A) (A) (A)
                 (A) (A) (A) (A) (A) (A) (A) (A) (A) (A) (A) (A)
                 (A) (A) (A) (A) (A) (A) (A) (A) (A) (A) (A) (A)
                 (A) (A) (A) (A) (A) (A) (A) (A) (A) (A) (A) (A)
                 (A) (A) (A) (A) (A)
 The electronic state is 1-A.
 Alpha  occ. eigenvalues --  -89.17708 -14.34721 -14.33195 -10.26396 -10.26070
 Alpha  occ. eigenvalues --  -10.25886 -10.25250 -10.25117 -10.24882 -10.24832
 Alpha  occ. eigenvalues --  -10.24753 -10.23929 -10.23108 -10.23045 -10.22964
 Alpha  occ. eigenvalues --  -10.22911 -10.22582  -8.15152  -6.09286  -6.09179
 Alpha  occ. eigenvalues --   -6.09154  -1.00435  -0.89670  -0.88134  -0.84895
 Alpha  occ. eigenvalues --   -0.82101  -0.79007  -0.78096  -0.76015  -0.75239
 Alpha  occ. eigenvalues --   -0.68916  -0.64638  -0.63869  -0.62003  -0.60594
 Alpha  occ. eigenvalues --   -0.58888  -0.55849  -0.53132  -0.51717  -0.50785
 Alpha  occ. eigenvalues --   -0.49738  -0.48451  -0.47509  -0.46615  -0.46025
 Alpha  occ. eigenvalues --   -0.45154  -0.44720  -0.43596  -0.43040  -0.40847
 Alpha  occ. eigenvalues --   -0.40269  -0.38880  -0.38477  -0.37569  -0.37275
 Alpha  occ. eigenvalues --   -0.34927  -0.34764  -0.30870  -0.28933  -0.28414
 Alpha  occ. eigenvalues --   -0.27550  -0.26307  -0.26170  -0.24912  -0.23248
 Alpha virt. eigenvalues --   -0.02951  -0.01735  -0.00184   0.00323   0.04824
 Alpha virt. eigenvalues --    0.06535   0.07767   0.08511   0.08732   0.09191
 Alpha virt. eigenvalues --    0.10724   0.10927   0.11665   0.12630   0.13074
 Alpha virt. eigenvalues --    0.13307   0.14132   0.14745   0.15536   0.16740
 Alpha virt. eigenvalues --    0.17186   0.18098   0.18511   0.19044   0.19435
 Alpha virt. eigenvalues --    0.21705   0.23134   0.25735   0.28993   0.29154
 Alpha virt. eigenvalues --    0.30527   0.30910   0.31651   0.32266   0.32725
 Alpha virt. eigenvalues --    0.34099   0.35661   0.37777   0.40467   0.41066
 Alpha virt. eigenvalues --    0.41352   0.42187   0.43147   0.43740   0.44559
 Alpha virt. eigenvalues --    0.45166   0.45647   0.46473   0.48356   0.48599
 Alpha virt. eigenvalues --    0.49006   0.49321   0.50386   0.50670   0.50995
 Alpha virt. eigenvalues --    0.52531   0.52860   0.53838   0.54949   0.55746
 Alpha virt. eigenvalues --    0.56453   0.57424   0.58370   0.60822   0.61460
 Alpha virt. eigenvalues --    0.61671   0.62976   0.63815   0.65115   0.65509
 Alpha virt. eigenvalues --    0.65909   0.66512   0.66749   0.66999   0.67828
 Alpha virt. eigenvalues --    0.68485   0.69384   0.69568   0.70161   0.70647
 Alpha virt. eigenvalues --    0.71207   0.71529   0.72210   0.72507   0.73072
 Alpha virt. eigenvalues --    0.73499   0.75112   0.75277   0.75899   0.76466
 Alpha virt. eigenvalues --    0.76849   0.77596   0.77977   0.79034   0.79946
 Alpha virt. eigenvalues --    0.81803   0.82817   0.84258   0.85178   0.86151
 Alpha virt. eigenvalues --    0.87823   0.89163   0.90247   0.91608   0.92702
 Alpha virt. eigenvalues --    0.93937   0.96463   0.97094   0.97798   0.98269
 Alpha virt. eigenvalues --    1.01633   1.03195   1.06730   1.07482   1.10257
 Alpha virt. eigenvalues --    1.11877   1.12834   1.14877   1.16319   1.17214
 Alpha virt. eigenvalues --    1.19546   1.21007   1.23459   1.23718   1.24479
 Alpha virt. eigenvalues --    1.26103   1.26329   1.27085   1.28075   1.28664
 Alpha virt. eigenvalues --    1.30079   1.30511   1.30960   1.31845   1.33418
 Alpha virt. eigenvalues --    1.34670   1.36833   1.40762   1.44639   1.45745
 Alpha virt. eigenvalues --    1.49000   1.52345   1.53646   1.55415   1.57380
 Alpha virt. eigenvalues --    1.62368   1.66128   1.66799   1.68176   1.69612
 Alpha virt. eigenvalues --    1.70153   1.70823   1.72916   1.73768   1.74545
 Alpha virt. eigenvalues --    1.74680   1.75623   1.76128   1.76869   1.77042
 Alpha virt. eigenvalues --    1.77725   1.78726   1.79095   1.79500   1.79956
 Alpha virt. eigenvalues --    1.80947   1.81523   1.82146   1.83177   1.84325
 Alpha virt. eigenvalues --    1.85536   1.87069   1.89130   1.90501   1.91719
 Alpha virt. eigenvalues --    1.93722   1.94154   1.95524   1.96136   1.97360
 Alpha virt. eigenvalues --    1.98582   1.99409   2.00587   2.00948   2.02492
 Alpha virt. eigenvalues --    2.02929   2.06342   2.08351   2.11139   2.12020
 Alpha virt. eigenvalues --    2.14202   2.14702   2.15497   2.16112   2.17146
 Alpha virt. eigenvalues --    2.17632   2.20004   2.20578   2.22022   2.24419
 Alpha virt. eigenvalues --    2.27254   2.29363   2.30368   2.30628   2.31453
 Alpha virt. eigenvalues --    2.32309   2.33519   2.34296   2.35635   2.36338
 Alpha virt. eigenvalues --    2.37801   2.39362   2.41002   2.42228   2.43465
 Alpha virt. eigenvalues --    2.44088   2.49692   2.52825   2.53922   2.55527
 Alpha virt. eigenvalues --    2.59627   2.60645   2.61445   2.63096   2.64593
 Alpha virt. eigenvalues --    2.65435   2.66427   2.66786   2.68247   2.68951
 Alpha virt. eigenvalues --    2.70105   2.75637   2.76135   2.77575   2.78402
 Alpha virt. eigenvalues --    2.82951   2.85419   2.88103   2.89267   2.89509
 Alpha virt. eigenvalues --    2.92011   2.92393   2.93801   2.96085   2.97519
 Alpha virt. eigenvalues --    3.00810   3.06148   3.06842   3.13768   3.15819
 Alpha virt. eigenvalues --    3.18747   3.24193   3.28394   3.30656   3.36824
 Alpha virt. eigenvalues --    3.65990   3.70415
          Condensed to atoms (all electrons):
               1          2          3          4          5          6
     1  N    6.898075   0.329366  -0.033747  -0.000643   0.000430  -0.000019
     2  S    0.329366  14.678250   0.129534  -0.045193   0.001878   0.000284
     3  C   -0.033747   0.129534   5.827038   0.185324   0.094450  -0.180482
     4  C   -0.000643  -0.045193   0.185324   5.152599   0.301384   0.090008
     5  C    0.000430   0.001878   0.094450   0.301384   5.033634   0.279203
     6  C   -0.000019   0.000284  -0.180482   0.090008   0.279203   5.117273
     7  C   -0.000024   0.004762   0.103062  -0.147582   0.087100   0.255226
     8  C    0.003844  -0.035236   0.289642   0.050563  -0.131805   0.101274
     9  C   -0.075392   0.208610  -0.120055  -0.003768  -0.000859  -0.000093
    10  C    0.017929  -0.056605   0.007871  -0.000022  -0.000028   0.000001
    11  C   -0.012921  -0.013117  -0.000080  -0.000019   0.000001   0.000000
    12  C   -0.002319   0.013668   0.000453  -0.000007  -0.000000   0.000000
    13  C    0.000020  -0.001306  -0.000021   0.000000  -0.000000  -0.000000
    14  C    0.000027   0.000108   0.000002  -0.000000  -0.000000   0.000000
    15  C   -0.000018  -0.000398  -0.000005   0.000000   0.000000  -0.000000
    16  C    0.000016   0.001292  -0.000101  -0.000002  -0.000000  -0.000000
    17  N   -0.066867   0.406603  -0.090613   0.007329  -0.000062  -0.000054
    18  H    0.307671  -0.000464  -0.010492   0.005727   0.000542   0.000006
    19  H    0.005135  -0.003488  -0.089979   0.433530  -0.044302   0.013401
    20  H    0.000001  -0.000155   0.016873  -0.071703   0.453666  -0.070911
    21  H   -0.000000   0.000021  -0.001487   0.015018  -0.068892   0.449350
    22  H    0.000001  -0.000157   0.016789  -0.001824   0.014397  -0.074172
    23  H    0.000630  -0.014906  -0.058476   0.014433  -0.001856   0.012398
    24  H    0.001861  -0.014362   0.003637   0.004434   0.000422   0.000026
    25  H    0.003870  -0.010406   0.002834  -0.000329   0.000030  -0.000017
    26  H    0.013740  -0.005871   0.000474   0.000120   0.000003   0.000000
    27  H    0.000050   0.005416  -0.000221  -0.000022  -0.000001   0.000000
    28  H    0.017117   0.000199   0.000172  -0.000018  -0.000000   0.000000
    29  H   -0.000027   0.000012  -0.000000   0.000000   0.000000  -0.000000
    30  H    0.000000  -0.000001   0.000000   0.000000  -0.000000   0.000000
    31  H   -0.000000  -0.000003  -0.000000   0.000000   0.000000  -0.000000
    32  H   -0.000006   0.000247   0.000005  -0.000000   0.000000   0.000000
    33  H    0.002956  -0.022624   0.006188  -0.000310  -0.000010   0.000006
               7          8          9         10         11         12
     1  N   -0.000024   0.003844  -0.075392   0.017929  -0.012921  -0.002319
     2  S    0.004762  -0.035236   0.208610  -0.056605  -0.013117   0.013668
     3  C    0.103062   0.289642  -0.120055   0.007871  -0.000080   0.000453
     4  C   -0.147582   0.050563  -0.003768  -0.000022  -0.000019  -0.000007
     5  C    0.087100  -0.131805  -0.000859  -0.000028   0.000001  -0.000000
     6  C    0.255226   0.101274  -0.000093   0.000001   0.000000   0.000000
     7  C    5.145079   0.222603  -0.000594   0.000013  -0.000001  -0.000000
     8  C    0.222603   5.076714  -0.004780  -0.000200   0.000098  -0.000000
     9  C   -0.000594  -0.004780   5.212184   0.368311  -0.067586  -0.020186
    10  C    0.000013  -0.000200   0.368311   4.796131   0.285334  -0.081961
    11  C   -0.000001   0.000098  -0.067586   0.285334   5.490637   0.266496
    12  C   -0.000000  -0.000000  -0.020186  -0.081961   0.266496   5.165083
    13  C    0.000000  -0.000000   0.000333   0.013001   0.098552   0.273549
    14  C   -0.000000   0.000000  -0.000058   0.000016  -0.167567   0.092233
    15  C   -0.000000  -0.000001   0.000586   0.011086   0.099121  -0.142946
    16  C   -0.000000   0.000002  -0.007755  -0.091877   0.266627   0.057587
    17  N    0.001931  -0.004628  -0.057256  -0.018814   0.016861  -0.000395
    18  H   -0.000035  -0.000841  -0.000167  -0.001235  -0.000393   0.000624
    19  H   -0.001556   0.012924   0.001289  -0.000448   0.000039  -0.000002
    20  H    0.014228  -0.001856   0.000026  -0.000000  -0.000000  -0.000000
    21  H   -0.067794   0.013915   0.000001   0.000000  -0.000000  -0.000000
    22  H    0.455777  -0.071047   0.000016  -0.000000   0.000000  -0.000000
    23  H   -0.064727   0.445362   0.000935  -0.000044   0.000034  -0.000020
    24  H   -0.000008  -0.000127   0.351924  -0.027572   0.013551   0.000148
    25  H    0.000294   0.002036   0.341108  -0.011318  -0.008239  -0.000473
    26  H    0.000000  -0.000025  -0.030758   0.371939  -0.022259  -0.008238
    27  H    0.000000  -0.000010  -0.022856   0.384292  -0.021622   0.006880
    28  H    0.000000   0.000003  -0.000365  -0.012832  -0.074308   0.455226
    29  H    0.000000  -0.000000   0.000003  -0.000288   0.017636  -0.073713
    30  H    0.000000  -0.000000   0.000000   0.000042  -0.001465   0.014540
    31  H   -0.000000  -0.000000   0.000006  -0.000345   0.016506  -0.001840
    32  H   -0.000000  -0.000002  -0.001108  -0.012750  -0.076491   0.015277
    33  H   -0.000058  -0.000180   0.003400   0.000235  -0.003180   0.006140
              13         14         15         16         17         18
     1  N    0.000020   0.000027  -0.000018   0.000016  -0.066867   0.307671
     2  S   -0.001306   0.000108  -0.000398   0.001292   0.406603  -0.000464
     3  C   -0.000021   0.000002  -0.000005  -0.000101  -0.090613  -0.010492
     4  C    0.000000  -0.000000   0.000000  -0.000002   0.007329   0.005727
     5  C   -0.000000  -0.000000   0.000000  -0.000000  -0.000062   0.000542
     6  C   -0.000000   0.000000  -0.000000  -0.000000  -0.000054   0.000006
     7  C    0.000000  -0.000000  -0.000000  -0.000000   0.001931  -0.000035
     8  C   -0.000000   0.000000  -0.000001   0.000002  -0.004628  -0.000841
     9  C    0.000333  -0.000058   0.000586  -0.007755  -0.057256  -0.000167
    10  C    0.013001   0.000016   0.011086  -0.091877  -0.018814  -0.001235
    11  C    0.098552  -0.167567   0.099121   0.266627   0.016861  -0.000393
    12  C    0.273549   0.092233  -0.142946   0.057587  -0.000395   0.000624
    13  C    5.088055   0.264381   0.088212  -0.141216  -0.001300  -0.000014
    14  C    0.264381   5.121321   0.277978   0.087640   0.000156  -0.000002
    15  C    0.088212   0.277978   5.032257   0.310012  -0.000408   0.000002
    16  C   -0.141216   0.087640   0.310012   5.114717   0.001701  -0.000034
    17  N   -0.001300   0.000156  -0.000408   0.001701   6.813670   0.004724
    18  H   -0.000014  -0.000002   0.000002  -0.000034   0.004724   0.575221
    19  H    0.000000  -0.000000   0.000000   0.000000   0.000334   0.004601
    20  H    0.000000  -0.000000   0.000000   0.000000   0.000002  -0.000001
    21  H    0.000000  -0.000000   0.000000   0.000000   0.000000  -0.000000
    22  H    0.000000  -0.000000   0.000000   0.000000  -0.000016   0.000000
    23  H    0.000003  -0.000001  -0.000001   0.000014   0.034636  -0.000090
    24  H    0.000007  -0.000000   0.000001  -0.000082   0.003594   0.000059
    25  H    0.000124  -0.000045  -0.000542   0.005693   0.008218  -0.000165
    26  H    0.000897  -0.000034  -0.000437   0.009058   0.000447   0.003141
    27  H   -0.000583   0.000056   0.000630  -0.008923  -0.000304   0.000038
    28  H   -0.067340   0.015127  -0.002175   0.015014  -0.001861  -0.001048
    29  H    0.455645  -0.076905   0.015154  -0.002094  -0.000032   0.000000
    30  H   -0.070476   0.449663  -0.070301   0.014669  -0.000007  -0.000000
    31  H    0.014836  -0.073198   0.451080  -0.071723  -0.000005   0.000000
    32  H   -0.001798   0.014802  -0.062888   0.445152  -0.000057   0.000001
    33  H    0.000687   0.000607  -0.000255  -0.000725   0.356708  -0.000206
              19         20         21         22         23         24
     1  N    0.005135   0.000001  -0.000000   0.000001   0.000630   0.001861
     2  S   -0.003488  -0.000155   0.000021  -0.000157  -0.014906  -0.014362
     3  C   -0.089979   0.016873  -0.001487   0.016789  -0.058476   0.003637
     4  C    0.433530  -0.071703   0.015018  -0.001824   0.014433   0.004434
     5  C   -0.044302   0.453666  -0.068892   0.014397  -0.001856   0.000422
     6  C    0.013401  -0.070911   0.449350  -0.074172   0.012398   0.000026
     7  C   -0.001556   0.014228  -0.067794   0.455777  -0.064727  -0.000008
     8  C    0.012924  -0.001856   0.013915  -0.071047   0.445362  -0.000127
     9  C    0.001289   0.000026   0.000001   0.000016   0.000935   0.351924
    10  C   -0.000448  -0.000000   0.000000  -0.000000  -0.000044  -0.027572
    11  C    0.000039  -0.000000  -0.000000   0.000000   0.000034   0.013551
    12  C   -0.000002  -0.000000  -0.000000  -0.000000  -0.000020   0.000148
    13  C    0.000000   0.000000   0.000000   0.000000   0.000003   0.000007
    14  C   -0.000000  -0.000000  -0.000000  -0.000000  -0.000001  -0.000000
    15  C    0.000000   0.000000   0.000000   0.000000  -0.000001   0.000001
    16  C    0.000000   0.000000   0.000000   0.000000   0.000014  -0.000082
    17  N    0.000334   0.000002   0.000000  -0.000016   0.034636   0.003594
    18  H    0.004601  -0.000001  -0.000000   0.000000  -0.000090   0.000059
    19  H    0.678106  -0.012481  -0.000285   0.000048  -0.000210   0.001541
    20  H   -0.012481   0.663761  -0.012173  -0.000263   0.000026  -0.000015
    21  H   -0.000285  -0.012173   0.662300  -0.012185  -0.000196  -0.000002
    22  H    0.000048  -0.000263  -0.012185   0.659527  -0.010479  -0.000000
    23  H   -0.000210   0.000026  -0.000196  -0.010479   0.598670  -0.000047
    24  H    0.001541  -0.000015  -0.000002  -0.000000  -0.000047   0.622945
    25  H   -0.000089  -0.000001  -0.000000  -0.000008   0.000528  -0.012917
    26  H   -0.000100  -0.000000   0.000000  -0.000000  -0.000003  -0.004322
    27  H   -0.000004   0.000000  -0.000000   0.000000   0.000002  -0.006625
    28  H   -0.000013   0.000000   0.000000  -0.000000   0.000001  -0.000124
    29  H    0.000000   0.000000  -0.000000   0.000000   0.000000  -0.000001
    30  H   -0.000000  -0.000000   0.000000  -0.000000  -0.000000   0.000000
    31  H    0.000000  -0.000000  -0.000000   0.000000  -0.000000  -0.000001
    32  H    0.000000  -0.000000   0.000000  -0.000000  -0.000003  -0.000157
    33  H   -0.000034  -0.000000   0.000000  -0.000001  -0.000672  -0.000255
              25         26         27         28         29         30
     1  N    0.003870   0.013740   0.000050   0.017117  -0.000027   0.000000
     2  S   -0.010406  -0.005871   0.005416   0.000199   0.000012  -0.000001
     3  C    0.002834   0.000474  -0.000221   0.000172  -0.000000   0.000000
     4  C   -0.000329   0.000120  -0.000022  -0.000018   0.000000   0.000000
     5  C    0.000030   0.000003  -0.000001  -0.000000   0.000000  -0.000000
     6  C   -0.000017   0.000000   0.000000   0.000000  -0.000000   0.000000
     7  C    0.000294   0.000000   0.000000   0.000000   0.000000   0.000000
     8  C    0.002036  -0.000025  -0.000010   0.000003  -0.000000  -0.000000
     9  C    0.341108  -0.030758  -0.022856  -0.000365   0.000003   0.000000
    10  C   -0.011318   0.371939   0.384292  -0.012832  -0.000288   0.000042
    11  C   -0.008239  -0.022259  -0.021622  -0.074308   0.017636  -0.001465
    12  C   -0.000473  -0.008238   0.006880   0.455226  -0.073713   0.014540
    13  C    0.000124   0.000897  -0.000583  -0.067340   0.455645  -0.070476
    14  C   -0.000045  -0.000034   0.000056   0.015127  -0.076905   0.449663
    15  C   -0.000542  -0.000437   0.000630  -0.002175   0.015154  -0.070301
    16  C    0.005693   0.009058  -0.008923   0.015014  -0.002094   0.014669
    17  N    0.008218   0.000447  -0.000304  -0.001861  -0.000032  -0.000007
    18  H   -0.000165   0.003141   0.000038  -0.001048   0.000000  -0.000000
    19  H   -0.000089  -0.000100  -0.000004  -0.000013   0.000000  -0.000000
    20  H   -0.000001  -0.000000   0.000000   0.000000   0.000000  -0.000000
    21  H   -0.000000   0.000000  -0.000000   0.000000  -0.000000   0.000000
    22  H   -0.000008  -0.000000   0.000000  -0.000000   0.000000  -0.000000
    23  H    0.000528  -0.000003   0.000002   0.000001   0.000000  -0.000000
    24  H   -0.012917  -0.004322  -0.006625  -0.000124  -0.000001   0.000000
    25  H    0.604437   0.008768  -0.006085  -0.000106   0.000001  -0.000001
    26  H    0.008768   0.649359  -0.023917   0.003925  -0.000010  -0.000001
    27  H   -0.006085  -0.023917   0.634090   0.000333   0.000012  -0.000001
    28  H   -0.000106   0.003925   0.000333   0.647586  -0.012662  -0.000257
    29  H    0.000001  -0.000010   0.000012  -0.012662   0.676648  -0.012614
    30  H   -0.000001  -0.000001  -0.000001  -0.000257  -0.012614   0.676729
    31  H    0.000024   0.000012  -0.000006   0.000029  -0.000300  -0.012668
    32  H    0.002167   0.000084   0.004533  -0.000265   0.000038  -0.000308
    33  H   -0.000773  -0.000102   0.000016   0.001458   0.000056   0.000016
              31         32         33
     1  N   -0.000000  -0.000006   0.002956
     2  S   -0.000003   0.000247  -0.022624
     3  C   -0.000000   0.000005   0.006188
     4  C    0.000000  -0.000000  -0.000310
     5  C    0.000000   0.000000  -0.000010
     6  C   -0.000000   0.000000   0.000006
     7  C   -0.000000  -0.000000  -0.000058
     8  C   -0.000000  -0.000002  -0.000180
     9  C    0.000006  -0.001108   0.003400
    10  C   -0.000345  -0.012750   0.000235
    11  C    0.016506  -0.076491  -0.003180
    12  C   -0.001840   0.015277   0.006140
    13  C    0.014836  -0.001798   0.000687
    14  C   -0.073198   0.014802   0.000607
    15  C    0.451080  -0.062888  -0.000255
    16  C   -0.071723   0.445152  -0.000725
    17  N   -0.000005  -0.000057   0.356708
    18  H    0.000000   0.000001  -0.000206
    19  H    0.000000   0.000000  -0.000034
    20  H   -0.000000  -0.000000  -0.000000
    21  H   -0.000000   0.000000   0.000000
    22  H    0.000000  -0.000000  -0.000001
    23  H   -0.000000  -0.000003  -0.000672
    24  H   -0.000001  -0.000157  -0.000255
    25  H    0.000024   0.002167  -0.000773
    26  H    0.000012   0.000084  -0.000102
    27  H   -0.000006   0.004533   0.000016
    28  H    0.000029  -0.000265   0.001458
    29  H   -0.000300   0.000038   0.000056
    30  H   -0.012668  -0.000308   0.000016
    31  H    0.680229  -0.013175  -0.000004
    32  H   -0.013175   0.690753   0.000007
    33  H   -0.000004   0.000007   0.508657
 Mulliken charges:
               1
     1  N   -0.410755
     2  S    0.444038
     3  C   -0.098587
     4  C    0.010970
     5  C   -0.019326
     6  C    0.007291
     7  C   -0.007696
     8  C    0.031761
     9  C   -0.075095
    10  C    0.060139
    11  C   -0.102246
    12  C   -0.035804
    13  C   -0.014248
    14  C   -0.006307
    15  C   -0.005745
    16  C   -0.004663
    17  N   -0.414238
    18  H    0.112830
    19  H    0.002041
    20  H    0.020976
    21  H    0.022409
    22  H    0.023599
    23  H    0.044061
    24  H    0.062467
    25  H    0.071382
    26  H    0.034109
    27  H    0.054832
    28  H    0.017184
    29  H    0.013440
    30  H    0.012440
    31  H    0.010546
    32  H   -0.004055
    33  H    0.142250
 Sum of Mulliken charges =  -0.00000
 Mulliken charges with hydrogens summed into heavy atoms:
               1
     1  N   -0.297925
     2  S    0.444038
     3  C   -0.098587
     4  C    0.013011
     5  C    0.001650
     6  C    0.029701
     7  C    0.015903
     8  C    0.075822
     9  C    0.058754
    10  C    0.149080
    11  C   -0.102246
    12  C   -0.018620
    13  C   -0.000807
    14  C    0.006133
    15  C    0.004801
    16  C   -0.008718
    17  N   -0.271988
 APT charges:
               1
     1  N   -0.908177
     2  S    1.741412
     3  C   -0.239170
     4  C   -0.062557
     5  C   -0.049499
     6  C   -0.019732
     7  C   -0.027093
     8  C   -0.108025
     9  C   -0.224663
    10  C    0.056288
    11  C    0.038489
    12  C   -0.100726
    13  C   -0.013824
    14  C   -0.048363
    15  C   -0.022128
    16  C   -0.063502
    17  N   -0.890693
    18  H    0.214296
    19  H    0.062557
    20  H    0.035129
    21  H    0.042750
    22  H    0.034893
    23  H    0.119942
    24  H   -0.021812
    25  H    0.016385
    26  H    0.013714
    27  H   -0.030972
    28  H    0.081254
    29  H    0.036089
    30  H    0.035796
    31  H    0.032087
    32  H    0.035379
    33  H    0.234474
 Sum of APT charges =   0.00000
 APT charges with hydrogens summed into heavy atoms:
               1
     1  N   -0.693881
     2  S    1.741412
     3  C   -0.239170
     4  C    0.000000
     5  C   -0.014370
     6  C    0.023018
     7  C    0.007800
     8  C    0.011918
     9  C   -0.230090
    10  C    0.039030
    11  C    0.038489
    12  C   -0.019472
    13  C    0.022265
    14  C   -0.012566
    15  C    0.009959
    16  C   -0.028123
    17  N   -0.656219
 Electronic spatial extent (au):  <R**2>=           5079.7211
 Charge=              0.0000 electrons
 Dipole moment (field-independent basis, Debye):
    X=             -1.9623    Y=             -0.7611    Z=              3.0775  Tot=              3.7284
 Quadrupole moment (field-independent basis, Debye-Ang):
   XX=            -95.8005   YY=           -102.1222   ZZ=           -109.9294
   XY=              3.2777   XZ=             -4.5737   YZ=             -1.9212
 Traceless Quadrupole moment (field-independent basis, Debye-Ang):
   XX=              6.8169   YY=              0.4952   ZZ=             -7.3120
   XY=              3.2777   XZ=             -4.5737   YZ=             -1.9212
 Octapole moment (field-independent basis, Debye-Ang**2):
  XXX=            -71.3384  YYY=             -7.1504  ZZZ=              5.8347  XYY=            -14.7283
  XXY=             24.2365  XXZ=             -8.5935  XZZ=             22.8678  YZZ=              4.4969
  YYZ=              6.9151  XYZ=              5.0006
 Hexadecapole moment (field-independent basis, Debye-Ang**3):
 XXXX=          -5254.7521 YYYY=           -780.2244 ZZZZ=           -628.8912 XXXY=             77.3669
 XXXZ=           -144.3287 YYYX=              5.2568 YYYZ=              2.9645 ZZZX=            -11.3518
 ZZZY=            -10.0517 XXYY=           -972.5255 XXZZ=          -1048.7829 YYZZ=           -257.6229
 XXYZ=              3.9672 YYXZ=              5.0639 ZZXY=             11.4776
 N-N= 1.305251360761D+03 E-N=-5.064799583753D+03  KE= 1.042068656967D+03
  Exact polarizability:     217.382      11.673     165.156     -21.298       2.406     133.648
 Approx polarizability:     274.081      25.941     292.413     -41.611       8.636     226.298
   1 Symmetry operations used in ECPInt.
 ECPInt:  NShTT=   11628 NPrTT=   42474 LenC2=   10722 LenP2D=   28148.
 LDataN:  DoStor=T MaxTD1= 6 Len=  172
 Calling FoFJK, ICntrl=    100127 FMM=F ISym2X=0 I1Cent= 0 IOpClX= 0 NMat=1 NMatS=1 NMatT=0.
 ***** Axes restored to original set *****
 -------------------------------------------------------------------
 Center     Atomic                   Forces (Hartrees/Bohr)
 Number     Number              X              Y              Z
 -------------------------------------------------------------------
      1        7           0.004569087   -0.002893970    0.007101808
      2       16          -0.008023661    0.003721206   -0.004520393
      3        6          -0.002485257   -0.009249361    0.000626131
      4        6           0.001986983   -0.003086946   -0.000026739
      5        6           0.000148930   -0.001007599   -0.000147039
      6        6          -0.000363808    0.000964669    0.000062344
      7        6           0.001643000    0.000038989   -0.000669541
      8        6          -0.002847611    0.000273149    0.001444231
      9        6           0.009746204   -0.006893649    0.011748939
     10        6          -0.006773294    0.005714203    0.008184761
     11        6           0.006570651   -0.001201644   -0.006447322
     12        6           0.000398220   -0.003006924    0.000354899
     13        6          -0.000083019   -0.000126574    0.000853897
     14        6          -0.001232302   -0.000338033    0.001490016
     15        6          -0.001338934    0.000345160   -0.000789859
     16        6           0.000124213   -0.000526111    0.000425411
     17        7          -0.012154142    0.016310523   -0.005658061
     18        1           0.009342769   -0.000041768   -0.009152163
     19        1           0.008158087   -0.004995377   -0.001373686
     20        1           0.007830927    0.003220072   -0.002937676
     21        1           0.000637874    0.008949625   -0.001762593
     22        1          -0.007344468    0.005253825    0.001661481
     23        1          -0.008682163   -0.003991316    0.004128100
     24        1           0.004948411    0.005043866   -0.004987922
     25        1          -0.007646855    0.004807792   -0.001331422
     26        1           0.005312039   -0.002215855   -0.000433182
     27        1           0.000613505   -0.000597248   -0.005235364
     28        1           0.008299890    0.001482374    0.002500045
     29        1           0.002566250   -0.003579256    0.007948392
     30        1          -0.006201198   -0.004024082    0.005265659
     31        1          -0.008485766   -0.000651885   -0.002755815
     32        1          -0.002668664    0.003397473   -0.008092279
     33        1           0.003434103   -0.011095330    0.002524945
 -------------------------------------------------------------------
 Cartesian Forces:  Max     0.016310523 RMS     0.005186278
 FormGI is forming the generalized inverse of G from B-inverse, IUseBI=4.

 GradGradGradGradGradGradGradGradGradGradGradGradGradGradGradGradGradGrad
 Berny optimization.
 Internal  Forces:  Max     0.012853677 RMS     0.004527225
 Search for a local minimum.
 Step number   1 out of a maximum of  184
 All quantities printed in internal units (Hartrees-Bohrs-Radians)
 Mixed Optimization -- RFO/linear search
 Second derivative matrix not updated -- analytic derivatives used.
 ITU=  0
     Eigenvalues ---   -0.00132   0.00145   0.00299   0.00412   0.00503
     Eigenvalues ---    0.01037   0.01367   0.01647   0.01783   0.01805
     Eigenvalues ---    0.01852   0.01874   0.02098   0.02185   0.02460
     Eigenvalues ---    0.02468   0.02566   0.02634   0.02724   0.02797
     Eigenvalues ---    0.02974   0.03029   0.03087   0.03090   0.03533
     Eigenvalues ---    0.03642   0.04390   0.05022   0.05765   0.07089
     Eigenvalues ---    0.07414   0.08029   0.09046   0.09672   0.10069
     Eigenvalues ---    0.10556   0.10970   0.10974   0.11206   0.11403
     Eigenvalues ---    0.11545   0.11737   0.12008   0.12236   0.12245
     Eigenvalues ---    0.12404   0.12689   0.13785   0.14222   0.16272
     Eigenvalues ---    0.18128   0.18879   0.19323   0.19385   0.19539
     Eigenvalues ---    0.19598   0.19911   0.20901   0.21933   0.24405
     Eigenvalues ---    0.27366   0.32640   0.32862   0.33541   0.35522
     Eigenvalues ---    0.36128   0.36959   0.37592   0.38642   0.38846
     Eigenvalues ---    0.38974   0.39022   0.39125   0.39129   0.39185
     Eigenvalues ---    0.39226   0.39314   0.39854   0.45262   0.45326
     Eigenvalues ---    0.45610   0.45808   0.47822   0.49637   0.51041
     Eigenvalues ---    0.52114   0.52157   0.52282   0.52310   0.52811
     Eigenvalues ---    0.55826   0.56116   0.56407
 RFO step:  Lambda=-1.15261108D-02 EMin=-1.31544174D-03
 Linear search not attempted -- first point.
 Iteration  1 RMS(Cart)=  0.11540096 RMS(Int)=  0.03686410
 Iteration  2 RMS(Cart)=  0.02821454 RMS(Int)=  0.00913658
 Iteration  3 RMS(Cart)=  0.00954909 RMS(Int)=  0.00039788
 Iteration  4 RMS(Cart)=  0.00033967 RMS(Int)=  0.00021560
 Iteration  5 RMS(Cart)=  0.00000029 RMS(Int)=  0.00021560
 Variable       Old X    -DE/DX   Delta X   Delta X   Delta X     New X
                                 (Linear)    (Quad)   (Total)
    R1        2.89590   0.01164   0.00000   0.02907   0.02907   2.92497
    R2        1.90322   0.01285   0.00000   0.02890   0.02890   1.93212
    R3        3.43122  -0.00385   0.00000  -0.03964  -0.03964   3.39158
    R4        3.54004  -0.00814   0.00000  -0.04081  -0.04081   3.49923
    R5        2.87608   0.00525   0.00000   0.02599   0.02599   2.90207
    R6        2.61257   0.00979   0.00000   0.01513   0.01513   2.62770
    R7        2.61025   0.01086   0.00000   0.02115   0.02115   2.63140
    R8        2.61704   0.00835   0.00000   0.01512   0.01512   2.63216
    R9        2.04208   0.00961   0.00000   0.02191   0.02191   2.06400
   R10        2.61843   0.01012   0.00000   0.01614   0.01614   2.63457
   R11        2.04076   0.00896   0.00000   0.02198   0.02198   2.06274
   R12        2.61908   0.00970   0.00000   0.01714   0.01714   2.63622
   R13        2.04085   0.00914   0.00000   0.02233   0.02233   2.06318
   R14        2.61637   0.00962   0.00000   0.01599   0.01599   2.63236
   R15        2.04039   0.00918   0.00000   0.02270   0.02270   2.06309
   R16        2.03707   0.01040   0.00000   0.02261   0.02261   2.05968
   R17        2.87230   0.00476   0.00000   0.00369   0.00369   2.87600
   R18        2.05697   0.00858   0.00000   0.02278   0.02278   2.07974
   R19        2.05305   0.00883   0.00000   0.02465   0.02465   2.07770
   R20        2.84261   0.00564   0.00000   0.00677   0.00677   2.84938
   R21        2.06449   0.00532   0.00000   0.01380   0.01380   2.07830
   R22        2.06780   0.00509   0.00000   0.01502   0.01502   2.08282
   R23        2.62327   0.01075   0.00000   0.02042   0.02043   2.64370
   R24        2.62441   0.01026   0.00000   0.01861   0.01862   2.64303
   R25        2.61567   0.01056   0.00000   0.01884   0.01885   2.63451
   R26        2.04106   0.00875   0.00000   0.02219   0.02219   2.06325
   R27        2.61560   0.01005   0.00000   0.01775   0.01774   2.63335
   R28        2.04144   0.00908   0.00000   0.02200   0.02200   2.06344
   R29        2.61590   0.01021   0.00000   0.01844   0.01843   2.63432
   R30        2.04110   0.00908   0.00000   0.02200   0.02200   2.06310
   R31        2.61337   0.01022   0.00000   0.01716   0.01716   2.63053
   R32        2.04160   0.00895   0.00000   0.02181   0.02181   2.06341
   R33        2.04354   0.00917   0.00000   0.02260   0.02260   2.06614
   R34        1.89858   0.01022   0.00000   0.02969   0.02969   1.92827
    A1        1.99925  -0.00318   0.00000  -0.06868  -0.06868   1.93058
    A2        2.01205  -0.00274   0.00000   0.00403   0.00397   2.01602
    A3        1.96021  -0.00601   0.00000  -0.07574  -0.07599   1.88421
    A4        2.00835   0.00803   0.00000   0.04449   0.04510   2.05345
    A5        1.69621   0.00407   0.00000   0.01917   0.01929   1.71550
    A6        1.80783  -0.00190   0.00000  -0.04780  -0.04797   1.75985
    A7        1.95105  -0.00207   0.00000   0.05533   0.05590   2.00695
    A8        2.09830  -0.00497   0.00000  -0.04999  -0.05000   2.04830
    A9        2.07256   0.00262   0.00000   0.03964   0.03962   2.11218
   A10        2.11230   0.00236   0.00000   0.01041   0.01041   2.12270
   A11        2.08524  -0.00124   0.00000  -0.00449  -0.00453   2.08071
   A12        2.09451   0.00160   0.00000   0.00061   0.00057   2.09508
   A13        2.10337  -0.00036   0.00000   0.00371   0.00367   2.10705
   A14        2.09200   0.00031   0.00000   0.00010   0.00009   2.09208
   A15        2.09370  -0.00039   0.00000  -0.00101  -0.00102   2.09268
   A16        2.09749   0.00008   0.00000   0.00089   0.00088   2.09837
   A17        2.09893   0.00020   0.00000   0.00019   0.00018   2.09911
   A18        2.09031  -0.00008   0.00000   0.00100   0.00099   2.09130
   A19        2.09394  -0.00012   0.00000  -0.00122  -0.00122   2.09272
   A20        2.09398   0.00084   0.00000   0.00574   0.00574   2.09973
   A21        2.09556  -0.00008   0.00000  -0.00071  -0.00072   2.09485
   A22        2.09364  -0.00077   0.00000  -0.00504  -0.00505   2.08859
   A23        2.08391  -0.00247   0.00000  -0.01202  -0.01203   2.07187
   A24        2.06221   0.00153   0.00000   0.01228   0.01226   2.07447
   A25        2.13698   0.00094   0.00000  -0.00040  -0.00042   2.13656
   A26        1.91888   0.00609   0.00000   0.01871   0.01857   1.93746
   A27        1.86853  -0.00221   0.00000   0.01178   0.01163   1.88016
   A28        1.82781  -0.00294   0.00000  -0.01218  -0.01217   1.81564
   A29        1.95673  -0.00130   0.00000   0.00046   0.00019   1.95692
   A30        1.96097   0.00001   0.00000   0.00189   0.00194   1.96291
   A31        1.92428   0.00024   0.00000  -0.02047  -0.02044   1.90384
   A32        1.92992   0.01273   0.00000   0.04189   0.04168   1.97160
   A33        1.89888  -0.00204   0.00000   0.00569   0.00533   1.90421
   A34        1.90843  -0.00521   0.00000  -0.02052  -0.02058   1.88785
   A35        1.91200  -0.00322   0.00000  -0.00424  -0.00473   1.90727
   A36        1.92184  -0.00327   0.00000  -0.00212  -0.00196   1.91988
   A37        1.89220   0.00078   0.00000  -0.02188  -0.02199   1.87021
   A38        2.10678   0.00151   0.00000   0.00066   0.00064   2.10742
   A39        2.09876   0.00003   0.00000   0.00488   0.00486   2.10362
   A40        2.07726  -0.00154   0.00000  -0.00580  -0.00579   2.07147
   A41        2.10166   0.00070   0.00000   0.00305   0.00303   2.10469
   A42        2.08696  -0.00092   0.00000  -0.00586  -0.00590   2.08106
   A43        2.09439   0.00021   0.00000   0.00255   0.00251   2.09690
   A44        2.09786   0.00026   0.00000   0.00034   0.00034   2.09820
   A45        2.08994  -0.00018   0.00000  -0.00134  -0.00134   2.08860
   A46        2.09538  -0.00008   0.00000   0.00100   0.00100   2.09638
   A47        2.08937  -0.00060   0.00000  -0.00197  -0.00198   2.08739
   A48        2.09741   0.00033   0.00000   0.00081   0.00081   2.09822
   A49        2.09640   0.00027   0.00000   0.00116   0.00117   2.09757
   A50        2.09517   0.00009   0.00000   0.00057   0.00057   2.09573
   A51        2.09573  -0.00006   0.00000  -0.00004  -0.00004   2.09569
   A52        2.09229  -0.00003   0.00000  -0.00054  -0.00053   2.09176
   A53        2.10505   0.00109   0.00000   0.00380   0.00380   2.10885
   A54        2.08690  -0.00035   0.00000  -0.00062  -0.00062   2.08627
   A55        2.09124  -0.00074   0.00000  -0.00318  -0.00318   2.08806
   A56        1.99290  -0.01038   0.00000  -0.09953  -0.09953   1.89338
    D1       -1.05918  -0.00027   0.00000  -0.26297  -0.26326  -1.32243
    D2        0.86211  -0.00073   0.00000  -0.28577  -0.28526   0.57685
    D3        3.12076  -0.00202   0.00000  -0.23708  -0.23731   2.88345
    D4        0.68601  -0.00444   0.00000  -0.19434  -0.19454   0.49146
    D5       -2.46349  -0.00389   0.00000  -0.18513  -0.18538  -2.64887
    D6       -1.38856   0.00127   0.00000  -0.11844  -0.11845  -1.50701
    D7        1.74513   0.00182   0.00000  -0.10924  -0.10929   1.63584
    D8        2.89554   0.00262   0.00000  -0.17130  -0.17103   2.72452
    D9       -0.25395   0.00317   0.00000  -0.16210  -0.16186  -0.41581
   D10        0.78909   0.00220   0.00000   0.07737   0.07703   0.86612
   D11       -1.34056   0.00157   0.00000   0.05850   0.05798  -1.28258
   D12        2.89941   0.00370   0.00000   0.08234   0.08189   2.98130
   D13        2.90326  -0.00106   0.00000   0.06273   0.06271   2.96597
   D14        0.77361  -0.00170   0.00000   0.04385   0.04367   0.81728
   D15       -1.26961   0.00043   0.00000   0.06769   0.06758  -1.20203
   D16       -1.49890  -0.00184   0.00000   0.03300   0.03363  -1.46528
   D17        2.65464  -0.00247   0.00000   0.01412   0.01458   2.66922
   D18        0.61142  -0.00034   0.00000   0.03796   0.03849   0.64991
   D19       -0.47426  -0.00036   0.00000  -0.44558  -0.44688  -0.92114
   D20       -2.68614  -0.00062   0.00000  -0.44316  -0.44341  -3.12955
   D21        1.78889  -0.00361   0.00000  -0.46148  -0.45993   1.32896
   D22        3.12961   0.00035   0.00000  -0.00502  -0.00522   3.12439
   D23       -0.02338   0.00014   0.00000  -0.02154  -0.02170  -0.04508
   D24       -0.00390  -0.00021   0.00000  -0.01456  -0.01458  -0.01848
   D25        3.12629  -0.00042   0.00000  -0.03108  -0.03105   3.09524
   D26       -3.12939  -0.00030   0.00000   0.00305   0.00280  -3.12659
   D27        0.02630  -0.00015   0.00000   0.01390   0.01374   0.04003
   D28        0.00424   0.00022   0.00000   0.01204   0.01208   0.01632
   D29       -3.12326   0.00037   0.00000   0.02290   0.02302  -3.10024
[...]
     8  C   -0.000063   0.000029  -0.000065   0.000272   0.014804  -0.004056
     9  C    0.005786  -0.001866   0.004530  -0.001816  -0.040852  -0.001879
    10  C   -0.005794   0.006742  -0.001508  -0.055190  -0.026654  -0.005036
    11  C    0.132026  -0.156009   0.087033   0.353791   0.044051  -0.001147
    12  C    0.312296   0.096282  -0.138043   0.058939  -0.022583   0.002407
    13  C    4.996600   0.400053   0.060127  -0.115158   0.002786   0.000183
    14  C    0.400053   4.936882   0.433608   0.056688  -0.001580  -0.000057
    15  C    0.060127   0.433608   4.902209   0.438170   0.003523   0.000050
    16  C   -0.115158   0.056688   0.438170   5.056027  -0.005213  -0.000573
    17  N    0.002786  -0.001580   0.003523  -0.005213   6.871885   0.008554
    18  H    0.000183  -0.000057   0.000050  -0.000573   0.008554   0.508425
    19  H    0.000005  -0.000000   0.000000   0.000008   0.001227  -0.000336
    20  H   -0.000000   0.000000  -0.000000  -0.000000   0.000008   0.000004
    21  H   -0.000000   0.000000  -0.000000   0.000000  -0.000001  -0.000001
    22  H    0.000000  -0.000000   0.000000  -0.000000  -0.000153   0.000002
    23  H    0.000005  -0.000000  -0.000010   0.000258   0.026879  -0.000161
    24  H    0.000045  -0.000018   0.000051   0.000114   0.003600  -0.001485
    25  H    0.000352  -0.000317   0.000718  -0.006791   0.008976   0.000617
    26  H    0.001912  -0.000463   0.000369  -0.002330   0.001201   0.005452
    27  H   -0.002171   0.000671  -0.000079   0.004934  -0.000958  -0.000110
    28  H   -0.052788   0.014568  -0.005069   0.016761  -0.003299  -0.002371
    29  H    0.431382  -0.056237   0.011424  -0.002201   0.000025   0.000006
    30  H   -0.051006   0.423409  -0.049695   0.009704  -0.000014  -0.000000
    31  H    0.011391  -0.052138   0.424856  -0.054060   0.000004   0.000000
    32  H   -0.004020   0.012083  -0.052183   0.430052  -0.000654   0.000003
    33  H   -0.006808   0.003583  -0.002343   0.001300   0.349318  -0.000079
              19         20         21         22         23         24
     1  N    0.029616  -0.000082  -0.000001   0.000002   0.001320   0.002041
     2  S    0.000572  -0.000355   0.000028  -0.000481  -0.000404  -0.015389
     3  C   -0.098903   0.010210  -0.002351   0.012091  -0.061702  -0.002187
     4  C    0.431534  -0.047332   0.009896  -0.000159   0.015749   0.000202
     5  C   -0.044054   0.420775  -0.048699   0.009154  -0.004026   0.000266
     6  C    0.009755  -0.047751   0.422744  -0.052408   0.010546   0.000100
     7  C   -0.002778   0.009065  -0.050588   0.424449  -0.061932  -0.000336
     8  C    0.011189  -0.001322   0.010593  -0.051475   0.428289   0.001382
     9  C    0.006132  -0.000004   0.000003   0.000075   0.000369   0.381431
    10  C   -0.001899   0.000002   0.000000  -0.000006   0.000005  -0.046619
    11  C    0.000437  -0.000000  -0.000000   0.000001   0.000120   0.016546
    12  C   -0.000035   0.000000   0.000000  -0.000000  -0.000139  -0.000924
    13  C    0.000005  -0.000000  -0.000000   0.000000   0.000005   0.000045
    14  C   -0.000000   0.000000   0.000000  -0.000000  -0.000000  -0.000018
    15  C    0.000000  -0.000000  -0.000000   0.000000  -0.000010   0.000051
    16  C    0.000008  -0.000000   0.000000  -0.000000   0.000258   0.000114
    17  N    0.001227   0.000008  -0.000001  -0.000153   0.026879   0.003600
    18  H   -0.000336   0.000004  -0.000001   0.000002  -0.000161  -0.001485
    19  H    0.534726  -0.006761  -0.000260   0.000118   0.000002   0.000640
    20  H   -0.006761   0.545963  -0.007300  -0.000263   0.000057   0.000003
    21  H   -0.000260  -0.007300   0.549638  -0.007743  -0.000153  -0.000002
    22  H    0.000118  -0.000263  -0.007743   0.548801  -0.006813   0.000002
    23  H    0.000002   0.000057  -0.000153  -0.006813   0.498785   0.000151
    24  H    0.000640   0.000003  -0.000002   0.000002   0.000151   0.531418
    25  H   -0.000463   0.000007  -0.000002  -0.000007   0.000703  -0.015737
    26  H   -0.000082   0.000000  -0.000000   0.000000  -0.000012  -0.001585
    27  H   -0.000042   0.000000   0.000000  -0.000000   0.000012  -0.004243
    28  H   -0.000022  -0.000000   0.000000  -0.000000   0.000000  -0.000112
    29  H    0.000000  -0.000000  -0.000000   0.000000   0.000000  -0.000001
    30  H   -0.000000   0.000000   0.000000  -0.000000   0.000000   0.000000
    31  H    0.000000  -0.000000  -0.000000   0.000000  -0.000001  -0.000001
    32  H    0.000000  -0.000000  -0.000000   0.000000  -0.000016  -0.000155
    33  H   -0.000083  -0.000000   0.000000  -0.000003  -0.001064  -0.000402
              25         26         27         28         29         30
     1  N    0.005599  -0.006336   0.001618   0.021599  -0.000273   0.000002
     2  S   -0.011685  -0.000342   0.005511   0.001196  -0.000204   0.000011
     3  C    0.004317  -0.000678   0.000619   0.000889  -0.000007   0.000000
     4  C   -0.001654   0.000230  -0.000322  -0.000187   0.000001  -0.000000
     5  C    0.000558   0.000030  -0.000010  -0.000005   0.000000  -0.000000
     6  C   -0.000425  -0.000006   0.000002   0.000001  -0.000000   0.000000
     7  C    0.001169   0.000012   0.000004  -0.000000  -0.000000   0.000000
     8  C   -0.006568  -0.000255   0.000082   0.000091  -0.000001   0.000000
     9  C    0.351954  -0.036346  -0.045898  -0.002080   0.000108  -0.000007
    10  C   -0.012505   0.414584   0.414358   0.003742  -0.000913   0.000156
    11  C    0.003524  -0.036561  -0.057244  -0.083330   0.014947  -0.001711
    12  C   -0.000358   0.001559   0.007417   0.441154  -0.055325   0.010797
    13  C    0.000352   0.001912  -0.002171  -0.052788   0.431382  -0.051006
    14  C   -0.000317  -0.000463   0.000671   0.014568  -0.056237   0.423409
    15  C    0.000718   0.000369  -0.000079  -0.005069   0.011424  -0.049695
    16  C   -0.006791  -0.002330   0.004934   0.016761  -0.002201   0.009704
    17  N    0.008976   0.001201  -0.000958  -0.003299   0.000025  -0.000014
    18  H    0.000617   0.005452  -0.000110  -0.002371   0.000006  -0.000000
    19  H   -0.000463  -0.000082  -0.000042  -0.000022   0.000000  -0.000000
    20  H    0.000007   0.000000   0.000000  -0.000000  -0.000000   0.000000
    21  H   -0.000002  -0.000000   0.000000   0.000000  -0.000000   0.000000
    22  H   -0.000007   0.000000  -0.000000  -0.000000   0.000000  -0.000000
    23  H    0.000703  -0.000012   0.000012   0.000000   0.000000   0.000000
    24  H   -0.015737  -0.001585  -0.004243  -0.000112  -0.000001   0.000000
    25  H    0.538627   0.005589  -0.003650  -0.000401   0.000003  -0.000002
    26  H    0.005589   0.531899  -0.018920  -0.001335  -0.000027  -0.000005
    27  H   -0.003650  -0.018920   0.560481   0.001213   0.000006  -0.000001
    28  H   -0.000401  -0.001335   0.001213   0.517904  -0.008079  -0.000195
    29  H    0.000003  -0.000027   0.000006  -0.008079   0.550940  -0.007970
    30  H   -0.000002  -0.000005  -0.000001  -0.000195  -0.007970   0.555367
    31  H    0.000019   0.000022  -0.000048   0.000044  -0.000266  -0.007787
    32  H    0.000513   0.000092   0.002680  -0.000138   0.000073  -0.000300
    33  H   -0.000743  -0.000040   0.000105   0.001563  -0.000367   0.000023
              31         32         33
     1  N   -0.000002  -0.000040  -0.000846
     2  S   -0.000024  -0.000166  -0.023715
     3  C   -0.000000   0.000087   0.008060
     4  C    0.000000  -0.000002  -0.000838
     5  C    0.000000  -0.000000   0.000009
     6  C   -0.000000  -0.000000   0.000010
     7  C   -0.000000   0.000000   0.000016
     8  C   -0.000000  -0.000008  -0.000549
     9  C    0.000093  -0.001082   0.003571
    10  C   -0.000598  -0.000957  -0.001278
    11  C    0.013462  -0.074700  -0.014602
    12  C   -0.003014   0.016349   0.019402
    13  C    0.011391  -0.004020  -0.006808
    14  C   -0.052138   0.012083   0.003583
    15  C    0.424856  -0.052183  -0.002343
    16  C   -0.054060   0.430052   0.001300
    17  N    0.000004  -0.000654   0.349318
    18  H    0.000000   0.000003  -0.000079
    19  H    0.000000   0.000000  -0.000083
    20  H   -0.000000  -0.000000  -0.000000
    21  H   -0.000000  -0.000000   0.000000
    22  H    0.000000   0.000000  -0.000003
    23  H   -0.000001  -0.000016  -0.001064
    24  H   -0.000001  -0.000155  -0.000402
    25  H    0.000019   0.000513  -0.000743
    26  H    0.000022   0.000092  -0.000040
    27  H   -0.000048   0.002680   0.000105
    28  H    0.000044  -0.000138   0.001563
    29  H   -0.000266   0.000073  -0.000367
    30  H   -0.007787  -0.000300   0.000023
    31  H    0.559513  -0.008483  -0.000032
    32  H   -0.008483   0.569154   0.000148
    33  H   -0.000032   0.000148   0.435665
 Mulliken charges:
               1
     1  N   -0.551260
     2  S    0.509566
     3  C    0.203849
     4  C   -0.210108
     5  C   -0.113427
     6  C   -0.106366
     7  C   -0.100033
     8  C   -0.215863
     9  C   -0.290266
    10  C   -0.275760
    11  C    0.157140
    12  C   -0.230474
    13  C   -0.105903
    14  C   -0.118742
    15  C   -0.115416
    16  C   -0.183963
    17  N   -0.525357
    18  H    0.209128
    19  H    0.129755
    20  H    0.125075
    21  H    0.124197
    22  H    0.124816
    23  H    0.153181
    24  H    0.151204
    25  H    0.138063
    26  H    0.142371
    27  H    0.133985
    28  H    0.138686
    29  H    0.122955
    30  H    0.119224
    31  H    0.117049
    32  H    0.111673
    33  H    0.231019
 Sum of Mulliken charges =  -0.00000
 Mulliken charges with hydrogens summed into heavy atoms:
               1
     1  N   -0.342131
     2  S    0.509566
     3  C    0.203849
     4  C   -0.080353
     5  C    0.011649
     6  C    0.017831
     7  C    0.024783
     8  C   -0.062682
     9  C   -0.000999
    10  C    0.000596
    11  C    0.157140
    12  C   -0.091787
    13  C    0.017052
    14  C    0.000482
    15  C    0.001633
    16  C   -0.072290
    17  N   -0.294338
 Electronic spatial extent (au):  <R**2>=           5174.9084
 Charge=             -0.0000 electrons
 Dipole moment (field-independent basis, Debye):
    X=             -0.9795    Y=              0.5878    Z=              3.8952  Tot=              4.0592
 Quadrupole moment (field-independent basis, Debye-Ang):
   XX=            -93.9689   YY=           -103.8302   ZZ=           -111.3921
   XY=              1.6124   XZ=             -5.3683   YZ=             -2.3052
 Traceless Quadrupole moment (field-independent basis, Debye-Ang):
   XX=              9.0948   YY=             -0.7665   ZZ=             -8.3283
   XY=              1.6124   XZ=             -5.3683   YZ=             -2.3052
 Octapole moment (field-independent basis, Debye-Ang**2):
  XXX=            -70.9619  YYY=              6.5175  ZZZ=             10.6079  XYY=             -7.8392
  XXY=             21.5880  XXZ=            -21.8153  XZZ=             23.1928  YZZ=             -0.8741
  YYZ=             13.9516  XYZ=              7.8640
 Hexadecapole moment (field-independent basis, Debye-Ang**3):
 XXXX=          -5349.6929 YYYY=           -828.3532 ZZZZ=           -615.0699 XXXY=             71.9593
 XXXZ=           -157.5991 YYYX=             -1.3184 YYYZ=            -21.1356 ZZZX=            -17.2467
 ZZZY=              2.6004 XXYY=           -992.6851 XXZZ=          -1084.9238 YYZZ=           -263.4179
 XXYZ=              4.4863 YYXZ=             -0.4556 ZZXY=              5.3289
 N-N= 1.296911645948D+03 E-N=-5.053663205419D+03  KE= 1.045807606617D+03
 Breneman (CHELPG) radii used.
 Read replacement radii for each type of atom:
 Atom Element Radius
    1     7    1.70
    2    16    2.00
    3     6    1.50
    4     6    1.50
    5     6    1.50
    6     6    1.50
    7     6    1.50
    8     6    1.50
    9     6    1.50
   10     6    1.50
   11     6    1.50
   12     6    1.50
   13     6    1.50
   14     6    1.50
   15     6    1.50
   16     6    1.50
   17     7    1.70
   18     1    1.45
   19     1    1.45
   20     1    1.45
   21     1    1.45
   22     1    1.45
   23     1    1.45
   24     1    1.45
   25     1    1.45
   26     1    1.45
   27     1    1.45
   28     1    1.45
   29     1    1.45
   30     1    1.45
   31     1    1.45
   32     1    1.45
   33     1    1.45
 Generate Potential Derived Charges using the Breneman model, NDens= 1.
 Grid spacing= 0.300 Box extension= 2.800
 NStep X,Y,Z=   56     38     36   Total possible points=       76608
 Number of Points to Fit=   19364

 **********************************************************************

            Electrostatic Properties Using The SCF Density.

 **********************************************************************

       Atomic Center    1 is at  -0.324981 -1.984888 -0.741708
       Atomic Center    2 is at  -0.484094 -0.488272 -0.359535
       Atomic Center    3 is at  -2.196280  0.035542 -0.204274
       Atomic Center    4 is at  -3.157832 -0.956324 -0.048861
       Atomic Center    5 is at  -4.494378 -0.587517  0.095589
       Atomic Center    6 is at  -4.849468  0.760660  0.076511
       Atomic Center    7 is at  -3.873984  1.744054 -0.098031
       Atomic Center    8 is at  -2.535782  1.386415 -0.243952
       Atomic Center    9 is at   0.027632 -0.291010  1.402448
       Atomic Center   10 is at   1.404410 -0.886347  1.663021
       Atomic Center   11 is at   2.496644 -0.295039  0.809239
       Atomic Center   12 is at   2.955867 -0.965344 -0.330398
       Atomic Center   13 is at   3.929705 -0.391245 -1.146449
       Atomic Center   14 is at   4.459361  0.859509 -0.833470
       Atomic Center   15 is at   4.012382  1.532227  0.303234
       Atomic Center   16 is at   3.039380  0.957174  1.116774
       Atomic Center   17 is at   0.084485  0.584749 -1.301142
       Atomic Center   18 is at  -0.399449 -2.565333  0.097260
       Atomic Center   19 is at  -2.852489 -2.005624 -0.077071
       Atomic Center   20 is at  -5.262029 -1.356153  0.210919
       Atomic Center   21 is at  -5.897747  1.048392  0.186649
       Atomic Center   22 is at  -4.159866  2.798038 -0.130810
       Atomic Center   23 is at  -1.753031  2.127437 -0.414880
       Atomic Center   24 is at  -0.749096 -0.770054  2.019097
       Atomic Center   25 is at  -0.002134  0.794940  1.578000
       Atomic Center   26 is at   1.366510 -1.975751  1.509995
       Atomic Center   27 is at   1.638726 -0.730294  2.729231
       Atomic Center   28 is at   2.514960 -1.928969 -0.597179
       Atomic Center   29 is at   4.272841 -0.925050 -2.035898
       Atomic Center   30 is at   5.220766  1.310115 -1.474367
       Atomic Center   31 is at   4.424273  2.511821  0.557437
       Atomic Center   32 is at   2.692591  1.491467  2.006412
       Atomic Center   33 is at   1.068201  0.371812 -1.480566
   19364 points will be used for fitting atomic charges
 Fitting point charges to electrostatic potential
 Charges from ESP fit, RMS=   0.00395 RRMS=   0.23228:
 ESP charges:
               1
     1  N   -0.787178
     2  S    0.782418
     3  C    0.058929
     4  C   -0.072158
     5  C   -0.109462
     6  C   -0.095562
     7  C   -0.077932
     8  C   -0.100676
     9  C    0.005640
    10  C    0.115179
    11  C   -0.005999
    12  C   -0.115494
    13  C   -0.088348
    14  C   -0.084819
    15  C   -0.072962
    16  C   -0.152956
    17  N   -0.789579
    18  H    0.340355
    19  H    0.068703
    20  H    0.108598
    21  H    0.099733
    22  H    0.094906
    23  H    0.113644
    24  H   -0.043375
    25  H   -0.002261
    26  H   -0.027555
    27  H    0.008915
    28  H    0.099517
    29  H    0.091765
    30  H    0.087438
    31  H    0.084497
    32  H    0.111889
    33  H    0.354189
 Sum of ESP charges =   0.00000
 ESP charges with hydrogens summed into heavy atoms:
               1
     1  N   -0.446822
     2  S    0.782418
     3  C    0.058929
     4  C   -0.003456
     5  C   -0.000865
     6  C    0.004171
     7  C    0.016974
     8  C    0.012968
     9  C   -0.039996
    10  C    0.096540
    11  C   -0.005999
    12  C   -0.015977
    13  C    0.003417
    14  C    0.002619
    15  C    0.011535
    16  C   -0.041067
    17  N   -0.435389
 Charge=   0.00000 Dipole=    -0.8643     0.4836     3.9434 Tot=     4.0658
 -----------------------------------------------------------------

              Electrostatic Properties (Atomic Units)

 -----------------------------------------------------------------
    Center     Electric         -------- Electric Field --------
               Potential          X             Y             Z
 -----------------------------------------------------------------
    1 Atom    -18.428486
    2 Atom    -59.080535
    3 Atom    -14.734003
    4 Atom    -14.746448
    5 Atom    -14.748669
    6 Atom    -14.748106
    7 Atom    -14.749770
    8 Atom    -14.748380
    9 Atom    -14.728419
   10 Atom    -14.738866
   11 Atom    -14.748780
   12 Atom    -14.764456
   13 Atom    -14.761478
   14 Atom    -14.761656
   15 Atom    -14.760094
   16 Atom    -14.760232
   17 Atom    -18.433822
   18 Atom     -1.049227
   19 Atom     -1.087967
   20 Atom     -1.091174
   21 Atom     -1.090952
   22 Atom     -1.092428
   23 Atom     -1.094293
   24 Atom     -1.079453
   25 Atom     -1.083881
   26 Atom     -1.100480
   27 Atom     -1.095762
   28 Atom     -1.106262
   29 Atom     -1.103230
   30 Atom     -1.102212
   31 Atom     -1.101031
   32 Atom     -1.097875
   33 Atom     -1.059562
 -----------------------------------------------------------------
 Unable to Open any file for archive entry.
 1\1\GINC-NOTCH240\SP\RPBE1PBE\def2TZVP\C14H16N2S1\U1414944\07-Jun-2025
 \0\\#N Guess=Read Geom=Check Integral(Ultrafine) Density Pop=(ChelpG,R
 eadRadii) NMR pbe1pbe EmpiricalDispersion=GD3BJ def2TZVP\\SDI0241_10\\
 0,1\N,0,1.9702843686,-0.3249484944,0.7973978879\S,0,0.6326776432,0.314
 9362201,0.3363249957\C,0,0.7490698468,2.0823351678,0.0316588034\C,0,2.
 0188055759,2.6188736629,-0.1484265264\C,0,2.1475637576,3.9825095255,-0
 .4075775514\C,0,1.0111190374,4.7873534564,-0.4765221874\C,0,-0.2559290
 791,4.2364782735,-0.275966161\C,0,-0.3957445315,2.8753326704,-0.015740
 6768\C,0,0.2976471917,-0.2431495103,-1.3904219486\C,0,0.3735362955,-1.
 7580502795,-1.5214210116\C,0,-0.5794155314,-2.4973595065,-0.6176133685
 \C,0,-0.1336332831,-3.0635343934,0.5822582358\C,0,-1.0280883905,-3.701
 6296416,1.4405562657\C,0,-2.3797500681,-3.7844562229,1.1103646961\C,0,
 -2.8321575436,-3.2286095333,-0.0857952961\C,0,-1.9371471442,-2.5914145
 21,-0.9414853147\N,0,-0.5877829583,0.2402253026,1.2670098997\H,0,2.553
 890137,-0.5300022742,-0.0172710347\H,0,2.8923623405,1.9690881945,-0.04
 97379731\H,0,3.1393823122,4.4197235125,-0.5437011284\H,0,1.1134843472,
 5.8566126321,-0.6765634326\H,0,-1.1417685266,4.8749343638,-0.312678737
 \H,0,-1.3679994909,2.4190913796,0.1781496465\H,0,1.0302608114,0.261298
 5728,-2.0399263019\H,0,-0.7048762779,0.149868569,-1.6173037822\H,0,1.4
 035382296,-2.0910706611,-1.3218007918\H,0,0.1630495584,-2.0126350575,-
 2.5735341865\H,0,0.9188794192,-2.9669050232,0.8597880977\H,0,-0.664816
 3768,-4.1329931592,2.3763811955\H,0,-3.0807656253,-4.2825050645,1.7842
 022808\H,0,-3.8895918058,-3.2915112396,-0.3536609344\H,0,-2.299584786,
 -2.1564882378,-1.8777901704\H,0,-0.7385366369,-0.7367303896,1.52789701
 26\\Version=ES64L-G16RevC.01\State=1-A\HF=-1050.0886062\RMSD=3.008e-09
 \Dipole=-0.0543742,0.3101853,-1.5656656\Quadrupole=1.2339919,4.4556115
 ,-5.6896034,3.1156065,-3.1614017,-3.9903188\PG=C01 [X(C14H16N2S1)]\\@
 The archive entry for this job was punched.


 Not by the face shall a man be known, but by the mask.
                               -- Karen Blixen
 Job cpu time:       0 days  0 hours 52 minutes 32.3 seconds.
 Elapsed time:       0 days  0 hours  3 minutes 35.3 seconds.
 File lengths (MBytes):  RWF=    238 Int=      0 D2E=      0 Chk=     37 Scr=      2
 Normal termination of Gaussian 16 at Sat Jun  7 21:48:50 2025.
