 Entering Gaussian System, Link 0=g16
 Input=SDI0241_1.com
 Output=SDI0241_1.log
 Initial command:
 /uufs/chpc.utah.edu/sys/installdir/gaussian16/C01/AVX/g16/l1.exe "/scratch/general/vast/u1414944/4689597-notchpeak.peaks/Gau-1255784.inp" -scrdir="/scratch/general/vast/u1414944/4689597-notchpeak.peaks/"
 Entering Link 1 = /uufs/chpc.utah.edu/sys/installdir/gaussian16/C01/AVX/g16/l1.exe PID=   1255785.
  
 Copyright (c) 1988-2019, Gaussian, Inc.  All Rights Reserved.
  
 This is part of the Gaussian(R) 16 program.  It is based on
 the Gaussian(R) 09 system (copyright 2009, Gaussian, Inc.),
 the Gaussian(R) 03 system (copyright 2003, Gaussian, Inc.),
 the Gaussian(R) 98 system (copyright 1998, Gaussian, Inc.),
 the Gaussian(R) 94 system (copyright 1995, Gaussian, Inc.),
 the Gaussian 92(TM) system (copyright 1992, Gaussian, Inc.),
 the Gaussian 90(TM) system (copyright 1990, Gaussian, Inc.),
 the Gaussian 88(TM) system (copyright 1988, Gaussian, Inc.),
 the Gaussian 86(TM) system (copyright 1986, Carnegie Mellon
 University), and the Gaussian 82(TM) system (copyright 1983,
 Carnegie Mellon University). Gaussian is a federally registered
 trademark of Gaussian, Inc.
  
 This software contains proprietary and confidential information,
 including trade secrets, belonging to Gaussian, Inc.
  
 This software is provided under written license and may be
 used, copied, transmitted, or stored only in accord with that
 written license.
  
 The following legend is applicable only to US Government
 contracts under FAR:
  
                    RESTRICTED RIGHTS LEGEND
  
 Use, reproduction and disclosure by the US Government is
 subject to restrictions as set forth in subparagraphs (a)
 and (c) of the Commercial Computer Software - Restricted
 Rights clause in FAR 52.227-19.
  
 Gaussian, Inc.
 340 Quinnipiac St., Bldg. 40, Wallingford CT 06492
  
  
 ---------------------------------------------------------------
 Warning -- This program may not be used in any manner that
 competes with the business of Gaussian, Inc. or will provide
 assistance to any competitor of Gaussian, Inc.  The licensee
 of this program is prohibited from giving any competitor of
 Gaussian, Inc. access to this program.  By using this program,
 the user acknowledges that Gaussian, Inc. is engaged in the
 business of creating and licensing software in the field of
 computational chemistry and represents and warrants to the
 licensee that it is not a competitor of Gaussian, Inc. and that
 it will not use this program in any manner prohibited above.
 ---------------------------------------------------------------
  

 Cite this work as:
 Gaussian 16, Revision C.01,
 M. J. Frisch, G. W. Trucks, H. B. Schlegel, G. E. Scuseria, 
 M. A. Robb, J. R. Cheeseman, G. Scalmani, V. Barone, 
 G. A. Petersson, H. Nakatsuji, X. Li, M. Caricato, A. V. Marenich, 
 J. Bloino, B. G. Janesko, R. Gomperts, B. Mennucci, H. P. Hratchian, 
 J. V. Ortiz, A. F. Izmaylov, J. L. Sonnenberg, D. Williams-Young, 
 F. Ding, F. Lipparini, F. Egidi, J. Goings, B. Peng, A. Petrone, 
 T. Henderson, D. Ranasinghe, V. G. Zakrzewski, J. Gao, N. Rega, 
 G. Zheng, W. Liang, M. Hada, M. Ehara, K. Toyota, R. Fukuda, 
 J. Hasegawa, M. Ishida, T. Nakajima, Y. Honda, O. Kitao, H. Nakai, 
 T. Vreven, K. Throssell, J. A. Montgomery, Jr., J. E. Peralta, 
 F. Ogliaro, M. J. Bearpark, J. J. Heyd, E. N. Brothers, K. N. Kudin, 
 V. N. Staroverov, T. A. Keith, R. Kobayashi, J. Normand, 
 K. Raghavachari, A. P. Rendell, J. C. Burant, S. S. Iyengar, 
 J. Tomasi, M. Cossi, J. M. Millam, M. Klene, C. Adamo, R. Cammi, 
 J. W. Ochterski, R. L. Martin, K. Morokuma, O. Farkas, 
 J. B. Foresman, and D. J. Fox, Gaussian, Inc., Wallingford CT, 2019.
 
 ******************************************
 Gaussian 16:  ES64L-G16RevC.01  3-Jul-2019
                 6-Jun-2025 
 ******************************************
 %NProcShared=16
 Will use up to   16 processors via shared memory.
 %Mem=40GB
 %chk=SDI0241_1.chk
 ----------------------------------------------------------------------
 #N OPT FREQ=NORAMAN Integral(Ultrafine) pbe1pbe EmpiricalDispersion=GD
 3BJ def2SVP
 ----------------------------------------------------------------------
 1/18=20,19=15,26=4,38=1/1,3;
 2/9=110,12=2,17=6,18=5,40=1/2;
 3/5=43,7=101,11=2,25=1,30=1,71=1,74=-13,75=-5,124=41/1,2,3;
 4//1;
 5/5=2,38=5/2;
 6/7=2,8=2,9=2,10=2,28=1/1;
 7//1,2,3,16;
 1/18=20,19=15,26=4/3(2);
 2/9=110/2;
 99//99;
 2/9=110/2;
 3/5=43,7=101,11=2,25=1,30=1,71=1,74=-13,75=-5,124=41/1,2,3;
 4/5=5,16=3,69=1/1;
 5/5=2,38=5/2;
 7//1,2,3,16;
 1/18=20,19=15,26=4/3(-5);
 2/9=110/2;
 6/7=2,8=2,9=2,10=2,19=2,28=1/1;
 99/9=1/99;
 ---------
 SDI0241_1
 ---------
 Symbolic Z-matrix:
 Charge =  0 Multiplicity = 1
 N                     3.36684   0.81708  -0.11936 
 S                     2.09229   0.00877   0.15899 
 C                     0.59538   1.05047   0.06658 
 C                    -0.16393   1.20565   1.20861 
 C                    -1.28306   2.01889   1.17949 
 C                    -1.62923   2.67408   0.00937 
 C                    -0.85137   2.52887  -1.1276 
 C                     0.27098   1.71882  -1.09844 
 C                     1.72264  -1.24716  -1.15478 
 C                     0.78699  -2.31494  -0.61883 
 C                    -0.58341  -1.77425  -0.31959 
 C                    -1.38085  -1.2591   -1.33447 
 C                    -2.63263  -0.74249  -1.05548 
 C                    -3.11084  -0.74682   0.24335 
 C                    -2.33054  -1.27169   1.25837 
 C                    -1.07401  -1.77896   0.97845 
 N                     2.12192  -0.75075   1.48045 
 H                     3.33493   1.375    -0.95685 
 H                     0.13519   0.67496   2.09905 
 H                    -1.885     2.14023   2.06733 
 H                    -2.50496   3.30529  -0.01703 
 H                    -1.11664   3.04841  -2.0365 
 H                     0.88905   1.61456  -1.9792 
 H                     2.69103  -1.66616  -1.42432 
 H                     1.30313  -0.71159  -2.00267 
 H                     1.22721  -2.71253   0.29637 
 H                     0.71194  -3.12245  -1.35415 
 H                    -1.02232  -1.26515  -2.35486 
 H                    -3.23827  -0.33899  -1.85404 
 H                    -4.0894   -0.34494   0.46105 
 H                    -2.70049  -1.28211   2.2732 
 H                    -0.45691  -2.17053   1.77285 
 H                     2.88829  -0.47606   2.07063 
 

 GradGradGradGradGradGradGradGradGradGradGradGradGradGradGradGradGradGrad
 Berny optimization.
 Initialization pass.
                           ----------------------------
                           !    Initial Parameters    !
                           ! (Angstroms and Degrees)  !
 --------------------------                            --------------------------
 ! Name  Definition              Value          Derivative Info.                !
 --------------------------------------------------------------------------------
 ! R1    R(1,2)                  1.5347         estimate D2E/DX2                !
 ! R2    R(1,18)                 1.0068         estimate D2E/DX2                !
 ! R3    R(2,3)                  1.826          estimate D2E/DX2                !
 ! R4    R(2,9)                  1.8547         estimate D2E/DX2                !
 ! R5    R(2,17)                 1.5245         estimate D2E/DX2                !
 ! R6    R(3,4)                  1.3802         estimate D2E/DX2                !
 ! R7    R(3,8)                  1.3817         estimate D2E/DX2                !
 ! R8    R(4,5)                  1.3837         estimate D2E/DX2                !
 ! R9    R(4,19)                 1.0789         estimate D2E/DX2                !
 ! R10   R(5,6)                  1.385          estimate D2E/DX2                !
 ! R11   R(5,20)                 1.0795         estimate D2E/DX2                !
 ! R12   R(6,7)                  1.3852         estimate D2E/DX2                !
 ! R13   R(6,21)                 1.0798         estimate D2E/DX2                !
 ! R14   R(7,8)                  1.3844         estimate D2E/DX2                !
 ! R15   R(7,22)                 1.08           estimate D2E/DX2                !
 ! R16   R(8,23)                 1.081          estimate D2E/DX2                !
 ! R17   R(9,10)                 1.5175         estimate D2E/DX2                !
 ! R18   R(9,24)                 1.089          estimate D2E/DX2                !
 ! R19   R(9,25)                 1.0871         estimate D2E/DX2                !
 ! R20   R(10,11)                1.5033         estimate D2E/DX2                !
 ! R21   R(10,26)                1.0906         estimate D2E/DX2                !
 ! R22   R(10,27)                1.0947         estimate D2E/DX2                !
 ! R23   R(11,12)                1.3897         estimate D2E/DX2                !
 ! R24   R(11,16)                1.3877         estimate D2E/DX2                !
 ! R25   R(12,13)                1.3826         estimate D2E/DX2                !
 ! R26   R(12,28)                1.0816         estimate D2E/DX2                !
 ! R27   R(13,14)                1.3841         estimate D2E/DX2                !
 ! R28   R(13,29)                1.0804         estimate D2E/DX2                !
 ! R29   R(14,15)                1.3837         estimate D2E/DX2                !
 ! R30   R(14,30)                1.08           estimate D2E/DX2                !
 ! R31   R(15,16)                1.3837         estimate D2E/DX2                !
 ! R32   R(15,31)                1.0802         estimate D2E/DX2                !
 ! R33   R(16,32)                1.0795         estimate D2E/DX2                !
 ! R34   R(17,33)                1.0055         estimate D2E/DX2                !
 ! A1    A(2,1,18)             114.6078         estimate D2E/DX2                !
 ! A2    A(1,2,3)              111.7872         estimate D2E/DX2                !
 ! A3    A(1,2,9)              113.1844         estimate D2E/DX2                !
 ! A4    A(1,2,17)             113.7959         estimate D2E/DX2                !
 ! A5    A(3,2,9)              100.7816         estimate D2E/DX2                !
 ! A6    A(3,2,17)             110.1223         estimate D2E/DX2                !
 ! A7    A(9,2,17)             106.2909         estimate D2E/DX2                !
 ! A8    A(2,3,4)              118.246          estimate D2E/DX2                !
 ! A9    A(2,3,8)              120.7353         estimate D2E/DX2                !
 ! A10   A(4,3,8)              120.9389         estimate D2E/DX2                !
 ! A11   A(3,4,5)              119.5791         estimate D2E/DX2                !
 ! A12   A(3,4,19)             118.3653         estimate D2E/DX2                !
 ! A13   A(5,4,19)             122.0531         estimate D2E/DX2                !
 ! A14   A(4,5,6)              119.8647         estimate D2E/DX2                !
 ! A15   A(4,5,20)             119.9828         estimate D2E/DX2                !
 ! A16   A(6,5,20)             120.1524         estimate D2E/DX2                !
 ! A17   A(5,6,7)              120.2312         estimate D2E/DX2                !
 ! A18   A(5,6,21)             119.9918         estimate D2E/DX2                !
 ! A19   A(7,6,21)             119.776          estimate D2E/DX2                !
 ! A20   A(6,7,8)              119.9523         estimate D2E/DX2                !
 ! A21   A(6,7,22)             120.1594         estimate D2E/DX2                !
 ! A22   A(8,7,22)             119.8881         estimate D2E/DX2                !
 ! A23   A(3,8,7)              119.4134         estimate D2E/DX2                !
 ! A24   A(3,8,23)             120.4023         estimate D2E/DX2                !
 ! A25   A(7,8,23)             120.1839         estimate D2E/DX2                !
 ! A26   A(2,9,10)             110.4375         estimate D2E/DX2                !
 ! A27   A(2,9,24)             104.9885         estimate D2E/DX2                !
 ! A28   A(2,9,25)             107.2048         estimate D2E/DX2                !
 ! A29   A(10,9,24)            111.4043         estimate D2E/DX2                !
 ! A30   A(10,9,25)            112.5938         estimate D2E/DX2                !
 ! A31   A(24,9,25)            109.8562         estimate D2E/DX2                !
 ! A32   A(9,10,11)            112.2891         estimate D2E/DX2                !
 ! A33   A(9,10,26)            107.699          estimate D2E/DX2                !
 ! A34   A(9,10,27)            108.9096         estimate D2E/DX2                !
 ! A35   A(11,10,26)           109.3924         estimate D2E/DX2                !
 ! A36   A(11,10,27)           109.665          estimate D2E/DX2                !
 ! A37   A(26,10,27)           108.8098         estimate D2E/DX2                !
 ! A38   A(10,11,12)           120.7342         estimate D2E/DX2                !
 ! A39   A(10,11,16)           120.4821         estimate D2E/DX2                !
 ! A40   A(12,11,16)           118.7836         estimate D2E/DX2                !
 ! A41   A(11,12,13)           120.7081         estimate D2E/DX2                !
 ! A42   A(11,12,28)           119.7813         estimate D2E/DX2                !
 ! A43   A(13,12,28)           119.5101         estimate D2E/DX2                !
 ! A44   A(12,13,14)           120.0659         estimate D2E/DX2                !
 ! A45   A(12,13,29)           119.8617         estimate D2E/DX2                !
 ! A46   A(14,13,29)           120.072          estimate D2E/DX2                !
 ! A47   A(13,14,15)           119.6511         estimate D2E/DX2                !
 ! A48   A(13,14,30)           120.0682         estimate D2E/DX2                !
 ! A49   A(15,14,30)           120.2805         estimate D2E/DX2                !
 ! A50   A(14,15,16)           120.1835         estimate D2E/DX2                !
 ! A51   A(14,15,31)           119.9784         estimate D2E/DX2                !
 ! A52   A(16,15,31)           119.8376         estimate D2E/DX2                !
 ! A53   A(11,16,15)           120.6009         estimate D2E/DX2                !
 ! A54   A(11,16,32)           119.1774         estimate D2E/DX2                !
 ! A55   A(15,16,32)           120.2155         estimate D2E/DX2                !
 ! A56   A(2,17,33)            112.7981         estimate D2E/DX2                !
 ! D1    D(18,1,2,3)           -50.3454         estimate D2E/DX2                !
 ! D2    D(18,1,2,9)            62.6305         estimate D2E/DX2                !
 ! D3    D(18,1,2,17)         -175.8784         estimate D2E/DX2                !
 ! D4    D(1,2,3,4)           -117.0579         estimate D2E/DX2                !
 ! D5    D(1,2,3,8)             59.7244         estimate D2E/DX2                !
 ! D6    D(9,2,3,4)            122.4305         estimate D2E/DX2                !
 ! D7    D(9,2,3,8)            -60.7872         estimate D2E/DX2                !
 ! D8    D(17,2,3,4)            10.4749         estimate D2E/DX2                !
 ! D9    D(17,2,3,8)          -172.7428         estimate D2E/DX2                !
 ! D10   D(1,2,9,10)           159.961          estimate D2E/DX2                !
 ! D11   D(1,2,9,24)            39.7657         estimate D2E/DX2                !
 ! D12   D(1,2,9,25)           -77.042          estimate D2E/DX2                !
 ! D13   D(3,2,9,10)           -80.5287         estimate D2E/DX2                !
 ! D14   D(3,2,9,24)           159.276          estimate D2E/DX2                !
 ! D15   D(3,2,9,25)            42.4682         estimate D2E/DX2                !
 ! D16   D(17,2,9,10)           34.3379         estimate D2E/DX2                !
 ! D17   D(17,2,9,24)          -85.8574         estimate D2E/DX2                !
 ! D18   D(17,2,9,25)          157.3349         estimate D2E/DX2                !
 ! D19   D(1,2,17,33)           11.4464         estimate D2E/DX2                !
 ! D20   D(3,2,17,33)         -114.965          estimate D2E/DX2                !
 ! D21   D(9,2,17,33)          136.6961         estimate D2E/DX2                !
 ! D22   D(2,3,4,5)            178.207          estimate D2E/DX2                !
 ! D23   D(2,3,4,19)            -2.3619         estimate D2E/DX2                !
 ! D24   D(8,3,4,5)              1.4316         estimate D2E/DX2                !
 ! D25   D(8,3,4,19)          -179.1373         estimate D2E/DX2                !
 ! D26   D(2,3,8,7)           -178.3284         estimate D2E/DX2                !
 ! D27   D(2,3,8,23)             1.4257         estimate D2E/DX2                !
 ! D28   D(4,3,8,7)             -1.6333         estimate D2E/DX2                !
 ! D29   D(4,3,8,23)           178.1208         estimate D2E/DX2                !
 ! D30   D(3,4,5,6)             -0.2728         estimate D2E/DX2                !
 ! D31   D(3,4,5,20)           179.6328         estimate D2E/DX2                !
 ! D32   D(19,4,5,6)          -179.6822         estimate D2E/DX2                !
 ! D33   D(19,4,5,20)            0.2234         estimate D2E/DX2                !
 ! D34   D(4,5,6,7)             -0.6637         estimate D2E/DX2                !
 ! D35   D(4,5,6,21)           179.6927         estimate D2E/DX2                !
 ! D36   D(20,5,6,7)           179.4309         estimate D2E/DX2                !
 ! D37   D(20,5,6,21)           -0.2127         estimate D2E/DX2                !
 ! D38   D(5,6,7,8)              0.4591         estimate D2E/DX2                !
 ! D39   D(5,6,7,22)          -179.3657         estimate D2E/DX2                !
 ! D40   D(21,6,7,8)          -179.8966         estimate D2E/DX2                !
 ! D41   D(21,6,7,22)            0.2787         estimate D2E/DX2                !
 ! D42   D(6,7,8,3)              0.6781         estimate D2E/DX2                !
 ! D43   D(6,7,8,23)          -179.0764         estimate D2E/DX2                !
 ! D44   D(22,7,8,3)          -179.4966         estimate D2E/DX2                !
 ! D45   D(22,7,8,23)            0.7488         estimate D2E/DX2                !
 ! D46   D(2,9,10,11)           67.249          estimate D2E/DX2                !
 ! D47   D(2,9,10,26)          -53.2476         estimate D2E/DX2                !
 ! D48   D(2,9,10,27)         -171.0921         estimate D2E/DX2                !
 ! D49   D(24,9,10,11)        -176.4865         estimate D2E/DX2                !
 ! D50   D(24,9,10,26)          63.0169         estimate D2E/DX2                !
 ! D51   D(24,9,10,27)         -54.8277         estimate D2E/DX2                !
 ! D52   D(25,9,10,11)         -52.5504         estimate D2E/DX2                !
 ! D53   D(25,9,10,26)        -173.0471         estimate D2E/DX2                !
 ! D54   D(25,9,10,27)          69.1084         estimate D2E/DX2                !
 ! D55   D(9,10,11,12)          63.1841         estimate D2E/DX2                !
 ! D56   D(9,10,11,16)        -116.7048         estimate D2E/DX2                !
 ! D57   D(26,10,11,12)       -177.3031         estimate D2E/DX2                !
 ! D58   D(26,10,11,16)          2.8079         estimate D2E/DX2                !
 ! D59   D(27,10,11,12)        -58.0424         estimate D2E/DX2                !
 ! D60   D(27,10,11,16)        122.0687         estimate D2E/DX2                !
 ! D61   D(10,11,12,13)       -178.9651         estimate D2E/DX2                !
 ! D62   D(10,11,12,28)          1.3002         estimate D2E/DX2                !
 ! D63   D(16,11,12,13)          0.9257         estimate D2E/DX2                !
 ! D64   D(16,11,12,28)       -178.809          estimate D2E/DX2                !
 ! D65   D(10,11,16,15)        179.4573         estimate D2E/DX2                !
 ! D66   D(10,11,16,32)          0.3651         estimate D2E/DX2                !
 ! D67   D(12,11,16,15)         -0.4338         estimate D2E/DX2                !
 ! D68   D(12,11,16,32)       -179.526          estimate D2E/DX2                !
 ! D69   D(11,12,13,14)         -0.678          estimate D2E/DX2                !
 ! D70   D(11,12,13,29)        179.5626         estimate D2E/DX2                !
 ! D71   D(28,12,13,14)        179.0575         estimate D2E/DX2                !
 ! D72   D(28,12,13,29)         -0.702          estimate D2E/DX2                !
 ! D73   D(12,13,14,15)         -0.0742         estimate D2E/DX2                !
 ! D74   D(12,13,14,30)       -179.8876         estimate D2E/DX2                !
 ! D75   D(29,13,14,15)        179.6847         estimate D2E/DX2                !
 ! D76   D(29,13,14,30)         -0.1287         estimate D2E/DX2                !
 ! D77   D(13,14,15,16)          0.5626         estimate D2E/DX2                !
 ! D78   D(13,14,15,31)       -179.704          estimate D2E/DX2                !
 ! D79   D(30,14,15,16)       -179.6244         estimate D2E/DX2                !
 ! D80   D(30,14,15,31)          0.1091         estimate D2E/DX2                !
 ! D81   D(14,15,16,11)         -0.3059         estimate D2E/DX2                !
 ! D82   D(14,15,16,32)        178.7768         estimate D2E/DX2                !
 ! D83   D(31,15,16,11)        179.9603         estimate D2E/DX2                !
 ! D84   D(31,15,16,32)         -0.957          estimate D2E/DX2                !
 --------------------------------------------------------------------------------
 Trust Radius=3.00D-01 FncErr=1.00D-07 GrdErr=1.00D-06 EigMax=2.50D+02 EigMin=1.00D-04
 Number of steps in this run=    184 maximum allowed number of steps=    198.
 GradGradGradGradGradGradGradGradGradGradGradGradGradGradGradGradGradGrad

                          Input orientation:                          
 ---------------------------------------------------------------------
 Center     Atomic      Atomic             Coordinates (Angstroms)
 Number     Number       Type             X           Y           Z
 ---------------------------------------------------------------------
      1          7           0        3.366844    0.817077   -0.119361
      2         16           0        2.092289    0.008770    0.158989
      3          6           0        0.595382    1.050472    0.066576
      4          6           0       -0.163930    1.205654    1.208614
      5          6           0       -1.283060    2.018886    1.179487
      6          6           0       -1.629225    2.674082    0.009369
      7          6           0       -0.851372    2.528872   -1.127598
      8          6           0        0.270979    1.718823   -1.098441
      9          6           0        1.722637   -1.247157   -1.154783
     10          6           0        0.786989   -2.314945   -0.618828
     11          6           0       -0.583407   -1.774249   -0.319591
     12          6           0       -1.380849   -1.259096   -1.334469
     13          6           0       -2.632628   -0.742492   -1.055483
     14          6           0       -3.110841   -0.746818    0.243354
     15          6           0       -2.330537   -1.271694    1.258371
     16          6           0       -1.074011   -1.778963    0.978446
     17          7           0        2.121921   -0.750753    1.480446
     18          1           0        3.334933    1.375002   -0.956850
     19          1           0        0.135191    0.674960    2.099052
     20          1           0       -1.884999    2.140225    2.067327
     21          1           0       -2.504964    3.305290   -0.017034
     22          1           0       -1.116637    3.048407   -2.036504
     23          1           0        0.889046    1.614562   -1.979195
     24          1           0        2.691029   -1.666165   -1.424323
     25          1           0        1.303129   -0.711592   -2.002672
     26          1           0        1.227206   -2.712532    0.296374
     27          1           0        0.711937   -3.122454   -1.354154
     28          1           0       -1.022322   -1.265149   -2.354858
     29          1           0       -3.238268   -0.338995   -1.854044
     30          1           0       -4.089397   -0.344938    0.461046
     31          1           0       -2.700494   -1.282108    2.273200
     32          1           0       -0.456906   -2.170532    1.772851
     33          1           0        2.888292   -0.476064    2.070627
 ---------------------------------------------------------------------
                    Distance matrix (angstroms):
                    1          2          3          4          5
     1  N    0.000000
     2  S    1.534709   0.000000
     3  C    2.787481   1.826038   0.000000
     4  C    3.792213   2.761299   1.380177   0.000000
     5  C    4.975235   4.058937   2.388502   1.383707   0.000000
     6  C    5.331580   4.579951   2.754680   2.396155   1.385023
     7  C    4.662632   4.083059   2.388476   2.771529   2.401892
     8  C    3.369886   2.796889   1.381736   2.403121   2.773812
     9  C    2.834886   1.854721   2.835757   3.893721   5.014984
    10  C    4.088359   2.776411   3.439843   4.079021   5.128463
    11  C    4.728589   3.250776   3.085080   3.375084   4.138190
    12  C    5.322366   3.987555   3.347017   3.744751   4.132155
    13  C    6.269151   4.936009   3.859247   3.875033   3.800215
    14  C    6.673661   5.258384   4.122814   3.664446   3.444742
    15  C    6.222641   4.733880   3.920948   3.291491   3.454178
    16  C    5.259829   3.727326   3.409411   3.128765   3.808908
    17  N    2.562676   1.524467   2.752047   3.021016   4.399474
    18  H    1.006819   2.157742   2.942424   4.118247   5.128780
    19  H    3.922389   2.835117   2.117486   1.078884   2.159439
    20  H    5.840735   4.899355   3.367916   2.138432   1.079497
    21  H    6.378072   5.659750   3.834493   3.375074   2.139988
    22  H    5.362450   4.935260   3.368337   3.851516   3.380859
    23  H    3.199132   2.932268   2.142339   3.382025   3.854711
    24  H    2.885506   2.381338   3.740940   4.830165   6.012721
    25  H    3.184746   2.411322   2.808480   4.017518   4.926461
    26  H    4.148377   2.858798   3.822592   4.256715   5.428410
    27  H    4.908478   3.741596   4.409690   5.105629   6.068997
    28  H    5.347700   4.200370   3.720539   4.420412   4.831611
    29  H    6.926264   5.708598   4.507357   4.606232   4.311004
    30  H    7.568533   6.199161   4.904073   4.286314   3.738897
    31  H    6.851534   5.395092   4.601404   3.708971   3.755248
    32  H    5.208392   3.721869   3.793884   3.435526   4.311129
    33  H    2.587909   2.126744   3.406460   3.589889   4.941567
                    6          7          8          9         10
     6  C    0.000000
     7  C    1.385221   0.000000
     8  C    2.398028   1.384449   0.000000
     9  C    5.288322   4.569973   3.302654   0.000000
    10  C    5.578809   5.138642   4.094823   1.517516   0.000000
    11  C    4.581441   4.386517   3.679421   2.508627   1.503290
    12  C    4.163831   3.830385   3.413539   3.108706   2.515250
    13  C    3.716680   3.725574   3.806685   4.385531   3.789071
    14  C    3.735303   4.208902   4.395055   5.056445   4.288993
    15  C    4.197736   4.724942   4.611468   4.717216   3.785660
    16  C    4.590968   4.800254   4.284503   3.557347   2.510355
    17  N    5.288163   5.137929   4.021872   2.711139   2.938655
    18  H    5.221500   4.345771   3.086435   3.084541   4.496886
    19  H    3.387688   3.849880   3.366312   4.099019   4.092828
    20  H    2.141405   3.380382   3.853298   5.905200   5.848375
    21  H    1.079833   2.137883   3.375230   6.316000   6.541112
    22  H    2.142070   1.079996   2.138511   5.224057   5.865077
    23  H    3.379151   2.142484   1.081021   3.092566   4.159572
    24  H    6.289501   5.498635   4.173846   1.089038   2.166819
    25  H    4.910173   3.988513   2.791037   1.087075   2.179946
    26  H    6.103866   5.815540   4.743078   2.120998   1.090625
    27  H    6.398443   5.867943   4.868039   2.139627   1.094718
    28  H    4.634161   3.991239   3.486445   2.995881   2.718360
    29  H    3.891010   3.801270   4.137676   5.091591   4.651111
    30  H    3.920579   4.611657   5.069910   6.099561   5.369004
    31  H    4.682306   5.432150   5.403999   5.596103   4.646840
    32  H    5.287201   5.536480   4.888888   3.764847   2.699678
    33  H    5.880490   5.765707   4.659491   3.515196   3.876871
                   11         12         13         14         15
    11  C    0.000000
    12  C    1.389703   0.000000
    13  C    2.409433   1.382630   0.000000
    14  C    2.785758   2.396837   1.384082   0.000000
    15  C    2.407278   2.761320   2.392746   1.383702   0.000000
    16  C    1.387664   2.390395   2.764132   2.398825   1.383668
    17  N    3.406828   4.522340   5.388575   5.377008   4.488327
    18  H    5.067274   5.414764   6.332874   6.891344   6.633985
    19  H    3.516367   4.222324   4.429569   4.000225   3.252079
    20  H    4.765986   4.835470   4.315200   3.628303   3.534700
    21  H    5.439268   4.881895   4.180815   4.105419   4.754563
    22  H    5.146856   4.372327   4.198993   4.855752   5.567138
    23  H    4.050487   3.718334   4.337181   5.149266   5.401669
    24  H    3.457463   4.093162   5.415768   6.106394   5.706889
    25  H    2.742448   2.819574   4.048248   4.952677   4.914433
    26  H    2.130284   3.402070   4.539482   4.762930   3.957144
    27  H    2.136796   2.802186   4.115768   4.775910   4.416701
    28  H    2.143396   1.081560   2.134159   3.373616   3.842772
    29  H    3.385674   2.136949   1.080421   2.140476   3.373579
    30  H    3.865784   3.375766   2.140113   1.080032   2.142007
    31  H    3.383315   3.841519   3.372821   2.138971   1.080210
    32  H    2.133391   3.367466   3.843506   3.377825   2.140816
    33  H    4.410342   5.516646   6.350127   6.277089   5.341251
                   16         17         18         19         20
    16  C    0.000000
    17  N    3.394585   0.000000
    18  H    5.756010   3.454076   0.000000
    19  H    2.956293   2.522385   4.479614   0.000000
    20  H    4.147698   4.975700   6.081028   2.495832   0.000000
    21  H    5.374778   6.332614   6.222031   4.285660   2.467042
    22  H    5.691682   6.106620   4.876722   4.929823   4.272775
    23  H    4.910932   4.368502   2.661755   4.252441   4.934166
    24  H    4.467835   3.098313   3.143539   4.942403   6.900743
    25  H    3.959437   3.578277   3.094486   4.484501   5.904398
    26  H    2.575339   2.459902   4.766657   3.989642   6.030866
    27  H    3.230418   3.955752   5.221596   5.165038   6.793114
    28  H    3.373069   4.986023   5.283039   4.994114   5.647699
    29  H    3.844544   6.326136   6.851986   5.294838   4.832703
    30  H    3.378859   6.307483   7.751729   4.644395   3.689925
    31  H    2.137452   4.915942   7.343013   3.449863   3.524171
    32  H    1.079456   2.958315   5.865162   2.924690   4.550692
    33  H    4.311642   1.005531   3.576527   2.984163   5.443279
                   21         22         23         24         25
    21  H    0.000000
    22  H    2.464082   0.000000
    23  H    4.269419   2.466163   0.000000
    24  H    7.327631   6.090999   3.783939   0.000000
    25  H    5.880448   4.471465   2.362839   1.781001   0.000000
    26  H    7.088124   6.642615   4.900644   2.489671   3.048793
    27  H    7.311104   6.472156   4.781356   2.458151   2.565608
    28  H    5.343460   4.326315   3.476663   3.849116   2.416234
    29  H    4.146463   4.001137   4.568016   6.091191   4.559080
    30  H    4.007887   5.156534   5.880418   7.160617   5.940007
    31  H    5.131046   6.311538   6.273624   6.548870   5.885369
    32  H    6.114153   6.494902   5.496943   4.515065   4.413707
    33  H    6.909716   6.732746   4.976822   3.697286   4.377211
                   26         27         28         29         30
    26  H    0.000000
    27  H    1.777014   0.000000
    28  H    3.766209   2.731053   0.000000
    29  H    5.495311   4.858154   2.453363   0.000000
    30  H    5.822275   5.836297   4.264159   2.466597   0.000000
    31  H    4.623935   5.309355   4.922954   4.267647   2.468044
    32  H    2.304340   3.471384   4.263496   4.923909   4.271840
    33  H    3.302873   4.844484   5.958228   7.277127   7.162129
                   31         32         33
    31  H    0.000000
    32  H    2.464413   0.000000
    33  H    5.650246   3.761682   0.000000
 Stoichiometry    C14H16N2S
 Framework group  C1[X(C14H16N2S)]
 Deg. of freedom    93
 Full point group                 C1      NOp   1
 Largest Abelian subgroup         C1      NOp   1
 Largest concise Abelian subgroup C1      NOp   1
                         Standard orientation:                         
 ---------------------------------------------------------------------
 Center     Atomic      Atomic             Coordinates (Angstroms)
 Number     Number       Type             X           Y           Z
 ---------------------------------------------------------------------
      1          7           0        3.343314    0.972110   -0.062551
      2         16           0        2.102197    0.107004    0.195428
      3          6           0        0.562316    1.082934    0.091785
      4          6           0       -0.216303    1.196947    1.225646
      5          6           0       -1.369534    1.960697    1.188340
      6          6           0       -1.730393    2.608173    0.018364
      7          6           0       -0.933747    2.504897   -1.110143
      8          6           0        0.222561    1.744467   -1.072747
      9          6           0        1.803179   -1.154812   -1.130618
     10          6           0        0.908978   -2.266110   -0.612664
     11          6           0       -0.487157   -1.787862   -0.326367
     12          6           0       -1.294509   -1.301073   -1.347393
     13          6           0       -2.570859   -0.841572   -1.080083
     14          6           0       -3.063514   -0.875710    0.212902
     15          6           0       -2.272857   -1.372962    1.233800
     16          6           0       -0.992163   -1.822924    0.965667
     17          7           0        2.149652   -0.659564    1.512289
     18          1           0        3.296770    1.533850   -0.896797
     19          1           0        0.095368    0.673718    2.116199
     20          1           0       -1.986501    2.049521    2.069688
     21          1           0       -2.632548    3.200690   -0.014474
     22          1           0       -1.210893    3.018583   -2.018828
     23          1           0        0.854811    1.673360   -1.946709
     24          1           0        2.792052   -1.529256   -1.391243
     25          1           0        1.370536   -0.632269   -1.980031
     26          1           0        1.355487   -2.650369    0.305180
     27          1           0        0.877901   -3.071055   -1.353951
     28          1           0       -0.924206   -1.284445   -2.363449
     29          1           0       -3.184238   -0.459437   -1.883232
     30          1           0       -4.061186   -0.518465    0.421454
     31          1           0       -2.653794   -1.406502    2.244056
     32          1           0       -0.367805   -2.192613    1.764874
     33          1           0        2.896345   -0.355722    2.113306
 ---------------------------------------------------------------------
 Rotational constants (GHZ):           0.6352316           0.4654610           0.3561964
 Standard basis: def2SVP (5D, 7F)
 There are   339 symmetry adapted cartesian basis functions of A   symmetry.
 There are   322 symmetry adapted basis functions of A   symmetry.
   322 basis functions,   549 primitive gaussians,   339 cartesian basis functions
    65 alpha electrons       65 beta electrons
       nuclear repulsion energy      1386.7500278147 Hartrees.
 NAtoms=   33 NActive=   33 NUniq=   33 SFac= 1.00D+00 NAtFMM=   60 NAOKFM=F Big=F
 Integral buffers will be    131072 words long.
 Raffenetti 2 integral format.
 Two-electron integral symmetry is turned on.
 Nuclear repulsion after empirical dispersion term =     1386.7024941948 Hartrees.
 One-electron integrals computed using PRISM.
   1 Symmetry operations used in ECPInt.
 ECPInt:  NShTT=   11628 NPrTT=   42474 LenC2=   11328 LenP2D=   30542.
 LDataN:  DoStor=T MaxTD1= 4 Len=   56
 NBasis=   322 RedAO= T EigKep=  2.13D-04  NBF=   322
 NBsUse=   322 1.00D-06 EigRej= -1.00D+00 NBFU=   322
 ExpMin= 1.22D-01 ExpMax= 9.18D+03 ExpMxC= 1.38D+03 IAcc=3 IRadAn=         5 AccDes= 0.00D+00
 Harris functional with IExCor= 1009 and IRadAn=       5 diagonalized for initial guess.
 HarFok:  IExCor= 1009 AccDes= 0.00D+00 IRadAn=         5 IDoV= 1 UseB2=F ITyADJ=14
 ICtDFT=  3500011 ScaDFX=  1.000000  1.000000  1.000000  1.000000
 FoFCou: FMM=F IPFlag=           0 FMFlag=      100000 FMFlg1=           0
         NFxFlg=           0 DoJE=T BraDBF=F KetDBF=T FulRan=T
         wScrn=  0.000000 ICntrl=       500 IOpCl=  0 I1Cent=   200000004 NGrid=           0
         NMat0=    1 NMatS0=      1 NMatT0=    0 NMatD0=    1 NMtDS0=    0 NMtDT0=    0
 Petite list used in FoFCou.
 Requested convergence on RMS density matrix=1.00D-08 within 128 cycles.
 Requested convergence on MAX density matrix=1.00D-06.
 Requested convergence on             energy=1.00D-06.
 No special actions if energy rises.
 Integral accuracy reduced to 1.0D-05 until final iterations.
 Initial convergence to 1.0D-05 achieved.  Increase integral accuracy.
 SCF Done:  E(RPBE1PBE) =  -1049.21619291     A.U. after   15 cycles
            NFock= 15  Conv=0.72D-08     -V/T= 2.0069

 **********************************************************************

            Population analysis using the SCF Density.

 **********************************************************************

 Orbital symmetries:
       Occupied  (A) (A) (A) (A) (A) (A) (A) (A) (A) (A) (A) (A)
                 (A) (A) (A) (A) (A) (A) (A) (A) (A) (A) (A) (A)
                 (A) (A) (A) (A) (A) (A) (A) (A) (A) (A) (A) (A)
                 (A) (A) (A) (A) (A) (A) (A) (A) (A) (A) (A) (A)
                 (A) (A) (A) (A) (A) (A) (A) (A) (A) (A) (A) (A)
                 (A) (A) (A) (A) (A)
       Virtual   (A) (A) (A) (A) (A) (A) (A) (A) (A) (A) (A) (A)
                 (A) (A) (A) (A) (A) (A) (A) (A) (A) (A) (A) (A)
                 (A) (A) (A) (A) (A) (A) (A) (A) (A) (A) (A) (A)
                 (A) (A) (A) (A) (A) (A) (A) (A) (A) (A) (A) (A)
                 (A) (A) (A) (A) (A) (A) (A) (A) (A) (A) (A) (A)
                 (A) (A) (A) (A) (A) (A) (A) (A) (A) (A) (A) (A)
                 (A) (A) (A) (A) (A) (A) (A) (A) (A) (A) (A) (A)
                 (A) (A) (A) (A) (A) (A) (A) (A) (A) (A) (A) (A)
                 (A) (A) (A) (A) (A) (A) (A) (A) (A) (A) (A) (A)
                 (A) (A) (A) (A) (A) (A) (A) (A) (A) (A) (A) (A)
                 (A) (A) (A) (A) (A) (A) (A) (A) (A) (A) (A) (A)
                 (A) (A) (A) (A) (A) (A) (A) (A) (A) (A) (A) (A)
                 (A) (A) (A) (A) (A) (A) (A) (A) (A) (A) (A) (A)
                 (A) (A) (A) (A) (A) (A) (A) (A) (A) (A) (A) (A)
                 (A) (A) (A) (A) (A) (A) (A) (A) (A) (A) (A) (A)
                 (A) (A) (A) (A) (A) (A) (A) (A) (A) (A) (A) (A)
                 (A) (A) (A) (A) (A) (A) (A) (A) (A) (A) (A) (A)
                 (A) (A) (A) (A) (A) (A) (A) (A) (A) (A) (A) (A)
                 (A) (A) (A) (A) (A) (A) (A) (A) (A) (A) (A) (A)
                 (A) (A) (A) (A) (A) (A) (A) (A) (A) (A) (A) (A)
                 (A) (A) (A) (A) (A) (A) (A) (A) (A) (A) (A) (A)
                 (A) (A) (A) (A) (A)
 The electronic state is 1-A.
 Alpha  occ. eigenvalues --  -89.17713 -14.34030 -14.33758 -10.26465 -10.26011
 Alpha  occ. eigenvalues --  -10.25451 -10.24769 -10.24618 -10.24577 -10.24517
 Alpha  occ. eigenvalues --  -10.24152 -10.23960 -10.23438 -10.23358 -10.23207
 Alpha  occ. eigenvalues --  -10.23096 -10.22697  -8.15194  -6.09305  -6.09231
 Alpha  occ. eigenvalues --   -6.09199  -1.00429  -0.89335  -0.88245  -0.84647
 Alpha  occ. eigenvalues --   -0.82216  -0.78429  -0.77798  -0.76199  -0.75561
 Alpha  occ. eigenvalues --   -0.68529  -0.65086  -0.63534  -0.62126  -0.60445
 Alpha  occ. eigenvalues --   -0.58927  -0.55729  -0.53196  -0.52516  -0.50107
 Alpha  occ. eigenvalues --   -0.49382  -0.48049  -0.47243  -0.46602  -0.45528
 Alpha  occ. eigenvalues --   -0.45320  -0.44947  -0.43794  -0.43170  -0.41262
 Alpha  occ. eigenvalues --   -0.40354  -0.38451  -0.38296  -0.37009  -0.36750
 Alpha  occ. eigenvalues --   -0.34959  -0.34865  -0.30802  -0.29734  -0.28772
 Alpha  occ. eigenvalues --   -0.27326  -0.25680  -0.25098  -0.24526  -0.23964
 Alpha virt. eigenvalues --   -0.03243  -0.02088   0.00263   0.01037   0.04913
 Alpha virt. eigenvalues --    0.06736   0.07256   0.07761   0.08831   0.09691
 Alpha virt. eigenvalues --    0.10217   0.11216   0.12030   0.12351   0.13128
 Alpha virt. eigenvalues --    0.13627   0.14313   0.15349   0.15780   0.16379
 Alpha virt. eigenvalues --    0.16556   0.17617   0.18178   0.18881   0.20617
 Alpha virt. eigenvalues --    0.22394   0.23536   0.25736   0.28676   0.29298
 Alpha virt. eigenvalues --    0.29490   0.30664   0.31141   0.31467   0.32343
 Alpha virt. eigenvalues --    0.33313   0.34746   0.36026   0.37376   0.40426
 Alpha virt. eigenvalues --    0.41571   0.42632   0.43262   0.44505   0.44594
 Alpha virt. eigenvalues --    0.45385   0.46092   0.46922   0.47480   0.48155
 Alpha virt. eigenvalues --    0.48453   0.49512   0.50017   0.52654   0.52740
 Alpha virt. eigenvalues --    0.53405   0.54157   0.55000   0.56124   0.56900
 Alpha virt. eigenvalues --    0.58154   0.59734   0.61519   0.62399   0.63650
 Alpha virt. eigenvalues --    0.64327   0.65306   0.66025   0.66514   0.66793
 Alpha virt. eigenvalues --    0.67323   0.68133   0.68432   0.68737   0.69271
 Alpha virt. eigenvalues --    0.69747   0.70161   0.70440   0.71203   0.71651
 Alpha virt. eigenvalues --    0.72514   0.72809   0.73590   0.74379   0.74653
 Alpha virt. eigenvalues --    0.75304   0.76232   0.76779   0.77149   0.77617
 Alpha virt. eigenvalues --    0.78415   0.80137   0.80714   0.81518   0.83255
 Alpha virt. eigenvalues --    0.83684   0.83877   0.84742   0.85651   0.86443
 Alpha virt. eigenvalues --    0.87730   0.89888   0.91935   0.92826   0.94250
 Alpha virt. eigenvalues --    0.95376   0.96632   0.98379   1.00343   1.01830
 Alpha virt. eigenvalues --    1.04605   1.05598   1.06788   1.08129   1.09109
 Alpha virt. eigenvalues --    1.10739   1.13072   1.14376   1.15901   1.17091
 Alpha virt. eigenvalues --    1.19989   1.21189   1.21893   1.24518   1.25608
 Alpha virt. eigenvalues --    1.26496   1.28236   1.29314   1.29689   1.29938
 Alpha virt. eigenvalues --    1.31052   1.31772   1.32501   1.34309   1.36239
 Alpha virt. eigenvalues --    1.36844   1.38134   1.39759   1.41721   1.47292
 Alpha virt. eigenvalues --    1.49664   1.51777   1.53719   1.56908   1.58261
 Alpha virt. eigenvalues --    1.59986   1.66119   1.68380   1.68482   1.70251
 Alpha virt. eigenvalues --    1.70794   1.72182   1.73187   1.74060   1.74945
 Alpha virt. eigenvalues --    1.75793   1.76750   1.77200   1.77947   1.78520
 Alpha virt. eigenvalues --    1.79263   1.79815   1.80809   1.81641   1.82347
 Alpha virt. eigenvalues --    1.82765   1.82979   1.83371   1.85247   1.86326
 Alpha virt. eigenvalues --    1.86922   1.88686   1.89082   1.91173   1.93289
 Alpha virt. eigenvalues --    1.93748   1.95777   1.97293   1.98230   1.98794
 Alpha virt. eigenvalues --    1.99645   2.01116   2.01282   2.02903   2.04354
 Alpha virt. eigenvalues --    2.05199   2.07758   2.08500   2.11032   2.13014
 Alpha virt. eigenvalues --    2.14626   2.16282   2.16355   2.18447   2.19250
 Alpha virt. eigenvalues --    2.20299   2.21324   2.22578   2.24835   2.26784
 Alpha virt. eigenvalues --    2.28018   2.29825   2.31509   2.32113   2.32991
 Alpha virt. eigenvalues --    2.33245   2.34347   2.36861   2.37257   2.37998
 Alpha virt. eigenvalues --    2.38419   2.39427   2.40855   2.43756   2.44398
 Alpha virt. eigenvalues --    2.45134   2.49967   2.53760   2.54005   2.55970
 Alpha virt. eigenvalues --    2.59144   2.61265   2.62492   2.65059   2.66191
 Alpha virt. eigenvalues --    2.66817   2.67166   2.68081   2.68729   2.69920
 Alpha virt. eigenvalues --    2.70911   2.76184   2.76612   2.77864   2.78712
 Alpha virt. eigenvalues --    2.83719   2.85644   2.87124   2.89947   2.90348
 Alpha virt. eigenvalues --    2.92312   2.93784   2.95347   2.96189   2.97664
 Alpha virt. eigenvalues --    3.00633   3.07219   3.07713   3.13775   3.16397
 Alpha virt. eigenvalues --    3.18575   3.24840   3.27868   3.30643   3.34227
 Alpha virt. eigenvalues --    3.66503   3.70282
          Condensed to atoms (all electrons):
               1          2          3          4          5          6
     1  N    6.882795   0.358522  -0.035775  -0.001369  -0.000088  -0.000026
     2  S    0.358522  14.667222   0.046679  -0.023633   0.005621   0.000306
     3  C   -0.035775   0.046679   5.996853   0.276511   0.114422  -0.192243
     4  C   -0.001369  -0.023633   0.276511   5.073456   0.215454   0.114897
     5  C   -0.000088   0.005621   0.114422   0.215454   5.129112   0.245752
     6  C   -0.000026   0.000306  -0.192243   0.114897   0.245752   5.135197
     7  C    0.000087   0.000194   0.114100  -0.145804   0.096863   0.264740
     8  C   -0.002345  -0.038161   0.119351   0.067595  -0.148322   0.097899
     9  C   -0.058160   0.251112  -0.114646   0.003739  -0.000237  -0.000153
    10  C    0.005090  -0.051281  -0.011588   0.000572   0.000199   0.000044
    11  C   -0.000092  -0.005717  -0.007342  -0.005152   0.001153  -0.000185
    12  C   -0.000029  -0.000660  -0.003427  -0.000730  -0.000961   0.000263
    13  C    0.000000  -0.000203  -0.000536  -0.000254   0.001218  -0.000292
    14  C    0.000000   0.000032  -0.000772   0.000322  -0.005024   0.000225
    15  C   -0.000001  -0.000051  -0.001323  -0.003676  -0.001723  -0.000350
    16  C   -0.000002   0.003986   0.000386  -0.003130  -0.004037  -0.000057
    17  N   -0.066302   0.395352  -0.083090   0.002446   0.002081  -0.000052
    18  H    0.318640  -0.007969  -0.009733  -0.000629  -0.000066   0.000013
    19  H    0.000687  -0.010554  -0.058329   0.422016  -0.056688   0.012375
    20  H    0.000002  -0.000161   0.017923  -0.076621   0.459406  -0.075940
    21  H   -0.000000   0.000020  -0.001778   0.015151  -0.071391   0.451971
    22  H    0.000005  -0.000133   0.018119  -0.001964   0.014798  -0.073456
    23  H    0.000902  -0.003873  -0.095872   0.013288  -0.001301   0.014073
    24  H    0.010944  -0.006884   0.008406  -0.000117   0.000003   0.000003
    25  H    0.001644  -0.021061   0.004866   0.000056  -0.000084   0.000075
    26  H    0.000294  -0.012836   0.002424   0.000093  -0.000016   0.000002
    27  H   -0.000117   0.005271  -0.000444  -0.000061   0.000001  -0.000002
    28  H   -0.000003   0.000208  -0.000504   0.000065  -0.000121   0.000120
    29  H   -0.000000  -0.000002   0.000043  -0.000154   0.000159  -0.000010
    30  H    0.000000  -0.000000  -0.000016   0.000096   0.000091   0.000178
    31  H   -0.000000   0.000003  -0.000005  -0.000101   0.000163   0.000030
    32  H    0.000023   0.000421  -0.000328  -0.001157   0.000450  -0.000032
    33  H    0.006784  -0.011457   0.001963   0.000980  -0.000041   0.000007
               7          8          9         10         11         12
     1  N    0.000087  -0.002345  -0.058160   0.005090  -0.000092  -0.000029
     2  S    0.000194  -0.038161   0.251112  -0.051281  -0.005717  -0.000660
     3  C    0.114100   0.119351  -0.114646  -0.011588  -0.007342  -0.003427
     4  C   -0.145804   0.067595   0.003739   0.000572  -0.005152  -0.000730
     5  C    0.096863  -0.148322  -0.000237   0.000199   0.001153  -0.000961
     6  C    0.264740   0.097899  -0.000153   0.000044  -0.000185   0.000263
     7  C    5.036302   0.307546  -0.000375  -0.000040  -0.000406   0.000005
     8  C    0.307546   5.185375  -0.010810   0.003026  -0.000906  -0.003317
     9  C   -0.000375  -0.010810   5.251111   0.290797  -0.066282  -0.006268
    10  C   -0.000040   0.003026   0.290797   4.775575   0.396337  -0.106919
    11  C   -0.000406  -0.000906  -0.066282   0.396337   5.420012   0.227223
    12  C    0.000005  -0.003317  -0.006268  -0.106919   0.227223   5.182771
    13  C   -0.001961   0.000871   0.000339   0.010423   0.109127   0.297072
    14  C   -0.000203   0.000194   0.000029  -0.000242  -0.175772   0.098784
    15  C   -0.000227   0.000249  -0.000460   0.013545   0.113469  -0.152565
    16  C    0.000201  -0.000054  -0.000799  -0.079881   0.275716   0.062601
    17  N   -0.000003   0.006285  -0.096820   0.005674  -0.006649   0.000050
    18  H    0.000532   0.006153  -0.000665  -0.000103   0.000014   0.000013
    19  H   -0.001785   0.015770   0.000955   0.000336  -0.002592   0.000199
    20  H    0.014812  -0.001924   0.000007   0.000002   0.000017  -0.000085
    21  H   -0.071438   0.015740   0.000000  -0.000000   0.000007  -0.000019
    22  H    0.455113  -0.074588   0.000045  -0.000002  -0.000039   0.000153
    23  H   -0.050343   0.448517  -0.000865   0.000500   0.000489  -0.000680
    24  H   -0.000012  -0.000101   0.326472   0.000346   0.007775   0.000112
    25  H    0.000793   0.002893   0.351192  -0.018109  -0.014295   0.006923
    26  H    0.000010  -0.000189  -0.023636   0.365440  -0.012755   0.010501
    27  H   -0.000001  -0.000097  -0.008064   0.341656  -0.009100  -0.008382
    28  H   -0.000237   0.001245  -0.000521  -0.013428  -0.081120   0.448723
    29  H    0.000697  -0.000047   0.000012  -0.000330   0.016899  -0.074196
    30  H    0.000054  -0.000029  -0.000001   0.000039  -0.001623   0.015631
    31  H   -0.000008  -0.000000   0.000007  -0.000342   0.017739  -0.002081
    32  H    0.000011  -0.000136   0.000046  -0.018902  -0.064330   0.016349
    33  H   -0.000012  -0.000506   0.007576  -0.001855   0.000302   0.000009
              13         14         15         16         17         18
     1  N    0.000000   0.000000  -0.000001  -0.000002  -0.066302   0.318640
     2  S   -0.000203   0.000032  -0.000051   0.003986   0.395352  -0.007969
     3  C   -0.000536  -0.000772  -0.001323   0.000386  -0.083090  -0.009733
     4  C   -0.000254   0.000322  -0.003676  -0.003130   0.002446  -0.000629
     5  C    0.001218  -0.005024  -0.001723  -0.004037   0.002081  -0.000066
     6  C   -0.000292   0.000225  -0.000350  -0.000057  -0.000052   0.000013
     7  C   -0.001961  -0.000203  -0.000227   0.000201  -0.000003   0.000532
     8  C    0.000871   0.000194   0.000249  -0.000054   0.006285   0.006153
     9  C    0.000339   0.000029  -0.000460  -0.000799  -0.096820  -0.000665
    10  C    0.010423  -0.000242   0.013545  -0.079881   0.005674  -0.000103
    11  C    0.109127  -0.175772   0.113469   0.275716  -0.006649   0.000014
    12  C    0.297072   0.098784  -0.152565   0.062601   0.000050   0.000013
    13  C    5.049231   0.256879   0.100565  -0.146457  -0.000014  -0.000000
    14  C    0.256879   5.148667   0.240608   0.107299   0.000006  -0.000000
    15  C    0.100565   0.240608   5.138521   0.249529  -0.000468   0.000001
    16  C   -0.146457   0.107299   0.249529   5.124418  -0.000667  -0.000004
    17  N   -0.000014   0.000006  -0.000468  -0.000667   6.859356   0.004822
    18  H   -0.000000  -0.000000   0.000001  -0.000004   0.004822   0.575453
    19  H   -0.000196   0.000260  -0.002059   0.006180   0.032178  -0.000138
    20  H    0.000084   0.000078   0.000939   0.000024  -0.000001   0.000000
    21  H   -0.000006   0.000069   0.000036  -0.000018  -0.000000  -0.000000
    22  H   -0.000112   0.000020  -0.000011   0.000007   0.000001  -0.000008
    23  H    0.000148  -0.000039   0.000016  -0.000112   0.000308   0.002907
    24  H    0.000013  -0.000001   0.000017  -0.000250   0.000512  -0.000561
    25  H   -0.000447   0.000013   0.000068  -0.000020   0.004736   0.000645
    26  H   -0.000434   0.000033   0.000617  -0.012375   0.030387  -0.000035
    27  H    0.000189   0.000117  -0.000849   0.006119   0.000474  -0.000016
    28  H   -0.063822   0.015443  -0.001895   0.015387  -0.000010  -0.000004
    29  H    0.453473  -0.075794   0.015485  -0.002008   0.000000   0.000000
    30  H   -0.073365   0.452784  -0.073380   0.014881   0.000000  -0.000000
    31  H    0.015614  -0.079421   0.457330  -0.075091  -0.000016   0.000000
    32  H   -0.002080   0.014978  -0.073713   0.456456   0.007804  -0.000004
    33  H   -0.000000  -0.000000   0.000006  -0.000022   0.332639  -0.000293
              19         20         21         22         23         24
     1  N    0.000687   0.000002  -0.000000   0.000005   0.000902   0.010944
     2  S   -0.010554  -0.000161   0.000020  -0.000133  -0.003873  -0.006884
     3  C   -0.058329   0.017923  -0.001778   0.018119  -0.095872   0.008406
     4  C    0.422016  -0.076621   0.015151  -0.001964   0.013288  -0.000117
     5  C   -0.056688   0.459406  -0.071391   0.014798  -0.001301   0.000003
     6  C    0.012375  -0.075940   0.451971  -0.073456   0.014073   0.000003
     7  C   -0.001785   0.014812  -0.071438   0.455113  -0.050343  -0.000012
     8  C    0.015770  -0.001924   0.015740  -0.074588   0.448517  -0.000101
     9  C    0.000955   0.000007   0.000000   0.000045  -0.000865   0.326472
    10  C    0.000336   0.000002  -0.000000  -0.000002   0.000500   0.000346
    11  C   -0.002592   0.000017   0.000007  -0.000039   0.000489   0.007775
    12  C    0.000199  -0.000085  -0.000019   0.000153  -0.000680   0.000112
    13  C   -0.000196   0.000084  -0.000006  -0.000112   0.000148   0.000013
    14  C    0.000260   0.000078   0.000069   0.000020  -0.000039  -0.000001
    15  C   -0.002059   0.000939   0.000036  -0.000011   0.000016   0.000017
    16  C    0.006180   0.000024  -0.000018   0.000007  -0.000112  -0.000250
    17  N    0.032178  -0.000001  -0.000000   0.000001   0.000308   0.000512
    18  H   -0.000138   0.000000  -0.000000  -0.000008   0.002907  -0.000561
    19  H    0.628288  -0.010996  -0.000227   0.000034  -0.000197  -0.000043
    20  H   -0.010996   0.668636  -0.012497  -0.000277   0.000039  -0.000000
    21  H   -0.000227  -0.012497   0.670175  -0.012478  -0.000282   0.000000
    22  H    0.000034  -0.000277  -0.012478   0.672083  -0.012933  -0.000001
    23  H   -0.000197   0.000039  -0.000282  -0.012933   0.676452  -0.000451
    24  H   -0.000043  -0.000000   0.000000  -0.000001  -0.000451   0.597311
    25  H   -0.000161   0.000000  -0.000001  -0.000041   0.003601  -0.010886
    26  H   -0.000259  -0.000001   0.000000  -0.000000  -0.000023  -0.002464
    27  H    0.000018   0.000000  -0.000000   0.000000  -0.000003  -0.008511
    28  H    0.000004  -0.000000   0.000000  -0.000001  -0.000270  -0.000195
    29  H   -0.000001  -0.000007   0.000003   0.000037  -0.000002  -0.000001
    30  H   -0.000013   0.000056   0.000039  -0.000000   0.000000   0.000000
    31  H    0.000036   0.000189  -0.000001  -0.000000   0.000000  -0.000000
    32  H    0.000777  -0.000001  -0.000000   0.000000  -0.000001  -0.000049
    33  H   -0.000360  -0.000002   0.000000  -0.000000  -0.000029   0.000027
              25         26         27         28         29         30
     1  N    0.001644   0.000294  -0.000117  -0.000003  -0.000000   0.000000
     2  S   -0.021061  -0.012836   0.005271   0.000208  -0.000002  -0.000000
     3  C    0.004866   0.002424  -0.000444  -0.000504   0.000043  -0.000016
     4  C    0.000056   0.000093  -0.000061   0.000065  -0.000154   0.000096
     5  C   -0.000084  -0.000016   0.000001  -0.000121   0.000159   0.000091
     6  C    0.000075   0.000002  -0.000002   0.000120  -0.000010   0.000178
     7  C    0.000793   0.000010  -0.000001  -0.000237   0.000697   0.000054
     8  C    0.002893  -0.000189  -0.000097   0.001245  -0.000047  -0.000029
     9  C    0.351192  -0.023636  -0.008064  -0.000521   0.000012  -0.000001
    10  C   -0.018109   0.365440   0.341656  -0.013428  -0.000330   0.000039
    11  C   -0.014295  -0.012755  -0.009100  -0.081120   0.016899  -0.001623
    12  C    0.006923   0.010501  -0.008382   0.448723  -0.074196   0.015631
    13  C   -0.000447  -0.000434   0.000189  -0.063822   0.453473  -0.073365
    14  C    0.000013   0.000033   0.000117   0.015443  -0.075794   0.452784
    15  C    0.000068   0.000617  -0.000849  -0.001895   0.015485  -0.073380
    16  C   -0.000020  -0.012375   0.006119   0.015387  -0.002008   0.014881
    17  N    0.004736   0.030387   0.000474  -0.000010   0.000000   0.000000
    18  H    0.000645  -0.000035  -0.000016  -0.000004   0.000000  -0.000000
    19  H   -0.000161  -0.000259   0.000018   0.000004  -0.000001  -0.000013
    20  H    0.000000  -0.000001   0.000000  -0.000000  -0.000007   0.000056
    21  H   -0.000001   0.000000  -0.000000   0.000000   0.000003   0.000039
    22  H   -0.000041  -0.000000   0.000000  -0.000001   0.000037  -0.000000
    23  H    0.003601  -0.000023  -0.000003  -0.000270  -0.000002   0.000000
    24  H   -0.010886  -0.002464  -0.008511  -0.000195  -0.000001   0.000000
    25  H    0.620759   0.008670  -0.006610   0.003641   0.000029  -0.000001
    26  H    0.008670   0.603455  -0.021664   0.000006   0.000010  -0.000001
    27  H   -0.006610  -0.021664   0.652228   0.003323  -0.000001  -0.000001
    28  H    0.003641   0.000006   0.003323   0.694245  -0.013592  -0.000316
    29  H    0.000029   0.000010  -0.000001  -0.013592   0.686042  -0.012936
    30  H   -0.000001  -0.000001  -0.000001  -0.000316  -0.012936   0.683345
    31  H    0.000001  -0.000011   0.000012   0.000039  -0.000309  -0.012902
    32  H   -0.000014   0.006568   0.000561  -0.000274   0.000031  -0.000262
    33  H   -0.000271  -0.000419   0.000031   0.000001   0.000000  -0.000000
              31         32         33
     1  N   -0.000000   0.000023   0.006784
     2  S    0.000003   0.000421  -0.011457
     3  C   -0.000005  -0.000328   0.001963
     4  C   -0.000101  -0.001157   0.000980
     5  C    0.000163   0.000450  -0.000041
     6  C    0.000030  -0.000032   0.000007
     7  C   -0.000008   0.000011  -0.000012
     8  C   -0.000000  -0.000136  -0.000506
     9  C    0.000007   0.000046   0.007576
    10  C   -0.000342  -0.018902  -0.001855
    11  C    0.017739  -0.064330   0.000302
    12  C   -0.002081   0.016349   0.000009
    13  C    0.015614  -0.002080  -0.000000
    14  C   -0.079421   0.014978  -0.000000
    15  C    0.457330  -0.073713   0.000006
    16  C   -0.075091   0.456456  -0.000022
    17  N   -0.000016   0.007804   0.332639
    18  H    0.000000  -0.000004  -0.000293
    19  H    0.000036   0.000777  -0.000360
    20  H    0.000189  -0.000001  -0.000002
    21  H   -0.000001  -0.000000   0.000000
    22  H   -0.000000   0.000000  -0.000000
    23  H    0.000000  -0.000001  -0.000029
    24  H   -0.000000  -0.000049   0.000027
    25  H    0.000001  -0.000014  -0.000271
    26  H   -0.000011   0.006568  -0.000419
    27  H    0.000012   0.000561   0.000031
    28  H    0.000039  -0.000274   0.000001
    29  H   -0.000309   0.000031   0.000000
    30  H   -0.012902  -0.000262  -0.000000
    31  H    0.683878  -0.012625   0.000001
    32  H   -0.012625   0.654410  -0.000027
    33  H    0.000001  -0.000027   0.528940
 Mulliken charges:
               1
     1  N   -0.422110
     2  S    0.459687
     3  C   -0.104294
     4  C    0.057814
     5  C    0.003153
     6  C    0.004627
     7  C   -0.019204
     8  C    0.002823
     9  C   -0.094680
    10  C    0.093419
    11  C   -0.131922
    12  C   -0.007061
    13  C   -0.005068
    14  C    0.000428
    15  C   -0.018252
    16  C    0.001795
    17  N   -0.431017
    18  H    0.111035
    19  H    0.024486
    20  H    0.016300
    21  H    0.016922
    22  H    0.015628
    23  H    0.006034
    24  H    0.078589
    25  H    0.061396
    26  H    0.058609
    27  H    0.053923
    28  H   -0.006139
    29  H    0.006469
    30  H    0.007653
    31  H    0.007872
    32  H    0.015054
    33  H    0.136031
 Sum of Mulliken charges =  -0.00000
 Mulliken charges with hydrogens summed into heavy atoms:
               1
     1  N   -0.311076
     2  S    0.459687
     3  C   -0.104294
     4  C    0.082300
     5  C    0.019453
     6  C    0.021549
     7  C   -0.003576
     8  C    0.008857
     9  C    0.045305
    10  C    0.205950
    11  C   -0.131922
    12  C   -0.013199
    13  C    0.001401
    14  C    0.008081
    15  C   -0.010379
    16  C    0.016848
    17  N   -0.294986
 Electronic spatial extent (au):  <R**2>=           3510.1584
 Charge=             -0.0000 electrons
 Dipole moment (field-independent basis, Debye):
    X=             -2.6034    Y=              0.7198    Z=             -2.3737  Tot=              3.5958
 Quadrupole moment (field-independent basis, Debye-Ang):
   XX=           -113.0032   YY=           -108.6424   ZZ=            -98.3879
   XY=             -8.0528   XZ=             -6.3732   YZ=             -1.1278
 Traceless Quadrupole moment (field-independent basis, Debye-Ang):
   XX=             -6.3254   YY=             -1.9646   ZZ=              8.2900
   XY=             -8.0528   XZ=             -6.3732   YZ=             -1.1278
 Octapole moment (field-independent basis, Debye-Ang**2):
  XXX=            -44.5812  YYY=              4.5512  ZZZ=              1.9083  XYY=              4.6391
  XXY=              4.1995  XXZ=             -3.9775  XZZ=              6.3444  YZZ=              5.8347
  YYZ=            -10.5099  XYZ=              0.6435
 Hexadecapole moment (field-independent basis, Debye-Ang**3):
 XXXX=          -2485.0592 YYYY=          -1700.1163 ZZZZ=           -723.0518 XXXY=            -93.5151
 XXXZ=            -22.4692 YYYX=            -69.8625 YYYZ=            -23.7975 ZZZX=              4.6537
 ZZZY=             -9.9974 XXYY=           -673.8639 XXZZ=           -464.0662 YYZZ=           -386.9704
 XXYZ=            -15.6928 YYXZ=            -21.1377 ZZXY=              0.6135
 N-N= 1.386702494195D+03 E-N=-5.227767424274D+03  KE= 1.042045002300D+03
   1 Symmetry operations used in ECPInt.
 ECPInt:  NShTT=   11628 NPrTT=   42474 LenC2=   11328 LenP2D=   30542.
 LDataN:  DoStor=T MaxTD1= 5 Len=  102
 Calling FoFJK, ICntrl=      2127 FMM=F ISym2X=0 I1Cent= 0 IOpClX= 0 NMat=1 NMatS=1 NMatT=0.
 ***** Axes restored to original set *****
 -------------------------------------------------------------------
 Center     Atomic                   Forces (Hartrees/Bohr)
 Number     Number              X              Y              Z
 -------------------------------------------------------------------
      1        7           0.006799407   -0.001498883    0.004010683
      2       16           0.005833799    0.002413345   -0.006121050
      3        6           0.008525036   -0.006367303    0.001466133
      4        6           0.002115452    0.000393935    0.002204966
      5        6           0.001291041    0.002123983   -0.001826941
      6        6          -0.000534624    0.001017154    0.000757056
      7        6           0.001743773    0.000064634   -0.000860587
      8        6           0.001158534    0.001613182   -0.002720863
      9        6          -0.005623365    0.000477104    0.017023518
     10        6          -0.003694721    0.007471757   -0.002068286
     11        6           0.004222759   -0.008393384   -0.001079551
     12        6          -0.000625162   -0.000658690    0.000687858
     13        6          -0.000403921    0.000342592   -0.001489907
     14        6          -0.001349707   -0.000242653    0.001384858
     15        6          -0.001415754   -0.001512697    0.000063448
     16        6          -0.001815312   -0.002524150    0.000253334
     17        7          -0.017809116   -0.015835060    0.001640607
     18        1          -0.002974813    0.006749220   -0.009973448
     19        1           0.002417183   -0.005723600    0.007880535
     20        1          -0.005125131    0.000564901    0.007599024
     21        1          -0.007575695    0.005188678   -0.000228175
     22        1          -0.002077679    0.004288174   -0.007612433
     23        1           0.004385313   -0.000514319   -0.008316940
     24        1           0.008879014    0.001078214    0.000656396
     25        1          -0.001729879    0.005019792   -0.007277426
     26        1           0.002851699   -0.003755125    0.003403381
     27        1           0.000808751   -0.004272293   -0.003884967
     28        1           0.003157161    0.000465682   -0.008479543
     29        1          -0.004955767    0.003373302   -0.006546768
     30        1          -0.008167843    0.003538502    0.001932404
     31        1          -0.002944059    0.000010610    0.008694098
     32        1           0.005930820   -0.002687343    0.006526770
     33        1           0.008702808    0.007790738    0.002301812
 -------------------------------------------------------------------
 Cartesian Forces:  Max     0.017809116 RMS     0.005267782

 GradGradGradGradGradGradGradGradGradGradGradGradGradGradGradGradGradGrad
 Berny optimization.
 FormGI is forming the generalized inverse of G from B-inverse, IUseBI=4.
 Internal  Forces:  Max     0.031811744 RMS     0.006149621
 Search for a local minimum.
 Step number   1 out of a maximum of  184
 All quantities printed in internal units (Hartrees-Bohrs-Radians)
 Mixed Optimization -- RFO/linear search
 Second derivative matrix not updated -- first step.
 ITU=  0
     Eigenvalues ---    0.00230   0.00230   0.00534   0.00722   0.01512
     Eigenvalues ---    0.01624   0.02246   0.02271   0.02279   0.02286
     Eigenvalues ---    0.02289   0.02290   0.02295   0.02296   0.02302
     Eigenvalues ---    0.02304   0.02305   0.02305   0.02310   0.02313
     Eigenvalues ---    0.02326   0.02338   0.03483   0.03618   0.03878
     Eigenvalues ---    0.04325   0.04914   0.05635   0.07061   0.07936
     Eigenvalues ---    0.08036   0.08704   0.09250   0.11827   0.12780
     Eigenvalues ---    0.15998   0.15999   0.16000   0.16000   0.16000
     Eigenvalues ---    0.16000   0.16000   0.16000   0.16000   0.16000
     Eigenvalues ---    0.16000   0.16000   0.16600   0.19414   0.21980
     Eigenvalues ---    0.21998   0.21999   0.22000   0.22000   0.22027
     Eigenvalues ---    0.22240   0.23476   0.23478   0.24168   0.24961
     Eigenvalues ---    0.25000   0.30607   0.32035   0.34273   0.34741
     Eigenvalues ---    0.34924   0.35153   0.35807   0.35871   0.35943
     Eigenvalues ---    0.35969   0.35990   0.35995   0.36015   0.36055
     Eigenvalues ---    0.36060   0.36129   0.43469   0.43578   0.43701
     Eigenvalues ---    0.43895   0.46509   0.46729   0.47707   0.48035
     Eigenvalues ---    0.48209   0.48369   0.48412   0.48545   0.48550
     Eigenvalues ---    0.48872   0.66242   0.69113
 RFO step:  Lambda=-2.86698377D-02 EMin= 2.30000000D-03
 Linear search not attempted -- first point.
 Iteration  1 RMS(Cart)=  0.41812298 RMS(Int)=  0.01287608
 Iteration  2 RMS(Cart)=  0.11015126 RMS(Int)=  0.00127992
 Iteration  3 RMS(Cart)=  0.00309753 RMS(Int)=  0.00090990
 Iteration  4 RMS(Cart)=  0.00000435 RMS(Int)=  0.00090990
 Iteration  5 RMS(Cart)=  0.00000001 RMS(Int)=  0.00090990
 Variable       Old X    -DE/DX   Delta X   Delta X   Delta X     New X
                                 (Linear)    (Quad)   (Total)
    R1        2.90018   0.00702   0.00000   0.01016   0.01016   2.91034
    R2        1.90261   0.01213   0.00000   0.02456   0.02456   1.92718
    R3        3.45071  -0.00360   0.00000  -0.01332  -0.01332   3.43739
    R4        3.50492  -0.00404   0.00000  -0.01610  -0.01610   3.48881
    R5        2.88082   0.00725   0.00000   0.01007   0.01007   2.89090
    R6        2.60816   0.00813   0.00000   0.01585   0.01591   2.62407
    R7        2.61110   0.01264   0.00000   0.02466   0.02472   2.63583
    R8        2.61483   0.01002   0.00000   0.01952   0.01952   2.63435
    R9        2.03880   0.00999   0.00000   0.02562   0.02562   2.06441
   R10        2.61731   0.00969   0.00000   0.01879   0.01873   2.63604
   R11        2.03995   0.00917   0.00000   0.02356   0.02356   2.06351
   R12        2.61769   0.00989   0.00000   0.01919   0.01912   2.63681
   R13        2.04059   0.00918   0.00000   0.02361   0.02361   2.06420
   R14        2.61623   0.00774   0.00000   0.01512   0.01512   2.63135
   R15        2.04090   0.00898   0.00000   0.02311   0.02311   2.06400
   R16        2.04283   0.00933   0.00000   0.02410   0.02410   2.06693
   R17        2.86769   0.01119   0.00000   0.03344   0.03344   2.90113
   R18        2.05798   0.00732   0.00000   0.01936   0.01936   2.07735
   R19        2.05427   0.00882   0.00000   0.02319   0.02319   2.07746
   R20        2.84081   0.00505   0.00000   0.01448   0.01448   2.85528
   R21        2.06098   0.00538   0.00000   0.01430   0.01430   2.07528
   R22        2.06872   0.00571   0.00000   0.01536   0.01536   2.08408
   R23        2.62616   0.00960   0.00000   0.01908   0.01912   2.64527
   R24        2.62231   0.01031   0.00000   0.02029   0.02033   2.64263
   R25        2.61279   0.01040   0.00000   0.02025   0.02025   2.63304
   R26        2.04385   0.00904   0.00000   0.02338   0.02338   2.06723
   R27        2.61554   0.01079   0.00000   0.02115   0.02111   2.63665
   R28        2.04170   0.00888   0.00000   0.02287   0.02287   2.06457
   R29        2.61482   0.00915   0.00000   0.01788   0.01784   2.63266
   R30        2.04096   0.00911   0.00000   0.02344   0.02344   2.06440
   R31        2.61475   0.00992   0.00000   0.01927   0.01927   2.63402
   R32        2.04130   0.00918   0.00000   0.02363   0.02363   2.06493
   R33        2.03988   0.00917   0.00000   0.02355   0.02355   2.06343
   R34        1.90018   0.01011   0.00000   0.02039   0.02039   1.92057
    A1        2.00028  -0.00452   0.00000  -0.02394  -0.02394   1.97634
    A2        1.95105  -0.00928   0.00000  -0.05635  -0.05612   1.89494
    A3        1.97544  -0.00476   0.00000  -0.02974  -0.02943   1.94601
    A4        1.98611   0.00811   0.00000   0.04294   0.04309   2.02921
    A5        1.75897   0.01046   0.00000   0.04161   0.04113   1.80011
    A6        1.92200   0.00022   0.00000   0.01268   0.01280   1.93480
    A7        1.85513  -0.00445   0.00000  -0.00981  -0.01003   1.84509
    A8        2.06378   0.00144   0.00000   0.00401   0.00345   2.06724
    A9        2.10723  -0.00309   0.00000  -0.01228  -0.01278   2.09445
   A10        2.11078   0.00153   0.00000   0.00558   0.00533   2.11612
   A11        2.08705  -0.00226   0.00000  -0.00843  -0.00829   2.07876
   A12        2.06586   0.00090   0.00000   0.00300   0.00292   2.06878
   A13        2.13023   0.00137   0.00000   0.00548   0.00540   2.13563
   A14        2.09203   0.00151   0.00000   0.00593   0.00595   2.09798
   A15        2.09409  -0.00107   0.00000  -0.00463  -0.00463   2.08946
   A16        2.09706  -0.00044   0.00000  -0.00131  -0.00132   2.09574
   A17        2.09843  -0.00000   0.00000  -0.00054  -0.00059   2.09784
   A18        2.09425  -0.00006   0.00000  -0.00002   0.00000   2.09425
   A19        2.09049   0.00006   0.00000   0.00058   0.00060   2.09109
   A20        2.09356  -0.00034   0.00000  -0.00149  -0.00148   2.09209
   A21        2.09718   0.00031   0.00000   0.00151   0.00150   2.09867
   A22        2.09244   0.00002   0.00000  -0.00003  -0.00004   2.09241
   A23        2.08416  -0.00043   0.00000  -0.00106  -0.00093   2.08323
   A24        2.10142   0.00141   0.00000   0.00686   0.00677   2.10819
   A25        2.09760  -0.00098   0.00000  -0.00584  -0.00592   2.09168
   A26        1.92750   0.03181   0.00000   0.13620   0.13432   2.06182
   A27        1.83240  -0.01406   0.00000  -0.08689  -0.08439   1.74801
   A28        1.87108  -0.01010   0.00000  -0.01427  -0.02089   1.85019
   A29        1.94437  -0.00895   0.00000  -0.05604  -0.05153   1.89285
   A30        1.96513  -0.00372   0.00000   0.02584   0.02197   1.98710
   A31        1.91735   0.00455   0.00000  -0.01000  -0.01160   1.90575
   A32        1.95981   0.03117   0.00000   0.13405   0.13350   2.09331
   A33        1.87970  -0.00689   0.00000  -0.01242  -0.01491   1.86479
   A34        1.90083  -0.01111   0.00000  -0.05435  -0.05365   1.84718
   A35        1.90926  -0.00781   0.00000  -0.01356  -0.01605   1.89320
   A36        1.91401  -0.00910   0.00000  -0.03868  -0.03723   1.87678
   A37        1.89909   0.00321   0.00000  -0.01840  -0.01999   1.87909
   A38        2.10721   0.00312   0.00000   0.01139   0.01103   2.11824
   A39        2.10281  -0.00199   0.00000  -0.00695  -0.00729   2.09551
   A40        2.07317  -0.00113   0.00000  -0.00437  -0.00454   2.06863
   A41        2.10675   0.00040   0.00000   0.00158   0.00166   2.10841
   A42        2.09058  -0.00013   0.00000  -0.00039  -0.00043   2.09014
   A43        2.08584  -0.00028   0.00000  -0.00119  -0.00123   2.08461
   A44        2.09554   0.00020   0.00000   0.00101   0.00101   2.09656
   A45        2.09198  -0.00009   0.00000  -0.00047  -0.00047   2.09151
   A46        2.09565  -0.00011   0.00000  -0.00056  -0.00057   2.09508
   A47        2.08831  -0.00049   0.00000  -0.00181  -0.00185   2.08646
   A48        2.09559   0.00032   0.00000   0.00129   0.00131   2.09689
   A49        2.09929   0.00017   0.00000   0.00053   0.00054   2.09983
   A50        2.09760  -0.00008   0.00000  -0.00049  -0.00049   2.09711
   A51        2.09402   0.00019   0.00000   0.00103   0.00102   2.09504
   A52        2.09156  -0.00011   0.00000  -0.00056  -0.00056   2.09100
   A53        2.10488   0.00110   0.00000   0.00400   0.00408   2.10896
   A54        2.08004  -0.00107   0.00000  -0.00476  -0.00481   2.07523
   A55        2.09816  -0.00002   0.00000   0.00085   0.00080   2.09896
   A56        1.96870  -0.01161   0.00000  -0.06155  -0.06155   1.90715
    D1       -0.87869  -0.00110   0.00000   0.01187   0.01096  -0.86773
    D2        1.09311   0.00315   0.00000   0.00981   0.01066   1.10376
    D3       -3.06966  -0.00025   0.00000   0.00666   0.00672  -3.06294
    D4       -2.04305  -0.00112   0.00000   0.01439   0.01413  -2.02892
    D5        1.04239  -0.00345   0.00000  -0.03957  -0.03961   1.00278
    D6        2.13682   0.00266   0.00000   0.05093   0.05121   2.18803
    D7       -1.06094   0.00033   0.00000  -0.00302  -0.00253  -1.06347
    D8        0.18282   0.00264   0.00000   0.03783   0.03749   0.22031
    D9       -3.01493   0.00031   0.00000  -0.01612  -0.01625  -3.03118
   D10        2.79185  -0.00300   0.00000  -0.12281  -0.12368   2.66817
   D11        0.69404  -0.00085   0.00000  -0.07685  -0.07511   0.61894
   D12       -1.34464   0.00535   0.00000  -0.01701  -0.01744  -1.36207
   D13       -1.40549  -0.00989   0.00000  -0.17815  -0.17929  -1.58478
   D14        2.77989  -0.00774   0.00000  -0.13219  -0.13071   2.64918
   D15        0.74121  -0.00154   0.00000  -0.07235  -0.07305   0.66817
   D16        0.59931  -0.00689   0.00000  -0.15055  -0.15160   0.44771
   D17       -1.49849  -0.00474   0.00000  -0.10459  -0.10303  -1.60152
   D18        2.74601   0.00145   0.00000  -0.04475  -0.04536   2.70065
   D19        0.19978   0.00019   0.00000   0.00803   0.00819   0.20797
   D20       -2.00652   0.00615   0.00000   0.03982   0.03954  -1.96698
   D21        2.38580  -0.00380   0.00000  -0.00867  -0.00854   2.37725
   D22        3.11030  -0.00274   0.00000  -0.05555  -0.05585   3.05445
   D23       -0.04122  -0.00239   0.00000  -0.04965  -0.04992  -0.09115
   D24        0.02499  -0.00025   0.00000  -0.00088  -0.00081   0.02418
   D25       -3.12654   0.00010   0.00000   0.00501   0.00512  -3.12142
   D26       -3.11242   0.00255   0.00000   0.05459   0.05443  -3.05799
   D27        0.02488   0.00202   0.00000   0.04479   0.04465   0.06953
   D28       -0.02851   0.00015   0.00000  -0.00090  -0.00093  -0.02944
   D29        3.10879  -0.00038   0.00000  -0.01069  -0.01071   3.09809
   D30       -0.00476   0.00015   0.00000   0.00140   0.00134  -0.00342
   D31        3.13518  -0.00002   0.00000  -0.00142  -0.00143   3.13375
   D32       -3.13605  -0.00021   0.00000  -0.00470  -0.00481  -3.14085
   D33        0.00390  -0.00038   0.00000  -0.00752  -0.00758  -0.00368
   D34       -0.01158   0.00004   0.00000  -0.00017  -0.00017  -0.01175
   D35        3.13623  -0.00014   0.00000  -0.00240  -0.00238   3.13385
   D36        3.13166   0.00020   0.00000   0.00266   0.00262   3.13428
   D37       -0.00371   0.00003   0.00000   0.00043   0.00041  -0.00331
   D38        0.00801  -0.00012   0.00000  -0.00157  -0.00154   0.00647
   D39       -3.13052   0.00004   0.00000   0.00237   0.00235  -3.12817
   D40       -3.13979   0.00005   0.00000   0.00065   0.00067  -3.13912
   D41        0.00486   0.00021   0.00000   0.00458   0.00456   0.00942
   D42        0.01184  -0.00000   0.00000   0.00197   0.00196   0.01379
   D43       -3.12547   0.00052   0.00000   0.01171   0.01161  -3.11387
   D44       -3.13281  -0.00017   0.00000  -0.00195  -0.00192  -3.13473
   D45        0.01307   0.00036   0.00000   0.00779   0.00773   0.02080
   D46        1.17372   0.00469   0.00000   0.07578   0.07822   1.25193
   D47       -0.92935  -0.00011   0.00000   0.01885   0.02044  -0.90890
   D48       -2.98612   0.00592   0.00000   0.07706   0.07801  -2.90811
   D49       -3.08027   0.00163   0.00000   0.01895   0.01953  -3.06074
   D50        1.09985  -0.00317   0.00000  -0.03798  -0.03825   1.06160
   D51       -0.95692   0.00286   0.00000   0.02023   0.01932  -0.93760
   D52       -0.91718  -0.00202   0.00000  -0.01769  -0.01837  -0.93555
   D53       -3.02024  -0.00682   0.00000  -0.07462  -0.07615  -3.09639
   D54        1.20617  -0.00079   0.00000  -0.01641  -0.01858   1.18759
   D55        1.10277  -0.00204   0.00000  -0.03270  -0.03307   1.06970
   D56       -2.03688  -0.00409   0.00000  -0.07828  -0.07875  -2.11563
   D57       -3.09452   0.00393   0.00000   0.02796   0.02816  -3.06636
   D58        0.04901   0.00188   0.00000  -0.01762  -0.01751   0.03150
   D59       -1.01303  -0.00238   0.00000  -0.02610  -0.02578  -1.03881
   D60        2.13050  -0.00442   0.00000  -0.07168  -0.07145   2.05905
   D61       -3.12353  -0.00189   0.00000  -0.03994  -0.04012   3.11953
   D62        0.02269  -0.00180   0.00000  -0.03856  -0.03870  -0.01601
   D63        0.01616   0.00012   0.00000   0.00487   0.00486   0.02102
   D64       -3.12081   0.00021   0.00000   0.00626   0.00629  -3.11452
   D65        3.13212   0.00225   0.00000   0.04678   0.04652  -3.10455
   D66        0.00637   0.00187   0.00000   0.03991   0.03969   0.04606
   D67       -0.00757   0.00024   0.00000   0.00206   0.00211  -0.00546
   D68       -3.13332  -0.00014   0.00000  -0.00481  -0.00472  -3.13803
   D69       -0.01183  -0.00036   0.00000  -0.00788  -0.00791  -0.01974
   D70        3.13396  -0.00011   0.00000  -0.00272  -0.00272   3.13124
   D71        3.12514  -0.00045   0.00000  -0.00925  -0.00933   3.11582
   D72       -0.01225  -0.00020   0.00000  -0.00409  -0.00413  -0.01639
   D73       -0.00129   0.00022   0.00000   0.00380   0.00382   0.00253
   D74       -3.13963   0.00009   0.00000   0.00192   0.00193  -3.13770
   D75        3.13609  -0.00003   0.00000  -0.00136  -0.00138   3.13471
   D76       -0.00225  -0.00016   0.00000  -0.00325  -0.00327  -0.00552
   D77        0.00982   0.00013   0.00000   0.00308   0.00309   0.01291
   D78       -3.13643  -0.00014   0.00000  -0.00181  -0.00184  -3.13827
   D79       -3.13504   0.00026   0.00000   0.00497   0.00498  -3.13006
   D80        0.00190  -0.00001   0.00000   0.00008   0.00005   0.00196
   D81       -0.00534  -0.00037   0.00000  -0.00605  -0.00610  -0.01144
   D82        3.12024   0.00000   0.00000   0.00085   0.00077   3.12101
   D83        3.14090  -0.00010   0.00000  -0.00117  -0.00119   3.13971
   D84       -0.01670   0.00027   0.00000   0.00572   0.00568  -0.01102
         Item               Value     Threshold  Converged?
[...]
     9  C    0.003792  -0.000995   0.003610  -0.011595  -0.118782   0.011516
    10  C    0.015101  -0.003030   0.015298  -0.071458   0.030493  -0.001638
    11  C    0.099149  -0.151910   0.091662   0.347327  -0.016167   0.000290
    12  C    0.350440   0.102627  -0.143793   0.071515   0.006204  -0.000005
    13  C    4.982238   0.381255   0.071672  -0.138667  -0.000793   0.000002
    14  C    0.381255   5.006143   0.383962   0.098018   0.000680  -0.000002
    15  C    0.071672   0.383962   5.018417   0.331771  -0.004039   0.000002
    16  C   -0.138667   0.098018   0.331771   5.208082  -0.003470   0.000002
    17  N   -0.000793   0.000680  -0.004039  -0.003470   6.964922  -0.004554
    18  H    0.000002  -0.000002   0.000002   0.000002  -0.004554   0.500187
    19  H   -0.000552  -0.000407   0.001277   0.002005   0.028478  -0.000107
    20  H   -0.000832   0.002627   0.001352  -0.000083   0.000037   0.000002
    21  H   -0.000031   0.000047  -0.000045   0.000012  -0.000000  -0.000001
    22  H   -0.000015  -0.000023   0.000005   0.000001   0.000007   0.000040
    23  H   -0.000019  -0.000012   0.000012  -0.000044   0.001332  -0.004059
    24  H   -0.000080   0.000017  -0.000042  -0.000155   0.002765  -0.000837
    25  H    0.000229   0.000186  -0.000231   0.001697   0.004159  -0.000434
    26  H   -0.000610   0.000238   0.001126   0.002001   0.006875   0.000005
    27  H   -0.001035   0.000692  -0.002178   0.004472   0.001069   0.000028
    28  H   -0.049513   0.012083  -0.002960   0.013316   0.000005   0.000004
    29  H    0.424123  -0.054763   0.011507  -0.002981  -0.000003   0.000000
    30  H   -0.053688   0.428821  -0.055165   0.011415   0.000002  -0.000000
    31  H    0.013699  -0.061277   0.438281  -0.061715  -0.000066   0.000000
    32  H   -0.005617   0.014591  -0.069945   0.435589   0.008964   0.000000
    33  H    0.000037  -0.000053   0.000320  -0.000454   0.302700   0.002580
              19         20         21         22         23         24
     1  N    0.001602   0.000010   0.000001  -0.000004   0.022804   0.014587
     2  S   -0.003148  -0.000093   0.000024  -0.000115   0.001075  -0.020453
     3  C   -0.045862   0.012494  -0.003921   0.015785  -0.069272   0.008518
     4  C    0.403834  -0.052890   0.011977  -0.002255   0.007815  -0.000728
     5  C   -0.033485   0.425202  -0.052469   0.011850  -0.003210  -0.000056
     6  C    0.005431  -0.053826   0.428422  -0.057626   0.011756   0.000043
     7  C   -0.000416   0.011177  -0.054738   0.431052  -0.049315  -0.000104
     8  C    0.002063  -0.002598   0.012159  -0.058041   0.437436   0.000880
     9  C   -0.001707   0.000016  -0.000010   0.000108  -0.005744   0.365658
    10  C   -0.000612   0.000020   0.000005  -0.000023   0.001736  -0.021877
    11  C   -0.000541  -0.000186   0.000002  -0.000011   0.000116   0.010621
    12  C    0.000905  -0.000371   0.000154  -0.000145  -0.000150  -0.000370
    13  C   -0.000552  -0.000832  -0.000031  -0.000015  -0.000019  -0.000080
    14  C   -0.000407   0.002627   0.000047  -0.000023  -0.000012   0.000017
    15  C    0.001277   0.001352  -0.000045   0.000005   0.000012  -0.000042
    16  C    0.002005  -0.000083   0.000012   0.000001  -0.000044  -0.000155
    17  N    0.028478   0.000037  -0.000000   0.000007   0.001332   0.002765
    18  H   -0.000107   0.000002  -0.000001   0.000040  -0.004059  -0.000837
    19  H    0.493858  -0.006429  -0.000195   0.000100  -0.000371  -0.000088
    20  H   -0.006429   0.557827  -0.007704  -0.000229   0.000064  -0.000002
    21  H   -0.000195  -0.007704   0.553593  -0.007990  -0.000105   0.000000
    22  H    0.000100  -0.000229  -0.007990   0.553318  -0.007720  -0.000005
    23  H   -0.000371   0.000064  -0.000105  -0.007720   0.496527   0.000097
    24  H   -0.000088  -0.000002   0.000000  -0.000005   0.000097   0.503870
    25  H   -0.000014   0.000003  -0.000000  -0.000039   0.001445  -0.014968
    26  H   -0.000041  -0.000002  -0.000000  -0.000000  -0.000046  -0.001504
    27  H    0.000096  -0.000000   0.000000   0.000000  -0.000023  -0.003903
    28  H   -0.000018   0.000001  -0.000004   0.000008  -0.000113   0.000126
    29  H   -0.000006  -0.000066   0.000055  -0.000001   0.000005  -0.000002
    30  H   -0.000032   0.000211   0.000016  -0.000000  -0.000000   0.000000
    31  H    0.000062   0.000107  -0.000001   0.000000   0.000000  -0.000001
    32  H    0.001722  -0.000026  -0.000000   0.000000  -0.000005  -0.000012
    33  H   -0.002932   0.000007  -0.000001   0.000001  -0.000097  -0.000342
              25         26         27         28         29         30
     1  N    0.001343   0.000358  -0.000161  -0.000020  -0.000001   0.000000
     2  S   -0.023618  -0.006104   0.007147  -0.000222  -0.000011   0.000003
     3  C    0.004613   0.000732  -0.000046  -0.000521  -0.000144  -0.000016
     4  C    0.003003   0.000387   0.000244   0.000305  -0.000441  -0.000210
     5  C   -0.000377   0.000079  -0.000002   0.000378  -0.000740   0.000074
     6  C    0.000245  -0.000007   0.000002  -0.000068   0.000902   0.000139
     7  C    0.000224   0.000035  -0.000016   0.000114   0.000318   0.000008
     8  C   -0.005721  -0.000733  -0.000231   0.000256   0.000247  -0.000015
     9  C    0.392213  -0.008117  -0.041376   0.005569   0.000088  -0.000017
    10  C   -0.024423   0.385989   0.371548  -0.010801  -0.000462   0.000130
    11  C   -0.012038  -0.037696  -0.031305  -0.076099   0.013271  -0.002028
    12  C    0.000870   0.008409   0.003308   0.436819  -0.052117   0.011451
    13  C    0.000229  -0.000610  -0.001035  -0.049513   0.424123  -0.053688
    14  C    0.000186   0.000238   0.000692   0.012083  -0.054763   0.428821
    15  C   -0.000231   0.001126  -0.002178  -0.002960   0.011507  -0.055165
    16  C    0.001697   0.002001   0.004472   0.013316  -0.002981   0.011415
    17  N    0.004159   0.006875   0.001069   0.000005  -0.000003   0.000002
    18  H   -0.000434   0.000005   0.000028   0.000004   0.000000  -0.000000
    19  H   -0.000014  -0.000041   0.000096  -0.000018  -0.000006  -0.000032
    20  H    0.000003  -0.000002  -0.000000   0.000001  -0.000066   0.000211
    21  H   -0.000000  -0.000000   0.000000  -0.000004   0.000055   0.000016
    22  H   -0.000039  -0.000000   0.000000   0.000008  -0.000001  -0.000000
    23  H    0.001445  -0.000046  -0.000023  -0.000113   0.000005  -0.000000
    24  H   -0.014968  -0.001504  -0.003903   0.000126  -0.000002   0.000000
    25  H    0.521936   0.005047  -0.004567   0.001206   0.000008   0.000001
    26  H    0.005047   0.519768  -0.023937   0.000126   0.000014  -0.000001
    27  H   -0.004567  -0.023937   0.587228   0.002110  -0.000017  -0.000001
    28  H    0.001206   0.000126   0.002110   0.570378  -0.008767  -0.000309
    29  H    0.000008   0.000014  -0.000017  -0.008767   0.565809  -0.007993
    30  H    0.000001  -0.000001  -0.000001  -0.000309  -0.007993   0.562357
    31  H   -0.000001  -0.000079   0.000010   0.000074  -0.000281  -0.008468
    32  H   -0.000006   0.004758   0.001076  -0.000172   0.000056  -0.000230
    33  H   -0.000493  -0.000181  -0.000005   0.000002   0.000000  -0.000000
              31         32         33
     1  N   -0.000000   0.000049  -0.003312
     2  S   -0.000013   0.001085  -0.007534
     3  C    0.000272  -0.001398  -0.002485
     4  C   -0.000284  -0.000788  -0.002851
     5  C   -0.000040   0.000508   0.000578
     6  C   -0.000086   0.000017  -0.000171
     7  C    0.000008   0.000008   0.000182
     8  C    0.000005  -0.000234  -0.000361
     9  C    0.000042  -0.000282   0.014293
    10  C   -0.000347  -0.016431  -0.003687
    11  C    0.014540  -0.055172   0.001490
    12  C   -0.003918   0.021925  -0.000205
    13  C    0.013699  -0.005617   0.000037
    14  C   -0.061277   0.014591  -0.000053
    15  C    0.438281  -0.069945   0.000320
    16  C   -0.061715   0.435589  -0.000454
    17  N   -0.000066   0.008964   0.302700
    18  H    0.000000   0.000000   0.002580
    19  H    0.000062   0.001722  -0.002932
    20  H    0.000107  -0.000026   0.000007
    21  H   -0.000001  -0.000000  -0.000001
    22  H    0.000000   0.000000   0.000001
    23  H    0.000000  -0.000005  -0.000097
    24  H   -0.000001  -0.000012  -0.000342
    25  H   -0.000001  -0.000006  -0.000493
    26  H   -0.000079   0.004758  -0.000181
    27  H    0.000010   0.001076  -0.000005
    28  H    0.000074  -0.000172   0.000002
    29  H   -0.000281   0.000056   0.000000
    30  H   -0.008468  -0.000230  -0.000000
    31  H    0.562036  -0.008548   0.000008
    32  H   -0.008548   0.551629  -0.000274
    33  H    0.000008  -0.000274   0.493214
 Mulliken charges:
               1
     1  N   -0.577196
     2  S    0.551133
     3  C   -0.004969
     4  C   -0.119289
     5  C   -0.109284
     6  C   -0.102798
     7  C   -0.118459
     8  C   -0.185856
     9  C   -0.213489
    10  C   -0.161806
    11  C    0.141215
    12  C   -0.194259
    13  C   -0.072356
    14  C   -0.160882
    15  C   -0.085409
    16  C   -0.239399
    17  N   -0.584100
    18  H    0.211150
    19  H    0.155528
    20  H    0.114180
    21  H    0.120748
    22  H    0.121969
    23  H    0.158086
    24  H    0.158347
    25  H    0.148502
    26  H    0.143111
    27  H    0.129772
    28  H    0.106707
    29  H    0.112394
    30  H    0.113543
    31  H    0.115981
    32  H    0.117160
    33  H    0.210026
 Sum of Mulliken charges =  -0.00000
 Mulliken charges with hydrogens summed into heavy atoms:
               1
     1  N   -0.366046
     2  S    0.551133
     3  C   -0.004969
     4  C    0.036239
     5  C    0.004896
     6  C    0.017950
     7  C    0.003510
     8  C   -0.027770
     9  C    0.093360
    10  C    0.111076
    11  C    0.141215
    12  C   -0.087551
    13  C    0.040038
    14  C   -0.047339
    15  C    0.030572
    16  C   -0.122240
    17  N   -0.374074
 Electronic spatial extent (au):  <R**2>=           3693.1289
 Charge=              0.0000 electrons
 Dipole moment (field-independent basis, Debye):
    X=             -2.6012    Y=              2.0430    Z=             -0.4210  Tot=              3.3343
 Quadrupole moment (field-independent basis, Debye-Ang):
   XX=           -115.7504   YY=           -103.9361   ZZ=           -101.8792
   XY=             -1.2420   XZ=             -1.4460   YZ=              0.9878
 Traceless Quadrupole moment (field-independent basis, Debye-Ang):
   XX=             -8.5618   YY=              3.2525   ZZ=              5.3093
   XY=             -1.2420   XZ=             -1.4460   YZ=              0.9878
 Octapole moment (field-independent basis, Debye-Ang**2):
  XXX=            -38.9254  YYY=             11.1498  ZZZ=              5.0285  XYY=              1.5176
  XXY=             31.0407  XXZ=             26.4316  XZZ=              3.4582  YZZ=              1.2565
  YYZ=            -15.8114  XYZ=             11.6501
 Hexadecapole moment (field-independent basis, Debye-Ang**3):
 XXXX=          -2628.1345 YYYY=          -1833.0673 ZZZZ=           -670.0918 XXXY=             -2.5122
 XXXZ=             36.7060 YYYX=            -65.6974 YYYZ=            -31.3588 ZZZX=              5.9025
 ZZZY=            -12.4503 XXYY=           -737.5722 XXZZ=           -507.6819 YYZZ=           -425.8619
 XXYZ=              4.2960 YYXZ=            -39.7930 ZZXY=             -0.9566
 N-N= 1.364975009240D+03 E-N=-5.190052565059D+03  KE= 1.045825496511D+03
 Breneman (CHELPG) radii used.
 Read replacement radii for each type of atom:
 Atom Element Radius
    1     7    1.70
    2    16    2.00
    3     6    1.50
    4     6    1.50
    5     6    1.50
    6     6    1.50
    7     6    1.50
    8     6    1.50
    9     6    1.50
   10     6    1.50
   11     6    1.50
   12     6    1.50
   13     6    1.50
   14     6    1.50
   15     6    1.50
   16     6    1.50
   17     7    1.70
   18     1    1.45
   19     1    1.45
   20     1    1.45
   21     1    1.45
   22     1    1.45
   23     1    1.45
   24     1    1.45
   25     1    1.45
   26     1    1.45
   27     1    1.45
   28     1    1.45
   29     1    1.45
   30     1    1.45
   31     1    1.45
   32     1    1.45
   33     1    1.45
 Generate Potential Derived Charges using the Breneman model, NDens= 1.
 Grid spacing= 0.300 Box extension= 2.800
 NStep X,Y,Z=   46     44     36   Total possible points=       72864
 Number of Points to Fit=   18650

 **********************************************************************

            Electrostatic Properties Using The SCF Density.

 **********************************************************************

       Atomic Center    1 is at   3.434459  0.081781 -0.294565
       Atomic Center    2 is at   2.070959 -0.408638  0.269220
       Atomic Center    3 is at   0.906567  0.986356  0.222743
       Atomic Center    4 is at  -0.089678  1.074390  1.188710
       Atomic Center    5 is at  -0.983246  2.142315  1.143971
       Atomic Center    6 is at  -0.873239  3.102930  0.139228
       Atomic Center    7 is at   0.140124  3.010663 -0.816555
       Atomic Center    8 is at   1.044357  1.952426 -0.773249
       Atomic Center    9 is at   1.516907 -1.490985 -1.047281
       Atomic Center   10 is at   0.338851 -2.378323 -0.698616
       Atomic Center   11 is at  -0.962269 -1.657417 -0.456081
       Atomic Center   12 is at  -1.495751 -0.778981 -1.406549
       Atomic Center   13 is at  -2.687192 -0.101444 -1.164254
       Atomic Center   14 is at  -3.375182 -0.301176  0.032459
       Atomic Center   15 is at  -2.860144 -1.181137  0.981766
       Atomic Center   16 is at  -1.660731 -1.848864  0.739275
       Atomic Center   17 is at   1.834904 -1.251875  1.552090
       Atomic Center   18 is at   3.775254  0.848122  0.291523
       Atomic Center   19 is at  -0.159938  0.290470  1.945297
       Atomic Center   20 is at  -1.777013  2.216886  1.890498
       Atomic Center   21 is at  -1.580965  3.934583  0.101863
       Atomic Center   22 is at   0.229928  3.771958 -1.595222
       Atomic Center   23 is at   1.863129  1.865674 -1.491856
       Atomic Center   24 is at   2.429786 -2.072045 -1.244621
       Atomic Center   25 is at   1.344933 -0.828740 -1.907172
       Atomic Center   26 is at   0.607231 -2.965381  0.190492
       Atomic Center   27 is at   0.218245 -3.088702 -1.535275
       Atomic Center   28 is at  -0.967412 -0.610635 -2.349238
       Atomic Center   29 is at  -3.080765  0.588962 -1.914005
       Atomic Center   30 is at  -4.310684  0.230027  0.223530
       Atomic Center   31 is at  -3.390571 -1.343566  1.923417
       Atomic Center   32 is at  -1.240686 -2.515356  1.496535
       Atomic Center   33 is at   2.262405 -0.777922  2.350629
   18650 points will be used for fitting atomic charges
 Fitting point charges to electrostatic potential
 Charges from ESP fit, RMS=   0.00364 RRMS=   0.26165:
 ESP charges:
               1
     1  N   -0.772702
     2  S    0.528659
     3  C   -0.004592
     4  C   -0.007733
     5  C   -0.105555
     6  C   -0.080776
     7  C   -0.119488
     8  C   -0.089687
     9  C    0.326166
    10  C   -0.246720
    11  C    0.230336
    12  C   -0.227788
    13  C   -0.011074
    14  C   -0.150934
    15  C   -0.043325
    16  C   -0.202659
    17  N   -0.723417
    18  H    0.324322
    19  H    0.075217
    20  H    0.089639
    21  H    0.100155
    22  H    0.104675
    23  H    0.104250
    24  H    0.019999
    25  H   -0.022098
    26  H    0.095291
    27  H    0.030219
    28  H    0.107502
    29  H    0.067171
    30  H    0.098512
    31  H    0.083426
    32  H    0.112447
    33  H    0.310560
 Sum of ESP charges =  -0.00000
 ESP charges with hydrogens summed into heavy atoms:
               1
     1  N   -0.448380
     2  S    0.528659
     3  C   -0.004592
     4  C    0.067484
     5  C   -0.015916
     6  C    0.019379
     7  C   -0.014813
     8  C    0.014563
     9  C    0.324067
    10  C   -0.121210
    11  C    0.230336
    12  C   -0.120286
    13  C    0.056097
    14  C   -0.052422
    15  C    0.040101
    16  C   -0.090212
    17  N   -0.412856
 Charge=  -0.00000 Dipole=    -2.6659     1.9721    -0.3829 Tot=     3.3381
 -----------------------------------------------------------------

              Electrostatic Properties (Atomic Units)

 -----------------------------------------------------------------
    Center     Electric         -------- Electric Field --------
               Potential          X             Y             Z
 -----------------------------------------------------------------
    1 Atom    -18.432740
    2 Atom    -59.081009
    3 Atom    -14.737099
    4 Atom    -14.752493
    5 Atom    -14.752341
    6 Atom    -14.749910
    7 Atom    -14.750728
    8 Atom    -14.749164
    9 Atom    -14.727207
   10 Atom    -14.748151
   11 Atom    -14.751861
   12 Atom    -14.762395
   13 Atom    -14.761489
   14 Atom    -14.762663
   15 Atom    -14.762362
   16 Atom    -14.765726
   17 Atom    -18.430785
   18 Atom     -1.055012
   19 Atom     -1.097031
   20 Atom     -1.095376
   21 Atom     -1.092440
   22 Atom     -1.092580
   23 Atom     -1.091502
   24 Atom     -1.083423
   25 Atom     -1.082249
   26 Atom     -1.112835
   27 Atom     -1.101123
   28 Atom     -1.099843
   29 Atom     -1.102410
   30 Atom     -1.102049
   31 Atom     -1.102405
   32 Atom     -1.106407
   33 Atom     -1.052018
 -----------------------------------------------------------------
 Unable to Open any file for archive entry.
 1\1\GINC-NOTCH237\SP\RPBE1PBE\def2TZVP\C14H16N2S1\U1414944\06-Jun-2025
 \0\\#N Guess=Read Geom=Check Integral(Ultrafine) Density Pop=(ChelpG,R
 eadRadii) NMR pbe1pbe EmpiricalDispersion=GD3BJ def2TZVP\\SDI0241_1\\0
 ,1\N,0,3.2808333184,0.7055856544,-0.7959745873\S,0,2.116665423,0.03192
 10331,-0.0159828729\C,0,0.6847103484,1.1505525016,-0.0623166375\C,0,-0
 .2040908741,1.1637365985,1.0068909757\C,0,-1.3033591866,2.0184774605,0
 .9626626267\C,0,-1.5020127823,2.8435298416,-0.1437805266\C,0,-0.594641
 5561,2.8309427619,-1.2046561704\C,0,0.5127963742,1.9875420656,-1.16421
 03434\C,0,1.6734821224,-1.2998772691,-1.1302203461\C,0,0.7517546909,-2
 .3502880302,-0.5438687173\C,0,-0.6409654866,-1.876269889,-0.2166368747
 \C,0,-1.4421796486,-1.2515366591,-1.1796556867\C,0,-2.7191295381,-0.79
 79549271,-0.861917409\C,0,-3.2239013159,-0.9734123083,0.426401063\C,0,
 -2.4404100577,-1.6034333041,1.3907626075\C,0,-1.1578085102,-2.04592887
 09,1.0707891253\N,0,2.1962180514,-0.6680593569,1.3682944715\H,0,3.5093
 883764,1.5935487331,-0.3418783084\H,0,-0.0294502638,0.4861093868,1.844
 8730264\H,0,-2.0148070922,2.0302925986,1.791294155\H,0,-2.3698548571,3
 .5064887988,-0.1792186215\H,0,-0.7477374501,3.4876011002,-2.064492515\
 H,0,1.2539678552,1.9724603971,-1.9671718245\H,0,2.663805258,-1.7090970
 863,-1.3786595817\H,0,1.2786518823,-0.8018378775,-2.0266694643\H,0,1.2
 273412995,-2.7523926252,0.3612863222\H,0,0.699900228,-3.1726876646,-1.
 2788197218\H,0,-1.060118574,-1.105321814,-2.1939508282\H,0,-3.32412485
 08,-0.3022039769,-1.624740975\H,0,-4.2262934085,-0.6179277435,0.676781
 2103\H,0,-2.8258594525,-1.7444474252,2.4036729305\H,0,-0.5313832934,-2
 .5122282142,1.8351512314\H,0,2.592572191,-0.0194954623,2.05190345\\Ver
 sion=ES64L-G16RevC.01\State=1-A\HF=-1050.0949444\RMSD=3.793e-09\Dipole
 =-1.1818063,0.5567439,-0.1191982\Quadrupole=-5.7289206,1.8729695,3.855
 9511,-2.6093725,0.1227077,1.0486338\PG=C01 [X(C14H16N2S1)]\\@
 The archive entry for this job was punched.


 IT CANNOT BE MY BEAUTY, FOR I HAVE NONE; AND IT CANNOT BE MY WIT,
 FOR HE HAS NOT ENOUGH TO KNOW THAT I HAVE ANY.
 -- CATHARINE SEDLEY, PUZZLED ABOUT WHY SHE WAS MISTRESS TO JAMES II
 Job cpu time:       0 days  1 hours  6 minutes 28.2 seconds.
 Elapsed time:       0 days  0 hours  4 minutes 29.3 seconds.
 File lengths (MBytes):  RWF=    238 Int=      0 D2E=      0 Chk=     37 Scr=      2
 Normal termination of Gaussian 16 at Fri Jun  6 22:11:44 2025.
