 Entering Gaussian System, Link 0=g16
 Input=SDI0241_4.com
 Output=SDI0241_4.log
 Initial command:
 /uufs/chpc.utah.edu/sys/installdir/gaussian16/C01/AVX/g16/l1.exe "/scratch/general/vast/u1414944/4689600-notchpeak.peaks/Gau-3995688.inp" -scrdir="/scratch/general/vast/u1414944/4689600-notchpeak.peaks/"
 Entering Link 1 = /uufs/chpc.utah.edu/sys/installdir/gaussian16/C01/AVX/g16/l1.exe PID=   3995689.
  
 Copyright (c) 1988-2019, Gaussian, Inc.  All Rights Reserved.
  
 This is part of the Gaussian(R) 16 program.  It is based on
 the Gaussian(R) 09 system (copyright 2009, Gaussian, Inc.),
 the Gaussian(R) 03 system (copyright 2003, Gaussian, Inc.),
 the Gaussian(R) 98 system (copyright 1998, Gaussian, Inc.),
 the Gaussian(R) 94 system (copyright 1995, Gaussian, Inc.),
 the Gaussian 92(TM) system (copyright 1992, Gaussian, Inc.),
 the Gaussian 90(TM) system (copyright 1990, Gaussian, Inc.),
 the Gaussian 88(TM) system (copyright 1988, Gaussian, Inc.),
 the Gaussian 86(TM) system (copyright 1986, Carnegie Mellon
 University), and the Gaussian 82(TM) system (copyright 1983,
 Carnegie Mellon University). Gaussian is a federally registered
 trademark of Gaussian, Inc.
  
 This software contains proprietary and confidential information,
 including trade secrets, belonging to Gaussian, Inc.
  
 This software is provided under written license and may be
 used, copied, transmitted, or stored only in accord with that
 written license.
  
 The following legend is applicable only to US Government
 contracts under FAR:
  
                    RESTRICTED RIGHTS LEGEND
  
 Use, reproduction and disclosure by the US Government is
 subject to restrictions as set forth in subparagraphs (a)
 and (c) of the Commercial Computer Software - Restricted
 Rights clause in FAR 52.227-19.
  
 Gaussian, Inc.
 340 Quinnipiac St., Bldg. 40, Wallingford CT 06492
  
  
 ---------------------------------------------------------------
 Warning -- This program may not be used in any manner that
 competes with the business of Gaussian, Inc. or will provide
 assistance to any competitor of Gaussian, Inc.  The licensee
 of this program is prohibited from giving any competitor of
 Gaussian, Inc. access to this program.  By using this program,
 the user acknowledges that Gaussian, Inc. is engaged in the
 business of creating and licensing software in the field of
 computational chemistry and represents and warrants to the
 licensee that it is not a competitor of Gaussian, Inc. and that
 it will not use this program in any manner prohibited above.
 ---------------------------------------------------------------
  

 Cite this work as:
 Gaussian 16, Revision C.01,
 M. J. Frisch, G. W. Trucks, H. B. Schlegel, G. E. Scuseria, 
 M. A. Robb, J. R. Cheeseman, G. Scalmani, V. Barone, 
 G. A. Petersson, H. Nakatsuji, X. Li, M. Caricato, A. V. Marenich, 
 J. Bloino, B. G. Janesko, R. Gomperts, B. Mennucci, H. P. Hratchian, 
 J. V. Ortiz, A. F. Izmaylov, J. L. Sonnenberg, D. Williams-Young, 
 F. Ding, F. Lipparini, F. Egidi, J. Goings, B. Peng, A. Petrone, 
 T. Henderson, D. Ranasinghe, V. G. Zakrzewski, J. Gao, N. Rega, 
 G. Zheng, W. Liang, M. Hada, M. Ehara, K. Toyota, R. Fukuda, 
 J. Hasegawa, M. Ishida, T. Nakajima, Y. Honda, O. Kitao, H. Nakai, 
 T. Vreven, K. Throssell, J. A. Montgomery, Jr., J. E. Peralta, 
 F. Ogliaro, M. J. Bearpark, J. J. Heyd, E. N. Brothers, K. N. Kudin, 
 V. N. Staroverov, T. A. Keith, R. Kobayashi, J. Normand, 
 K. Raghavachari, A. P. Rendell, J. C. Burant, S. S. Iyengar, 
 J. Tomasi, M. Cossi, J. M. Millam, M. Klene, C. Adamo, R. Cammi, 
 J. W. Ochterski, R. L. Martin, K. Morokuma, O. Farkas, 
 J. B. Foresman, and D. J. Fox, Gaussian, Inc., Wallingford CT, 2019.
 
 ******************************************
 Gaussian 16:  ES64L-G16RevC.01  3-Jul-2019
                 6-Jun-2025 
 ******************************************
 %NProcShared=16
 Will use up to   16 processors via shared memory.
 %Mem=40GB
 %chk=SDI0241_4.chk
 ----------------------------------------------------------------------
 #N OPT FREQ=NORAMAN Integral(Ultrafine) pbe1pbe EmpiricalDispersion=GD
 3BJ def2SVP
 ----------------------------------------------------------------------
 1/18=20,19=15,26=4,38=1/1,3;
 2/9=110,12=2,17=6,18=5,40=1/2;
 3/5=43,7=101,11=2,25=1,30=1,71=1,74=-13,75=-5,124=41/1,2,3;
 4//1;
 5/5=2,38=5/2;
 6/7=2,8=2,9=2,10=2,28=1/1;
 7//1,2,3,16;
 1/18=20,19=15,26=4/3(2);
 2/9=110/2;
 99//99;
 2/9=110/2;
 3/5=43,7=101,11=2,25=1,30=1,71=1,74=-13,75=-5,124=41/1,2,3;
 4/5=5,16=3,69=1/1;
 5/5=2,38=5/2;
 7//1,2,3,16;
 1/18=20,19=15,26=4/3(-5);
 2/9=110/2;
 6/7=2,8=2,9=2,10=2,19=2,28=1/1;
 99/9=1/99;
 ---------
 SDI0241_4
 ---------
 Symbolic Z-matrix:
 Charge =  0 Multiplicity = 1
 N                     2.47649  -0.25181  -1.36676 
 S                     2.07507   0.00568   0.08765 
 C                     0.56451   1.03559   0.23631 
 C                     0.18594   1.45511   1.49728 
 C                    -0.93345   2.25544   1.64131 
 C                    -1.65483   2.64182   0.5226 
 C                    -1.24763   2.24635  -0.7401 
 C                    -0.12861   1.44344  -0.88507 
 C                     1.57431  -1.49249   1.0452 
 C                     0.71265  -2.43477   0.22202 
 C                    -0.59312  -1.80841  -0.18615 
 C                    -1.49634  -1.36835   0.77508 
 C                    -2.68619  -0.77057   0.40559 
 C                    -2.99782  -0.61215  -0.93406 
 C                    -2.11647  -1.06433  -1.89934 
 C                    -0.92292  -1.65794  -1.52612 
 N                     3.18839   0.55787   0.972 
 H                     1.72723  -0.5763   -1.95507 
 H                     0.78238   1.1671    2.3497 
 H                    -1.24089   2.58215   2.62367 
 H                    -2.53018   3.26414   0.63532 
 H                    -1.79845   2.56364  -1.61278 
 H                     0.20928   1.13767  -1.86363 
 H                     1.06685  -1.1272    1.93173 
 H                     2.51695  -1.95317   1.33146 
 H                     0.51454  -3.33532   0.81229 
 H                     1.27359  -2.73422  -0.66646 
 H                    -1.26809  -1.49886   1.82328 
 H                    -3.3737   -0.42884   1.16512 
 H                    -3.92699  -0.14421  -1.22284 
 H                    -2.35659  -0.95413  -2.94673 
 H                    -0.24216  -2.01411  -2.2874 
 H                     3.82006   1.18185   0.5004 
 

 GradGradGradGradGradGradGradGradGradGradGradGradGradGradGradGradGradGrad
 Berny optimization.
 Initialization pass.
                           ----------------------------
                           !    Initial Parameters    !
                           ! (Angstroms and Degrees)  !
 --------------------------                            --------------------------
 ! Name  Definition              Value          Derivative Info.                !
 --------------------------------------------------------------------------------
 ! R1    R(1,2)                  1.5306         estimate D2E/DX2                !
 ! R2    R(1,18)                 1.0064         estimate D2E/DX2                !
 ! R3    R(2,3)                  1.8343         estimate D2E/DX2                !
 ! R4    R(2,9)                  1.8472         estimate D2E/DX2                !
 ! R5    R(2,17)                 1.5253         estimate D2E/DX2                !
 ! R6    R(3,4)                  1.3818         estimate D2E/DX2                !
 ! R7    R(3,8)                  1.3799         estimate D2E/DX2                !
 ! R8    R(4,5)                  1.3836         estimate D2E/DX2                !
 ! R9    R(4,19)                 1.0795         estimate D2E/DX2                !
 ! R10   R(5,6)                  1.3861         estimate D2E/DX2                !
 ! R11   R(5,20)                 1.0799         estimate D2E/DX2                !
 ! R12   R(6,7)                  1.3844         estimate D2E/DX2                !
 ! R13   R(6,21)                 1.0799         estimate D2E/DX2                !
 ! R14   R(7,8)                  1.3849         estimate D2E/DX2                !
 ! R15   R(7,22)                 1.0797         estimate D2E/DX2                !
 ! R16   R(8,23)                 1.0795         estimate D2E/DX2                !
 ! R17   R(9,10)                 1.5192         estimate D2E/DX2                !
 ! R18   R(9,24)                 1.0848         estimate D2E/DX2                !
 ! R19   R(9,25)                 1.0875         estimate D2E/DX2                !
 ! R20   R(10,11)                1.5047         estimate D2E/DX2                !
 ! R21   R(10,26)                1.0948         estimate D2E/DX2                !
 ! R22   R(10,27)                1.0926         estimate D2E/DX2                !
 ! R23   R(11,12)                1.3905         estimate D2E/DX2                !
 ! R24   R(11,16)                1.3881         estimate D2E/DX2                !
 ! R25   R(12,13)                1.3819         estimate D2E/DX2                !
 ! R26   R(12,28)                1.0807         estimate D2E/DX2                !
 ! R27   R(13,14)                1.3845         estimate D2E/DX2                !
 ! R28   R(13,29)                1.08           estimate D2E/DX2                !
 ! R29   R(14,15)                1.3831         estimate D2E/DX2                !
 ! R30   R(14,30)                1.0797         estimate D2E/DX2                !
 ! R31   R(15,16)                1.3843         estimate D2E/DX2                !
 ! R32   R(15,31)                1.0802         estimate D2E/DX2                !
 ! R33   R(16,32)                1.0816         estimate D2E/DX2                !
 ! R34   R(17,33)                1.0054         estimate D2E/DX2                !
 ! A1    A(2,1,18)             114.4851         estimate D2E/DX2                !
 ! A2    A(1,2,3)              112.7957         estimate D2E/DX2                !
 ! A3    A(1,2,9)              115.2916         estimate D2E/DX2                !
 ! A4    A(1,2,17)             114.8602         estimate D2E/DX2                !
 ! A5    A(3,2,9)              100.96           estimate D2E/DX2                !
 ! A6    A(3,2,17)             110.5387         estimate D2E/DX2                !
 ! A7    A(9,2,17)             101.0075         estimate D2E/DX2                !
 ! A8    A(2,3,4)              118.037          estimate D2E/DX2                !
 ! A9    A(2,3,8)              120.9122         estimate D2E/DX2                !
 ! A10   A(4,3,8)              120.9459         estimate D2E/DX2                !
 ! A11   A(3,4,5)              119.4899         estimate D2E/DX2                !
 ! A12   A(3,4,19)             119.2238         estimate D2E/DX2                !
 ! A13   A(5,4,19)             121.275          estimate D2E/DX2                !
 ! A14   A(4,5,6)              119.8873         estimate D2E/DX2                !
 ! A15   A(4,5,20)             120.0007         estimate D2E/DX2                !
 ! A16   A(6,5,20)             120.1112         estimate D2E/DX2                !
 ! A17   A(5,6,7)              120.2279         estimate D2E/DX2                !
 ! A18   A(5,6,21)             119.8841         estimate D2E/DX2                !
 ! A19   A(7,6,21)             119.8833         estimate D2E/DX2                !
 ! A20   A(6,7,8)              119.9179         estimate D2E/DX2                !
 ! A21   A(6,7,22)             120.2132         estimate D2E/DX2                !
 ! A22   A(8,7,22)             119.8687         estimate D2E/DX2                !
 ! A23   A(3,8,7)              119.4816         estimate D2E/DX2                !
 ! A24   A(3,8,23)             119.7172         estimate D2E/DX2                !
 ! A25   A(7,8,23)             120.8005         estimate D2E/DX2                !
 ! A26   A(2,9,10)             112.0814         estimate D2E/DX2                !
 ! A27   A(2,9,24)             106.1005         estimate D2E/DX2                !
 ! A28   A(2,9,25)             104.1835         estimate D2E/DX2                !
 ! A29   A(10,9,24)            112.7271         estimate D2E/DX2                !
 ! A30   A(10,9,25)            111.8082         estimate D2E/DX2                !
 ! A31   A(24,9,25)            109.4498         estimate D2E/DX2                !
 ! A32   A(9,10,11)            112.3955         estimate D2E/DX2                !
 ! A33   A(9,10,26)            108.704          estimate D2E/DX2                !
 ! A34   A(9,10,27)            108.6288         estimate D2E/DX2                !
 ! A35   A(11,10,26)           109.3677         estimate D2E/DX2                !
 ! A36   A(11,10,27)           109.8187         estimate D2E/DX2                !
 ! A37   A(26,10,27)           107.812          estimate D2E/DX2                !
 ! A38   A(10,11,12)           120.5262         estimate D2E/DX2                !
 ! A39   A(10,11,16)           120.8747         estimate D2E/DX2                !
 ! A40   A(12,11,16)           118.599          estimate D2E/DX2                !
 ! A41   A(11,12,13)           120.7548         estimate D2E/DX2                !
 ! A42   A(11,12,28)           119.677          estimate D2E/DX2                !
 ! A43   A(13,12,28)           119.5676         estimate D2E/DX2                !
 ! A44   A(12,13,14)           120.1339         estimate D2E/DX2                !
 ! A45   A(12,13,29)           119.7996         estimate D2E/DX2                !
 ! A46   A(14,13,29)           120.0664         estimate D2E/DX2                !
 ! A47   A(13,14,15)           119.6338         estimate D2E/DX2                !
 ! A48   A(13,14,30)           120.1387         estimate D2E/DX2                !
 ! A49   A(15,14,30)           120.2262         estimate D2E/DX2                !
 ! A50   A(14,15,16)           120.0962         estimate D2E/DX2                !
 ! A51   A(14,15,31)           120.1129         estimate D2E/DX2                !
 ! A52   A(16,15,31)           119.7908         estimate D2E/DX2                !
 ! A53   A(11,16,15)           120.7697         estimate D2E/DX2                !
 ! A54   A(11,16,32)           119.6166         estimate D2E/DX2                !
 ! A55   A(15,16,32)           119.6126         estimate D2E/DX2                !
 ! A56   A(2,17,33)            114.2876         estimate D2E/DX2                !
 ! D1    D(18,1,2,3)           -49.4632         estimate D2E/DX2                !
 ! D2    D(18,1,2,9)            65.7939         estimate D2E/DX2                !
 ! D3    D(18,1,2,17)         -177.3542         estimate D2E/DX2                !
 ! D4    D(1,2,3,4)           -173.1788         estimate D2E/DX2                !
 ! D5    D(1,2,3,8)              3.1319         estimate D2E/DX2                !
 ! D6    D(9,2,3,4)             63.2193         estimate D2E/DX2                !
 ! D7    D(9,2,3,8)           -120.47           estimate D2E/DX2                !
 ! D8    D(17,2,3,4)           -43.0553         estimate D2E/DX2                !
 ! D9    D(17,2,3,8)           133.2554         estimate D2E/DX2                !
 ! D10   D(1,2,9,10)           -41.129          estimate D2E/DX2                !
 ! D11   D(1,2,9,24)          -164.5676         estimate D2E/DX2                !
 ! D12   D(1,2,9,25)            79.9381         estimate D2E/DX2                !
 ! D13   D(3,2,9,10)            80.7407         estimate D2E/DX2                !
 ! D14   D(3,2,9,24)           -42.6979         estimate D2E/DX2                !
 ! D15   D(3,2,9,25)          -158.1922         estimate D2E/DX2                !
 ! D16   D(17,2,9,10)         -165.5733         estimate D2E/DX2                !
 ! D17   D(17,2,9,24)           70.9882         estimate D2E/DX2                !
 ! D18   D(17,2,9,25)          -44.5062         estimate D2E/DX2                !
 ! D19   D(1,2,17,33)           34.8116         estimate D2E/DX2                !
 ! D20   D(3,2,17,33)          -94.2086         estimate D2E/DX2                !
 ! D21   D(9,2,17,33)          159.5485         estimate D2E/DX2                !
 ! D22   D(2,3,4,5)            178.7161         estimate D2E/DX2                !
 ! D23   D(2,3,4,19)            -0.0772         estimate D2E/DX2                !
 ! D24   D(8,3,4,5)              2.4068         estimate D2E/DX2                !
 ! D25   D(8,3,4,19)          -176.3866         estimate D2E/DX2                !
 ! D26   D(2,3,8,7)           -178.5032         estimate D2E/DX2                !
 ! D27   D(2,3,8,23)             1.2127         estimate D2E/DX2                !
 ! D28   D(4,3,8,7)             -2.3002         estimate D2E/DX2                !
 ! D29   D(4,3,8,23)           177.4157         estimate D2E/DX2                !
 ! D30   D(3,4,5,6)             -0.7537         estimate D2E/DX2                !
 ! D31   D(3,4,5,20)           179.557          estimate D2E/DX2                !
 ! D32   D(19,4,5,6)           178.0142         estimate D2E/DX2                !
 ! D33   D(19,4,5,20)           -1.6752         estimate D2E/DX2                !
 ! D34   D(4,5,6,7)             -0.9735         estimate D2E/DX2                !
 ! D35   D(4,5,6,21)           179.8234         estimate D2E/DX2                !
 ! D36   D(20,5,6,7)           178.7155         estimate D2E/DX2                !
 ! D37   D(20,5,6,21)           -0.4876         estimate D2E/DX2                !
 ! D38   D(5,6,7,8)              1.0807         estimate D2E/DX2                !
 ! D39   D(5,6,7,22)          -178.7852         estimate D2E/DX2                !
 ! D40   D(21,6,7,8)          -179.7162         estimate D2E/DX2                !
 ! D41   D(21,6,7,22)            0.4179         estimate D2E/DX2                !
 ! D42   D(6,7,8,3)              0.542          estimate D2E/DX2                !
 ! D43   D(6,7,8,23)          -179.1707         estimate D2E/DX2                !
 ! D44   D(22,7,8,3)          -179.5916         estimate D2E/DX2                !
 ! D45   D(22,7,8,23)            0.6956         estimate D2E/DX2                !
 ! D46   D(2,9,10,11)          -63.206          estimate D2E/DX2                !
 ! D47   D(2,9,10,26)          175.5827         estimate D2E/DX2                !
 ! D48   D(2,9,10,27)           58.5221         estimate D2E/DX2                !
 ! D49   D(24,9,10,11)          56.4238         estimate D2E/DX2                !
 ! D50   D(24,9,10,26)         -64.7875         estimate D2E/DX2                !
 ! D51   D(24,9,10,27)         178.1519         estimate D2E/DX2                !
 ! D52   D(25,9,10,11)        -179.766          estimate D2E/DX2                !
 ! D53   D(25,9,10,26)          59.0228         estimate D2E/DX2                !
 ! D54   D(25,9,10,27)         -58.0379         estimate D2E/DX2                !
 ! D55   D(9,10,11,12)         -60.1857         estimate D2E/DX2                !
 ! D56   D(9,10,11,16)         119.8563         estimate D2E/DX2                !
 ! D57   D(26,10,11,12)         60.6447         estimate D2E/DX2                !
 ! D58   D(26,10,11,16)       -119.3133         estimate D2E/DX2                !
 ! D59   D(27,10,11,12)        178.7663         estimate D2E/DX2                !
 ! D60   D(27,10,11,16)         -1.1917         estimate D2E/DX2                !
 ! D61   D(10,11,12,13)        178.8256         estimate D2E/DX2                !
 ! D62   D(10,11,12,28)         -1.449          estimate D2E/DX2                !
 ! D63   D(16,11,12,13)         -1.2154         estimate D2E/DX2                !
 ! D64   D(16,11,12,28)        178.51           estimate D2E/DX2                !
 ! D65   D(10,11,16,15)       -179.0854         estimate D2E/DX2                !
 ! D66   D(10,11,16,32)          1.2921         estimate D2E/DX2                !
 ! D67   D(12,11,16,15)          0.9558         estimate D2E/DX2                !
 ! D68   D(12,11,16,32)       -178.6668         estimate D2E/DX2                !
 ! D69   D(11,12,13,14)          0.5084         estimate D2E/DX2                !
 ! D70   D(11,12,13,29)       -179.6131         estimate D2E/DX2                !
 ! D71   D(28,12,13,14)       -179.2173         estimate D2E/DX2                !
 ! D72   D(28,12,13,29)          0.6612         estimate D2E/DX2                !
 ! D73   D(12,13,14,15)          0.479          estimate D2E/DX2                !
 ! D74   D(12,13,14,30)       -179.9383         estimate D2E/DX2                !
 ! D75   D(29,13,14,15)       -179.3992         estimate D2E/DX2                !
 ! D76   D(29,13,14,30)          0.1835         estimate D2E/DX2                !
 ! D77   D(13,14,15,16)         -0.7364         estimate D2E/DX2                !
 ! D78   D(13,14,15,31)        179.3531         estimate D2E/DX2                !
 ! D79   D(30,14,15,16)        179.6812         estimate D2E/DX2                !
 ! D80   D(30,14,15,31)         -0.2293         estimate D2E/DX2                !
 ! D81   D(14,15,16,11)          0.011          estimate D2E/DX2                !
 ! D82   D(14,15,16,32)        179.6336         estimate D2E/DX2                !
 ! D83   D(31,15,16,11)        179.9218         estimate D2E/DX2                !
 ! D84   D(31,15,16,32)         -0.4557         estimate D2E/DX2                !
 --------------------------------------------------------------------------------
 Trust Radius=3.00D-01 FncErr=1.00D-07 GrdErr=1.00D-06 EigMax=2.50D+02 EigMin=1.00D-04
 Number of steps in this run=    184 maximum allowed number of steps=    198.
 GradGradGradGradGradGradGradGradGradGradGradGradGradGradGradGradGradGrad

                          Input orientation:                          
 ---------------------------------------------------------------------
 Center     Atomic      Atomic             Coordinates (Angstroms)
 Number     Number       Type             X           Y           Z
 ---------------------------------------------------------------------
      1          7           0        2.476494   -0.251810   -1.366765
      2         16           0        2.075070    0.005685    0.087648
      3          6           0        0.564511    1.035587    0.236308
      4          6           0        0.185942    1.455111    1.497285
      5          6           0       -0.933451    2.255440    1.641315
      6          6           0       -1.654832    2.641818    0.522597
      7          6           0       -1.247632    2.246348   -0.740103
      8          6           0       -0.128609    1.443443   -0.885075
      9          6           0        1.574307   -1.492492    1.045198
     10          6           0        0.712653   -2.434774    0.222015
     11          6           0       -0.593120   -1.808411   -0.186152
     12          6           0       -1.496340   -1.368353    0.775085
     13          6           0       -2.686188   -0.770571    0.405590
     14          6           0       -2.997818   -0.612149   -0.934060
     15          6           0       -2.116475   -1.064329   -1.899340
     16          6           0       -0.922918   -1.657937   -1.526122
     17          7           0        3.188393    0.557870    0.972000
     18          1           0        1.727226   -0.576301   -1.955070
     19          1           0        0.782382    1.167101    2.349697
     20          1           0       -1.240894    2.582153    2.623669
     21          1           0       -2.530183    3.264137    0.635325
     22          1           0       -1.798453    2.563644   -1.612784
     23          1           0        0.209277    1.137669   -1.863625
     24          1           0        1.066849   -1.127201    1.931726
     25          1           0        2.516948   -1.953166    1.331458
     26          1           0        0.514539   -3.335321    0.812285
     27          1           0        1.273586   -2.734221   -0.666461
     28          1           0       -1.268089   -1.498855    1.823280
     29          1           0       -3.373701   -0.428842    1.165120
     30          1           0       -3.926989   -0.144206   -1.222837
     31          1           0       -2.356593   -0.954127   -2.946727
     32          1           0       -0.242158   -2.014108   -2.287400
     33          1           0        3.820055    1.181849    0.500400
 ---------------------------------------------------------------------
                    Distance matrix (angstroms):
                    1          2          3          4          5
     1  N    0.000000
     2  S    1.530609   0.000000
     3  C    2.807653   1.834281   0.000000
     4  C    4.045119   2.767077   1.381802   0.000000
     5  C    5.192550   4.065277   2.388718   1.383587   0.000000
     6  C    5.386151   4.588087   2.754527   2.397236   1.386076
     7  C    4.527981   4.092199   2.388133   2.772561   2.402070
     8  C    3.145230   2.805270   1.379949   2.403064   2.773040
     9  C    2.858461   1.847214   2.839925   3.289423   4.548758
    10  C    3.225011   2.798227   3.473551   4.127341   5.169350
    11  C    3.638597   3.238078   3.099501   3.753861   4.468819
    12  C    4.649473   3.887868   3.211902   3.365055   3.768166
    13  C    5.483032   4.834588   3.722621   3.794020   3.708887
    14  C    5.503197   5.211507   4.095727   4.507919   4.372325
    15  C    4.694591   4.760472   4.019741   4.815159   4.995662
    16  C    3.682200   3.789436   3.545938   4.479020   5.034608
    17  N    2.575306   1.525278   2.766625   3.177369   4.507696
    18  H    1.006380   2.152301   2.958416   4.291963   5.294520
    19  H    4.323819   2.852507   2.128656   1.079488   2.151829
    20  H    6.146046   4.905630   3.369102   2.138885   1.079946
    21  H    6.437163   5.667964   3.834420   3.375335   2.139868
    22  H    5.124693   4.943562   3.367149   3.852168   3.381180
    23  H    2.705142   2.927463   2.132213   3.375949   3.852252
    24  H    3.692350   2.387585   2.793642   2.762801   3.940532
    25  H    3.190087   2.362078   3.734168   4.132485   5.451021
    26  H    4.255064   3.758015   4.408978   4.850302   5.834430
    27  H    2.846011   2.952649   3.940715   4.838932   5.923981
    28  H    5.074782   4.056201   3.507178   3.308534   3.773569
    29  H    6.377035   5.571254   4.303110   4.041123   3.658818
    30  H    6.406004   6.145287   4.867708   5.183925   4.787790
    31  H    5.133056   5.456034   4.756419   5.658459   5.777264
    32  H    3.368135   3.884580   4.039858   5.151949   5.843091
    33  H    2.710505   2.144458   3.269512   3.778257   5.005008
                    6          7          8          9         10
     6  C    0.000000
     7  C    1.384421   0.000000
     8  C    2.397290   1.384877   0.000000
     9  C    5.271904   5.012939   3.904560   0.000000
    10  C    5.609557   5.165394   4.119944   1.519201   0.000000
    11  C    4.629697   4.144431   3.358395   2.512722   1.504652
    12  C    4.021237   3.927303   3.540200   3.085003   2.514516
    13  C    3.566762   3.533250   3.620620   4.368305   3.788851
    14  C    3.809694   3.357346   3.529904   5.059328   4.292560
    15  C    4.451339   3.613765   3.356973   4.740833   3.792391
    16  C    4.818801   3.995835   3.265031   3.588202   2.516854
    17  N    5.291657   5.045847   3.903264   2.610481   3.955715
    18  H    5.285210   4.277063   2.944211   3.140764   3.036936
    19  H    3.384242   3.851310   3.371945   3.066317   4.183945
    20  H    2.142290   3.380499   3.852937   5.198044   5.895239
    21  H    1.079920   2.138372   3.375515   6.296059   6.569962
    22  H    2.141633   1.079654   2.138408   5.906997   5.886962
    23  H    3.381039   2.148035   1.079457   4.152385   4.167209
    24  H    4.857849   4.886340   3.996460   1.084843   2.181356
    25  H    6.258744   6.008273   4.842410   1.087537   2.172162
    26  H    6.365240   6.055591   5.111874   2.138545   1.094830
    27  H    6.236288   5.582833   4.412122   2.135907   1.092568
    28  H    4.357353   4.538490   4.158211   2.946976   2.713546
    29  H    3.577192   3.912376   4.270758   5.062462   4.648817
    30  H    3.996395   3.623083   4.130666   6.101321   5.372204
    31  H    5.045742   4.042527   3.868161   5.628257   4.653334
    32  H    5.618663   4.642907   3.732836   3.831166   2.717680
    33  H    5.666250   5.324797   4.192842   3.534443   4.776338
                   11         12         13         14         15
    11  C    0.000000
    12  C    1.390479   0.000000
    13  C    2.410021   1.381885   0.000000
    14  C    2.788007   2.397386   1.384512   0.000000
    15  C    2.410244   2.762163   2.392398   1.383112   0.000000
    16  C    1.388138   2.389189   2.761892   2.397795   1.384283
    17  N    4.608735   5.069106   6.049485   6.578086   6.246418
    18  H    3.167202   4.297961   5.008860   4.834231   3.874959
    19  H    4.144419   3.755064   4.423245   5.314010   5.606867
    20  H    5.252786   4.369098   4.271945   5.093897   5.875465
    21  H    5.491610   4.748508   4.044254   4.207998   5.033021
    22  H    4.754257   4.610183   3.997361   3.461907   3.653141
    23  H    3.483840   4.018963   4.144205   3.769803   3.202997
    24  H    2.775780   2.822395   4.067132   4.999953   4.981422
    25  H    3.463614   4.093658   5.415569   6.110937   5.718102
    26  H    2.134301   2.813179   4.121649   4.775148   4.408236
    27  H    2.138320   3.408246   4.548079   4.776997   3.975052
    28  H    2.142247   1.080667   2.133365   3.373594   3.842716
    29  H    3.385377   2.135250   1.079972   2.140432   3.372740
    30  H    3.867683   3.376134   2.140957   1.079685   2.140618
    31  H    3.385323   3.842330   3.373479   2.139848   1.080195
    32  H    2.140263   3.371762   3.843418   3.375009   2.136758
    33  H    5.374860   5.902799   6.793536   7.194408   6.785754
                   16         17         18         19         20
    16  C    0.000000
    17  N    5.296535   0.000000
    18  H    2.894338   3.462527   0.000000
    19  H    5.090271   2.838680   4.739536   0.000000
    20  H    5.941400   5.142404   6.304794   2.484165   0.000000
    21  H    5.610879   6.335562   6.291633   4.278985   2.465944
    22  H    4.312286   5.964300   4.733585   4.930750   4.273026
    23  H    3.034993   4.153561   2.291336   4.252223   4.932073
    24  H    4.024620   2.874280   3.980800   2.349350   4.423095
    25  H    4.481696   2.623994   3.649751   3.712358   6.029951
    26  H    3.216838   4.725668   4.091583   4.765205   6.432663
    27  H    2.592689   4.145949   2.554001   4.955684   6.738798
    28  H    3.370896   4.981468   4.909068   3.404243   4.158845
    29  H    3.841848   6.638673   5.981370   4.606873   3.967660
    30  H    3.377544   7.479230   5.717781   6.054807   5.426210
    31  H    2.137496   6.956251   4.219444   6.511903   6.691740
    32  H    1.081590   5.385854   2.460935   5.715981   6.800124
    33  H    5.887866   1.005362   3.674284   3.556343   5.664126
                   21         22         23         24         25
    21  H    0.000000
    22  H    2.465789   0.000000
    23  H    4.274490   2.475340   0.000000
    24  H    5.822640   5.864797   4.502194   0.000000
    25  H    7.292351   6.905998   5.008708   1.773507   0.000000
    26  H    7.270109   6.784444   5.221237   2.536531   2.487878
    27  H    7.221053   6.196799   4.190165   3.061997   2.479450
    28  H    5.068552   5.347123   4.767299   2.366817   3.843799
    29  H    3.824958   4.376429   4.946210   4.560030   6.086951
    30  H    4.125608   3.466291   4.377501   5.987985   7.163873
    31  H    5.536695   3.803372   3.483161   5.962316   6.561429
    32  H    6.452693   4.881902   3.212020   4.505677   4.551100
    33  H    6.684284   6.159752   4.316050   3.867887   3.495291
                   26         27         28         29         30
    26  H    0.000000
    27  H    1.767531   0.000000
    28  H    2.751813   3.766304   0.000000
    29  H    4.867291   5.501522   2.451877   0.000000
    30  H    5.835418   5.836413   4.264229   2.467688   0.000000
    31  H    5.295626   4.641826   4.922858   4.268223   2.468586
    32  H    3.453439   2.333128   4.267986   4.923365   4.267061
    33  H    5.606116   4.814734   5.901305   7.401777   8.046407
                   31         32         33
    31  H    0.000000
    32  H    2.455424   0.000000
    33  H    7.388915   5.872609   0.000000
 Stoichiometry    C14H16N2S
 Framework group  C1[X(C14H16N2S)]
 Deg. of freedom    93
 Full point group                 C1      NOp   1
 Largest Abelian subgroup         C1      NOp   1
 Largest concise Abelian subgroup C1      NOp   1
                         Standard orientation:                         
 ---------------------------------------------------------------------
 Center     Atomic      Atomic             Coordinates (Angstroms)
 Number     Number       Type             X           Y           Z
 ---------------------------------------------------------------------
      1          7           0       -2.258041   -0.611472    1.638606
      2         16           0       -2.074613    0.077461    0.284173
      3          6           0       -0.539139    1.077158    0.197489
      4          6           0       -0.336499    1.860525   -0.922623
      5          6           0        0.798567    2.647135   -1.007371
      6          6           0        1.712503    2.655454    0.034674
      7          6           0        1.483591    1.894898    1.168594
      8          6           0        0.348861    1.105542    1.253382
      9          6           0       -1.835882   -1.058222   -1.152988
     10          6           0       -0.922052   -2.223632   -0.814304
     11          6           0        0.471837   -1.776721   -0.465995
     12          6           0        1.240040   -1.075583   -1.388873
     13          6           0        2.511660   -0.641902   -1.065589
     14          6           0        3.041161   -0.911881    0.184857
     15          6           0        2.294309   -1.626163    1.104102
     16          6           0        1.018736   -2.054659    0.779227
     17          7           0       -3.272901    0.895248   -0.186786
     18          1           0       -1.449426   -1.114915    1.963394
     19          1           0       -1.078516    1.861050   -1.706655
     20          1           0        0.968759    3.257093   -1.882168
     21          1           0        2.599851    3.267250   -0.032758
     22          1           0        2.185893    1.916695    1.988319
     23          1           0        0.149523    0.517179    2.136173
     24          1           0       -1.450872   -0.444664   -1.960575
     25          1           0       -2.841394   -1.391532   -1.399134
     26          1           0       -0.882225   -2.900000   -1.674299
     27          1           0       -1.354891   -2.774304    0.024215
     28          1           0        0.840635   -0.870826   -2.371925
     29          1           0        3.092468   -0.093142   -1.792132
     30          1           0        4.034303   -0.572215    0.437873
     31          1           0        2.703878   -1.850167    2.078216
     32          1           0        0.443861   -2.617802    1.501878
     33          1           0       -3.777600    1.352797    0.552593
 ---------------------------------------------------------------------
 Rotational constants (GHZ):           0.6241742           0.4702959           0.3537916
 Standard basis: def2SVP (5D, 7F)
 There are   339 symmetry adapted cartesian basis functions of A   symmetry.
 There are   322 symmetry adapted basis functions of A   symmetry.
   322 basis functions,   549 primitive gaussians,   339 cartesian basis functions
    65 alpha electrons       65 beta electrons
       nuclear repulsion energy      1385.8009168870 Hartrees.
 NAtoms=   33 NActive=   33 NUniq=   33 SFac= 1.00D+00 NAtFMM=   60 NAOKFM=F Big=F
 Integral buffers will be    131072 words long.
 Raffenetti 2 integral format.
 Two-electron integral symmetry is turned on.
 Nuclear repulsion after empirical dispersion term =     1385.7531606531 Hartrees.
 One-electron integrals computed using PRISM.
   1 Symmetry operations used in ECPInt.
 ECPInt:  NShTT=   11628 NPrTT=   42474 LenC2=   11317 LenP2D=   30562.
 LDataN:  DoStor=T MaxTD1= 4 Len=   56
 NBasis=   322 RedAO= T EigKep=  2.26D-04  NBF=   322
 NBsUse=   322 1.00D-06 EigRej= -1.00D+00 NBFU=   322
 ExpMin= 1.22D-01 ExpMax= 9.18D+03 ExpMxC= 1.38D+03 IAcc=3 IRadAn=         5 AccDes= 0.00D+00
 Harris functional with IExCor= 1009 and IRadAn=       5 diagonalized for initial guess.
 HarFok:  IExCor= 1009 AccDes= 0.00D+00 IRadAn=         5 IDoV= 1 UseB2=F ITyADJ=14
 ICtDFT=  3500011 ScaDFX=  1.000000  1.000000  1.000000  1.000000
 FoFCou: FMM=F IPFlag=           0 FMFlag=      100000 FMFlg1=           0
         NFxFlg=           0 DoJE=T BraDBF=F KetDBF=T FulRan=T
         wScrn=  0.000000 ICntrl=       500 IOpCl=  0 I1Cent=   200000004 NGrid=           0
         NMat0=    1 NMatS0=      1 NMatT0=    0 NMatD0=    1 NMtDS0=    0 NMtDT0=    0
 Petite list used in FoFCou.
 Requested convergence on RMS density matrix=1.00D-08 within 128 cycles.
 Requested convergence on MAX density matrix=1.00D-06.
 Requested convergence on             energy=1.00D-06.
 No special actions if energy rises.
 Integral accuracy reduced to 1.0D-05 until final iterations.
 Initial convergence to 1.0D-05 achieved.  Increase integral accuracy.
 SCF Done:  E(RPBE1PBE) =  -1049.21798136     A.U. after   15 cycles
            NFock= 15  Conv=0.80D-08     -V/T= 2.0069

 **********************************************************************

            Population analysis using the SCF Density.

 **********************************************************************

 Orbital symmetries:
       Occupied  (A) (A) (A) (A) (A) (A) (A) (A) (A) (A) (A) (A)
                 (A) (A) (A) (A) (A) (A) (A) (A) (A) (A) (A) (A)
                 (A) (A) (A) (A) (A) (A) (A) (A) (A) (A) (A) (A)
                 (A) (A) (A) (A) (A) (A) (A) (A) (A) (A) (A) (A)
                 (A) (A) (A) (A) (A) (A) (A) (A) (A) (A) (A) (A)
                 (A) (A) (A) (A) (A)
       Virtual   (A) (A) (A) (A) (A) (A) (A) (A) (A) (A) (A) (A)
                 (A) (A) (A) (A) (A) (A) (A) (A) (A) (A) (A) (A)
                 (A) (A) (A) (A) (A) (A) (A) (A) (A) (A) (A) (A)
                 (A) (A) (A) (A) (A) (A) (A) (A) (A) (A) (A) (A)
                 (A) (A) (A) (A) (A) (A) (A) (A) (A) (A) (A) (A)
                 (A) (A) (A) (A) (A) (A) (A) (A) (A) (A) (A) (A)
                 (A) (A) (A) (A) (A) (A) (A) (A) (A) (A) (A) (A)
                 (A) (A) (A) (A) (A) (A) (A) (A) (A) (A) (A) (A)
                 (A) (A) (A) (A) (A) (A) (A) (A) (A) (A) (A) (A)
                 (A) (A) (A) (A) (A) (A) (A) (A) (A) (A) (A) (A)
                 (A) (A) (A) (A) (A) (A) (A) (A) (A) (A) (A) (A)
                 (A) (A) (A) (A) (A) (A) (A) (A) (A) (A) (A) (A)
                 (A) (A) (A) (A) (A) (A) (A) (A) (A) (A) (A) (A)
                 (A) (A) (A) (A) (A) (A) (A) (A) (A) (A) (A) (A)
                 (A) (A) (A) (A) (A) (A) (A) (A) (A) (A) (A) (A)
                 (A) (A) (A) (A) (A) (A) (A) (A) (A) (A) (A) (A)
                 (A) (A) (A) (A) (A) (A) (A) (A) (A) (A) (A) (A)
                 (A) (A) (A) (A) (A) (A) (A) (A) (A) (A) (A) (A)
                 (A) (A) (A) (A) (A) (A) (A) (A) (A) (A) (A) (A)
                 (A) (A) (A) (A) (A) (A) (A) (A) (A) (A) (A) (A)
                 (A) (A) (A) (A) (A) (A) (A) (A) (A) (A) (A) (A)
                 (A) (A) (A) (A) (A)
 The electronic state is 1-A.
 Alpha  occ. eigenvalues --  -89.17399 -14.34406 -14.32788 -10.26350 -10.25889
 Alpha  occ. eigenvalues --  -10.25444 -10.25258 -10.25052 -10.24910 -10.24749
 Alpha  occ. eigenvalues --  -10.24702 -10.24656 -10.24386 -10.24327 -10.24302
 Alpha  occ. eigenvalues --  -10.24268 -10.24186  -8.14844  -6.08958  -6.08890
 Alpha  occ. eigenvalues --   -6.08845  -1.00082  -0.89629  -0.89051  -0.84538
 Alpha  occ. eigenvalues --   -0.82931  -0.78355  -0.77828  -0.77329  -0.76189
 Alpha  occ. eigenvalues --   -0.69006  -0.65058  -0.63528  -0.63233  -0.61079
 Alpha  occ. eigenvalues --   -0.59143  -0.55916  -0.54277  -0.51707  -0.50416
 Alpha  occ. eigenvalues --   -0.50203  -0.48479  -0.48034  -0.47155  -0.46768
 Alpha  occ. eigenvalues --   -0.45496  -0.44872  -0.44350  -0.43112  -0.41804
 Alpha  occ. eigenvalues --   -0.40854  -0.39452  -0.38543  -0.37286  -0.37048
 Alpha  occ. eigenvalues --   -0.35984  -0.35944  -0.30143  -0.29590  -0.28686
 Alpha  occ. eigenvalues --   -0.27473  -0.26862  -0.25851  -0.24941  -0.23507
 Alpha virt. eigenvalues --   -0.03170  -0.02146  -0.01029  -0.00290   0.04910
 Alpha virt. eigenvalues --    0.06560   0.07206   0.07916   0.08567   0.09445
 Alpha virt. eigenvalues --    0.10480   0.11014   0.11484   0.12324   0.13134
 Alpha virt. eigenvalues --    0.13657   0.13999   0.14960   0.15530   0.16039
 Alpha virt. eigenvalues --    0.16526   0.17333   0.17623   0.19375   0.20806
 Alpha virt. eigenvalues --    0.21873   0.22600   0.25232   0.28689   0.29016
 Alpha virt. eigenvalues --    0.29352   0.29806   0.30537   0.31035   0.31571
 Alpha virt. eigenvalues --    0.32957   0.34421   0.35552   0.37426   0.40109
 Alpha virt. eigenvalues --    0.40928   0.41662   0.42776   0.43699   0.44297
 Alpha virt. eigenvalues --    0.45374   0.46412   0.46624   0.47698   0.48060
 Alpha virt. eigenvalues --    0.48488   0.49071   0.49851   0.51861   0.52112
 Alpha virt. eigenvalues --    0.52929   0.53706   0.54754   0.55723   0.57174
 Alpha virt. eigenvalues --    0.57464   0.58958   0.60887   0.62819   0.63515
 Alpha virt. eigenvalues --    0.64056   0.64904   0.65686   0.66014   0.66544
 Alpha virt. eigenvalues --    0.66812   0.67280   0.67549   0.68388   0.68747
 Alpha virt. eigenvalues --    0.69040   0.69521   0.70253   0.70616   0.71198
 Alpha virt. eigenvalues --    0.71873   0.72741   0.73029   0.73824   0.74221
 Alpha virt. eigenvalues --    0.74991   0.75907   0.76497   0.77124   0.77186
 Alpha virt. eigenvalues --    0.78657   0.79917   0.80530   0.81262   0.81720
 Alpha virt. eigenvalues --    0.82268   0.82966   0.84813   0.86325   0.86971
 Alpha virt. eigenvalues --    0.88469   0.90523   0.91134   0.92570   0.93964
 Alpha virt. eigenvalues --    0.95522   0.95883   0.98039   0.98756   0.99664
 Alpha virt. eigenvalues --    1.01559   1.07315   1.07803   1.08023   1.09144
 Alpha virt. eigenvalues --    1.10221   1.11223   1.13801   1.17507   1.18230
 Alpha virt. eigenvalues --    1.18926   1.20971   1.22061   1.23754   1.25948
 Alpha virt. eigenvalues --    1.26079   1.27250   1.28513   1.28920   1.29620
 Alpha virt. eigenvalues --    1.30968   1.32014   1.32854   1.33224   1.34034
 Alpha virt. eigenvalues --    1.36119   1.38421   1.40494   1.41814   1.46393
 Alpha virt. eigenvalues --    1.48341   1.48441   1.52681   1.55966   1.56539
 Alpha virt. eigenvalues --    1.60123   1.66663   1.67416   1.68811   1.69945
 Alpha virt. eigenvalues --    1.70496   1.72216   1.72853   1.73756   1.74302
 Alpha virt. eigenvalues --    1.75253   1.76172   1.77030   1.77659   1.78529
 Alpha virt. eigenvalues --    1.78963   1.79358   1.80150   1.80566   1.81530
 Alpha virt. eigenvalues --    1.81684   1.82323   1.82950   1.83601   1.85124
 Alpha virt. eigenvalues --    1.86359   1.87390   1.89115   1.90999   1.92577
 Alpha virt. eigenvalues --    1.93592   1.95829   1.96882   1.97457   1.97641
 Alpha virt. eigenvalues --    1.99558   2.00141   2.00480   2.01590   2.03181
 Alpha virt. eigenvalues --    2.04715   2.06720   2.08109   2.11016   2.13112
 Alpha virt. eigenvalues --    2.13843   2.15005   2.17645   2.18261   2.19208
 Alpha virt. eigenvalues --    2.19924   2.20723   2.21803   2.24555   2.26058
 Alpha virt. eigenvalues --    2.28060   2.29782   2.30708   2.31845   2.32248
 Alpha virt. eigenvalues --    2.32425   2.33994   2.36377   2.36913   2.37011
 Alpha virt. eigenvalues --    2.38820   2.39298   2.41252   2.42487   2.44037
 Alpha virt. eigenvalues --    2.44434   2.49444   2.52115   2.54385   2.55951
 Alpha virt. eigenvalues --    2.60265   2.60741   2.60882   2.64392   2.65063
 Alpha virt. eigenvalues --    2.65970   2.66882   2.67003   2.67471   2.68270
 Alpha virt. eigenvalues --    2.70459   2.76464   2.76774   2.77260   2.77717
 Alpha virt. eigenvalues --    2.83522   2.85284   2.86947   2.88805   2.90399
 Alpha virt. eigenvalues --    2.91247   2.93135   2.94509   2.96514   2.97996
 Alpha virt. eigenvalues --    3.01467   3.06337   3.07318   3.12754   3.16486
 Alpha virt. eigenvalues --    3.17213   3.24964   3.28874   3.29852   3.34264
 Alpha virt. eigenvalues --    3.66425   3.69084
          Condensed to atoms (all electrons):
               1          2          3          4          5          6
     1  N    6.861642   0.347988  -0.062842   0.004923  -0.000002  -0.000019
     2  S    0.347988  14.700447   0.074659  -0.053893   0.000730   0.000203
     3  C   -0.062842   0.074659   5.977944   0.146817   0.134904  -0.203265
     4  C    0.004923  -0.053893   0.146817   5.198561   0.246478   0.114720
     5  C   -0.000002   0.000730   0.134904   0.246478   5.102963   0.241434
     6  C   -0.000019   0.000203  -0.203265   0.114720   0.241434   5.155734
     7  C    0.000986   0.004563   0.113859  -0.146551   0.098925   0.251700
     8  C    0.007521  -0.028456   0.229091   0.079272  -0.155332   0.111979
     9  C   -0.052981   0.239085  -0.118780  -0.003154  -0.000768  -0.000126
    10  C    0.008665  -0.045343  -0.005964   0.000753   0.000166   0.000026
    11  C   -0.005631  -0.013449   0.001535  -0.003551  -0.000120  -0.000543
    12  C    0.000161   0.000163  -0.010732  -0.000570  -0.000199   0.000521
    13  C   -0.000009  -0.000488  -0.000519   0.000269  -0.002046  -0.000374
    14  C    0.000010   0.000131  -0.001446   0.000837  -0.000603   0.001048
    15  C   -0.000133  -0.000457  -0.000540  -0.000029  -0.000131  -0.000142
    16  C   -0.000030   0.009158  -0.002701   0.000578   0.000086   0.000077
    17  N   -0.060931   0.375456  -0.070936   0.007638   0.001342  -0.000062
    18  H    0.317506  -0.002957  -0.004196  -0.001081  -0.000036  -0.000011
    19  H    0.000555  -0.007682  -0.083443   0.447550  -0.053301   0.013418
    20  H    0.000001  -0.000146   0.017948  -0.075773   0.458760  -0.076286
    21  H   -0.000000   0.000019  -0.001804   0.015233  -0.071874   0.452992
    22  H   -0.000002  -0.000119   0.018695  -0.002389   0.015129  -0.075860
    23  H    0.018776  -0.006509  -0.078664   0.017146  -0.002085   0.013728
    24  H    0.002595  -0.012959   0.004730   0.002884   0.000534   0.000070
    25  H    0.001180  -0.008547   0.008023   0.000152  -0.000012   0.000005
    26  H   -0.000008   0.005597  -0.000635  -0.000064   0.000002  -0.000001
    27  H    0.015922  -0.007418   0.002860  -0.000224   0.000013   0.000001
    28  H   -0.000007   0.000092  -0.001730   0.003496  -0.000773   0.000259
    29  H   -0.000000  -0.000004   0.000054  -0.000146   0.001001   0.000783
    30  H    0.000000   0.000001   0.000014  -0.000036   0.000044   0.000042
    31  H   -0.000000  -0.000001  -0.000031  -0.000002   0.000001  -0.000027
    32  H   -0.000750   0.000333   0.000216  -0.000040   0.000005  -0.000005
    33  H    0.002931  -0.014492   0.001097  -0.001528  -0.000070   0.000002
               7          8          9         10         11         12
     1  N    0.000986   0.007521  -0.052981   0.008665  -0.005631   0.000161
     2  S    0.004563  -0.028456   0.239085  -0.045343  -0.013449   0.000163
     3  C    0.113859   0.229091  -0.118780  -0.005964   0.001535  -0.010732
     4  C   -0.146551   0.079272  -0.003154   0.000753  -0.003551  -0.000570
     5  C    0.098925  -0.155332  -0.000768   0.000166  -0.000120  -0.000199
     6  C    0.251700   0.111979  -0.000126   0.000026  -0.000543   0.000521
     7  C    5.096685   0.237390   0.000047   0.000091   0.001853  -0.001858
     8  C    0.237390   5.123533   0.005386  -0.000117  -0.003181  -0.003400
     9  C    0.000047   0.005386   5.246996   0.273297  -0.048250  -0.007165
    10  C    0.000091  -0.000117   0.273297   4.801404   0.356122  -0.092642
    11  C    0.001853  -0.003181  -0.048250   0.356122   5.486510   0.222645
    12  C   -0.001858  -0.003400  -0.007165  -0.092642   0.222645   5.152650
    13  C   -0.000484   0.000445   0.000727   0.009252   0.111544   0.300332
    14  C   -0.006640   0.000085  -0.000086   0.000283  -0.175251   0.097755
    15  C   -0.000277  -0.002711  -0.000053   0.011458   0.104768  -0.144075
    16  C   -0.002356  -0.003204  -0.005977  -0.073334   0.248750   0.063388
    17  N   -0.000016  -0.001302  -0.102113   0.009533  -0.000264  -0.000013
    18  H    0.000882   0.002570  -0.006065   0.001857  -0.000720  -0.000057
    19  H   -0.001577   0.013981  -0.000890   0.000832   0.000186  -0.000298
    20  H    0.015343  -0.002200   0.000035  -0.000001  -0.000013   0.000068
    21  H   -0.072238   0.015659   0.000000  -0.000000  -0.000001   0.000012
    22  H    0.454547  -0.072858   0.000004   0.000004  -0.000037  -0.000041
    23  H   -0.047712   0.420143   0.002144  -0.000412  -0.002733   0.000380
    24  H   -0.000074  -0.000485   0.346173  -0.012064  -0.017601   0.005871
    25  H   -0.000001  -0.000147   0.337952  -0.005934   0.007632   0.000165
    26  H   -0.000001  -0.000046  -0.006386   0.349100  -0.004836  -0.008535
    27  H   -0.000033  -0.000126  -0.030898   0.372037  -0.027688   0.010618
    28  H   -0.000187   0.000180   0.000427  -0.013773  -0.081396   0.451720
    29  H   -0.000041  -0.000235   0.000010  -0.000296   0.016868  -0.072567
    30  H    0.000321   0.000014  -0.000001   0.000037  -0.001669   0.015568
    31  H    0.000279  -0.000297   0.000010  -0.000343   0.017994  -0.002089
    32  H    0.000027  -0.000670   0.000386  -0.016300  -0.077208   0.015647
    33  H   -0.000040   0.000527   0.008892  -0.000677   0.000041   0.000003
              13         14         15         16         17         18
     1  N   -0.000009   0.000010  -0.000133  -0.000030  -0.060931   0.317506
     2  S   -0.000488   0.000131  -0.000457   0.009158   0.375456  -0.002957
     3  C   -0.000519  -0.001446  -0.000540  -0.002701  -0.070936  -0.004196
     4  C    0.000269   0.000837  -0.000029   0.000578   0.007638  -0.001081
     5  C   -0.002046  -0.000603  -0.000131   0.000086   0.001342  -0.000036
     6  C   -0.000374   0.001048  -0.000142   0.000077  -0.000062  -0.000011
     7  C   -0.000484  -0.006640  -0.000277  -0.002356  -0.000016   0.000882
     8  C    0.000445   0.000085  -0.002711  -0.003204  -0.001302   0.002570
     9  C    0.000727  -0.000086  -0.000053  -0.005977  -0.102113  -0.006065
    10  C    0.009252   0.000283   0.011458  -0.073334   0.009533   0.001857
    11  C    0.111544  -0.175251   0.104768   0.248750  -0.000264  -0.000720
    12  C    0.300332   0.097755  -0.144075   0.063388  -0.000013  -0.000057
    13  C    5.047036   0.250487   0.099629  -0.149002  -0.000002  -0.000014
    14  C    0.250487   5.137507   0.257470   0.102796   0.000000  -0.000014
    15  C    0.099629   0.257470   5.092051   0.264546  -0.000001  -0.000240
    16  C   -0.149002   0.102796   0.264546   5.187366   0.000017   0.006519
    17  N   -0.000002   0.000000  -0.000001   0.000017   6.899372   0.003953
    18  H   -0.000014  -0.000014  -0.000240   0.006519   0.003953   0.562234
    19  H    0.000028  -0.000011   0.000005  -0.000061   0.016968  -0.000122
    20  H   -0.000032  -0.000028  -0.000000   0.000002  -0.000004   0.000000
    21  H   -0.000151   0.000164  -0.000014  -0.000002  -0.000000  -0.000000
    22  H   -0.000212   0.001236   0.000202   0.000111   0.000003   0.000002
    23  H   -0.000246  -0.000012  -0.000311   0.005114  -0.000170   0.000536
    24  H   -0.000150   0.000004   0.000055   0.000179   0.002022   0.000162
    25  H    0.000012  -0.000000   0.000011  -0.000183   0.016822  -0.000085
    26  H    0.000198   0.000112  -0.000742   0.005167  -0.000235   0.000145
    27  H   -0.000329  -0.000038   0.001062  -0.013809   0.000002   0.001782
    28  H   -0.061741   0.015588  -0.002018   0.015483  -0.000016  -0.000001
    29  H    0.453976  -0.075391   0.015381  -0.002039  -0.000000   0.000000
    30  H   -0.072687   0.454149  -0.073515   0.015165   0.000000  -0.000001
    31  H    0.015499  -0.077534   0.456340  -0.074008  -0.000000  -0.000013
    32  H   -0.001899   0.014947  -0.065812   0.453666   0.000001   0.003523
    33  H   -0.000000  -0.000000   0.000000  -0.000002   0.331846  -0.000117
              19         20         21         22         23         24
     1  N    0.000555   0.000001  -0.000000  -0.000002   0.018776   0.002595
     2  S   -0.007682  -0.000146   0.000019  -0.000119  -0.006509  -0.012959
     3  C   -0.083443   0.017948  -0.001804   0.018695  -0.078664   0.004730
     4  C    0.447550  -0.075773   0.015233  -0.002389   0.017146   0.002884
     5  C   -0.053301   0.458760  -0.071874   0.015129  -0.002085   0.000534
     6  C    0.013418  -0.076286   0.452992  -0.075860   0.013728   0.000070
     7  C   -0.001577   0.015343  -0.072238   0.454547  -0.047712  -0.000074
     8  C    0.013981  -0.002200   0.015659  -0.072858   0.420143  -0.000485
     9  C   -0.000890   0.000035   0.000000   0.000004   0.002144   0.346173
    10  C    0.000832  -0.000001  -0.000000   0.000004  -0.000412  -0.012064
    11  C    0.000186  -0.000013  -0.000001  -0.000037  -0.002733  -0.017601
    12  C   -0.000298   0.000068   0.000012  -0.000041   0.000380   0.005871
    13  C    0.000028  -0.000032  -0.000151  -0.000212  -0.000246  -0.000150
    14  C   -0.000011  -0.000028   0.000164   0.001236  -0.000012   0.000004
    15  C    0.000005  -0.000000  -0.000014   0.000202  -0.000311   0.000055
    16  C   -0.000061   0.000002  -0.000002   0.000111   0.005114   0.000179
    17  N    0.016968  -0.000004  -0.000000   0.000003  -0.000170   0.002022
    18  H   -0.000122   0.000000  -0.000000   0.000002   0.000536   0.000162
    19  H    0.636297  -0.011830  -0.000236   0.000030  -0.000152   0.002694
    20  H   -0.011830   0.669402  -0.012514  -0.000271   0.000041  -0.000023
    21  H   -0.000236  -0.012514   0.670377  -0.012454  -0.000268  -0.000001
    22  H    0.000030  -0.000271  -0.012454   0.671926  -0.012585   0.000001
    23  H   -0.000152   0.000041  -0.000268  -0.012585   0.672743  -0.000247
    24  H    0.002694  -0.000023  -0.000001   0.000001  -0.000247   0.605576
    25  H   -0.000267  -0.000002   0.000000  -0.000000  -0.000037  -0.007609
    26  H   -0.000007   0.000000  -0.000000   0.000000   0.000004  -0.006639
    27  H   -0.000034  -0.000000   0.000000  -0.000000  -0.000524   0.008981
    28  H   -0.000286  -0.000008   0.000000  -0.000001   0.000015   0.003154
    29  H   -0.000003   0.000036   0.000040  -0.000027  -0.000005   0.000026
    30  H   -0.000000   0.000000   0.000026   0.000179  -0.000020  -0.000000
    31  H    0.000000   0.000000  -0.000001   0.000058   0.000113   0.000000
    32  H   -0.000001   0.000000  -0.000000  -0.000001   0.000022  -0.000000
    33  H   -0.000393   0.000001   0.000000  -0.000000   0.000065  -0.000582
              25         26         27         28         29         30
     1  N    0.001180  -0.000008   0.015922  -0.000007  -0.000000   0.000000
     2  S   -0.008547   0.005597  -0.007418   0.000092  -0.000004   0.000001
     3  C    0.008023  -0.000635   0.002860  -0.001730   0.000054   0.000014
     4  C    0.000152  -0.000064  -0.000224   0.003496  -0.000146  -0.000036
     5  C   -0.000012   0.000002   0.000013  -0.000773   0.001001   0.000044
     6  C    0.000005  -0.000001   0.000001   0.000259   0.000783   0.000042
     7  C   -0.000001  -0.000001  -0.000033  -0.000187  -0.000041   0.000321
     8  C   -0.000147  -0.000046  -0.000126   0.000180  -0.000235   0.000014
     9  C    0.337952  -0.006386  -0.030898   0.000427   0.000010  -0.000001
    10  C   -0.005934   0.349100   0.372037  -0.013773  -0.000296   0.000037
    11  C    0.007632  -0.004836  -0.027688  -0.081396   0.016868  -0.001669
    12  C    0.000165  -0.008535   0.010618   0.451720  -0.072567   0.015568
    13  C    0.000012   0.000198  -0.000329  -0.061741   0.453976  -0.072687
    14  C   -0.000000   0.000112  -0.000038   0.015588  -0.075391   0.454149
    15  C    0.000011  -0.000742   0.001062  -0.002018   0.015381  -0.073515
    16  C   -0.000183   0.005167  -0.013809   0.015483  -0.002039   0.015165
    17  N    0.016822  -0.000235   0.000002  -0.000016  -0.000000   0.000000
    18  H   -0.000085   0.000145   0.001782  -0.000001   0.000000  -0.000001
    19  H   -0.000267  -0.000007  -0.000034  -0.000286  -0.000003  -0.000000
    20  H   -0.000002   0.000000  -0.000000  -0.000008   0.000036   0.000000
    21  H    0.000000  -0.000000   0.000000   0.000000   0.000040   0.000026
    22  H   -0.000000   0.000000  -0.000000  -0.000001  -0.000027   0.000179
    23  H   -0.000037   0.000004  -0.000524   0.000015  -0.000005  -0.000020
    24  H   -0.007609  -0.006639   0.008981   0.003154   0.000026  -0.000000
    25  H    0.572816  -0.006894  -0.003086  -0.000193  -0.000001   0.000000
    26  H   -0.006894   0.628366  -0.022109   0.002963   0.000002  -0.000001
    27  H   -0.003086  -0.022109   0.647085  -0.000002   0.000010  -0.000001
    28  H   -0.000193   0.002963  -0.000002   0.681578  -0.013399  -0.000299
    29  H   -0.000001   0.000002   0.000010  -0.013399   0.676512  -0.012667
    30  H    0.000000  -0.000001  -0.000001  -0.000299  -0.012667   0.675760
    31  H   -0.000000   0.000011  -0.000012   0.000034  -0.000295  -0.012695
    32  H   -0.000042   0.000320   0.006228  -0.000264   0.000036  -0.000285
    33  H   -0.000533   0.000013  -0.000025   0.000000   0.000000  -0.000000
              31         32         33
     1  N   -0.000000  -0.000750   0.002931
     2  S   -0.000001   0.000333  -0.014492
     3  C   -0.000031   0.000216   0.001097
     4  C   -0.000002  -0.000040  -0.001528
     5  C    0.000001   0.000005  -0.000070
     6  C   -0.000027  -0.000005   0.000002
     7  C    0.000279   0.000027  -0.000040
     8  C   -0.000297  -0.000670   0.000527
     9  C    0.000010   0.000386   0.008892
    10  C   -0.000343  -0.016300  -0.000677
    11  C    0.017994  -0.077208   0.000041
    12  C   -0.002089   0.015647   0.000003
    13  C    0.015499  -0.001899  -0.000000
    14  C   -0.077534   0.014947  -0.000000
    15  C    0.456340  -0.065812   0.000000
    16  C   -0.074008   0.453666  -0.000002
    17  N   -0.000000   0.000001   0.331846
    18  H   -0.000013   0.003523  -0.000117
    19  H    0.000000  -0.000001  -0.000393
    20  H    0.000000   0.000000   0.000001
    21  H   -0.000001  -0.000000   0.000000
    22  H    0.000058  -0.000001  -0.000000
    23  H    0.000113   0.000022   0.000065
    24  H    0.000000  -0.000000  -0.000582
    25  H   -0.000000  -0.000042  -0.000533
    26  H    0.000011   0.000320   0.000013
    27  H   -0.000012   0.006228  -0.000025
    28  H    0.000034  -0.000264   0.000000
    29  H   -0.000295   0.000036   0.000000
    30  H   -0.012695  -0.000285  -0.000000
    31  H    0.677753  -0.013068   0.000000
    32  H   -0.013068   0.672774   0.000000
    33  H    0.000000   0.000000   0.545231
 Mulliken charges:
               1
     1  N   -0.408016
     2  S    0.444296
     3  C   -0.084220
     4  C    0.001725
     5  C   -0.015165
     6  C   -0.002021
     7  C    0.002588
     8  C    0.026991
     9  C   -0.077878
    10  C    0.072283
    11  C   -0.112303
    12  C    0.006574
    13  C    0.000949
    14  C    0.002446
    15  C   -0.011778
    16  C   -0.051460
    17  N   -0.428908
    18  H    0.114058
    19  H    0.028048
    20  H    0.017496
    21  H    0.017036
    22  H    0.014732
    23  H    0.001721
    24  H    0.072721
    25  H    0.088803
    26  H    0.065140
    27  H    0.039754
    28  H    0.001103
    29  H    0.012381
    30  H    0.012555
    31  H    0.012325
    32  H    0.008214
    33  H    0.127811
 Sum of Mulliken charges =  -0.00000
 Mulliken charges with hydrogens summed into heavy atoms:
               1
     1  N   -0.293958
     2  S    0.444296
     3  C   -0.084220
     4  C    0.029773
     5  C    0.002330
     6  C    0.015015
     7  C    0.017320
     8  C    0.028712
     9  C    0.083646
    10  C    0.177177
    11  C   -0.112303
    12  C    0.007677
    13  C    0.013330
    14  C    0.015000
    15  C    0.000547
    16  C   -0.043246
    17  N   -0.301097
 Electronic spatial extent (au):  <R**2>=           3520.5419
 Charge=             -0.0000 electrons
 Dipole moment (field-independent basis, Debye):
    X=              4.3408    Y=             -0.3760    Z=             -1.1319  Tot=              4.5017
 Quadrupole moment (field-independent basis, Debye-Ang):
   XX=           -116.0254   YY=           -105.2983   ZZ=           -102.8629
   XY=              6.5435   XZ=              4.9155   YZ=             -0.6325
 Traceless Quadrupole moment (field-independent basis, Debye-Ang):
   XX=             -7.9632   YY=              2.7639   ZZ=              5.1993
   XY=              6.5435   XZ=              4.9155   YZ=             -0.6325
 Octapole moment (field-independent basis, Debye-Ang**2):
  XXX=             48.1022  YYY=              2.3395  ZZZ=             -6.7252  XYY=             -7.1127
  XXY=             14.4947  XXZ=              4.1387  XZZ=             12.8471  YZZ=             -1.0282
  YYZ=             -2.2885  XYZ=            -16.4170
 Hexadecapole moment (field-independent basis, Debye-Ang**3):
 XXXX=          -2385.0129 YYYY=          -1727.5427 ZZZZ=           -738.8505 XXXY=             23.8580
 XXXZ=              0.2139 YYYX=             66.6830 YYYZ=            -35.6710 ZZZX=             33.6677
 ZZZY=            -16.6644 XXYY=           -661.9013 XXZZ=           -532.9249 YYZZ=           -385.3473
 XXYZ=             34.5497 YYXZ=              3.0546 ZZXY=              2.0202
 N-N= 1.385753160653D+03 E-N=-5.225417575306D+03  KE= 1.042042298107D+03
   1 Symmetry operations used in ECPInt.
 ECPInt:  NShTT=   11628 NPrTT=   42474 LenC2=   11317 LenP2D=   30562.
 LDataN:  DoStor=T MaxTD1= 5 Len=  102
 Calling FoFJK, ICntrl=      2127 FMM=F ISym2X=0 I1Cent= 0 IOpClX= 0 NMat=1 NMatS=1 NMatT=0.
 ***** Axes restored to original set *****
 -------------------------------------------------------------------
 Center     Atomic                   Forces (Hartrees/Bohr)
 Number     Number              X              Y              Z
 -------------------------------------------------------------------
      1        7           0.005041381   -0.001323758   -0.006483361
      2       16           0.006284220   -0.000276246    0.010682108
      3        6           0.008137923   -0.007019615   -0.004184875
      4        6           0.000729310    0.001333210    0.003164895
      5        6           0.000723172   -0.000888378    0.000248432
      6        6          -0.000544521    0.001284770   -0.000382509
      7        6           0.000716645    0.000831284    0.000997737
      8        6           0.002107484   -0.000051696   -0.002454247
      9        6          -0.004238932    0.002779046   -0.014117597
     10        6          -0.002385910    0.011155122    0.001417225
     11        6           0.004354301   -0.008485986   -0.000075960
     12        6          -0.001028384   -0.000722745   -0.000952563
     13        6          -0.000148443   -0.000299945    0.001396135
     14        6          -0.000952601   -0.000480759   -0.001860896
     15        6          -0.001432271   -0.000110364   -0.001018922
     16        6          -0.000086814   -0.001034090   -0.000055673
     17        7          -0.002546905   -0.008549527    0.021920468
     18        1          -0.011260035   -0.003254672   -0.006691531
     19        1           0.005147752   -0.001736226    0.008343004
     20        1          -0.002325148    0.002732529    0.008359246
     21        1          -0.007439202    0.005297929    0.000947891
     22        1          -0.004674898    0.002379790   -0.007416357
     23        1           0.002589307   -0.002710430   -0.008061846
     24        1          -0.003065558    0.002467482    0.008646764
     25        1           0.008486926    0.000822469    0.000929144
     26        1           0.001109669   -0.004618388    0.002734139
     27        1           0.002891046   -0.003052753   -0.003928094
     28        1           0.002080439   -0.000307740    0.008925465
     29        1          -0.005574907    0.003048047    0.006327380
     30        1          -0.007843521    0.004138806   -0.002480298
     31        1          -0.002053074    0.000970449   -0.008801123
     32        1           0.005801207   -0.003105334   -0.005994123
     33        1           0.001400342    0.008787721   -0.010080058
 -------------------------------------------------------------------
 Cartesian Forces:  Max     0.021920468 RMS     0.005350994

 GradGradGradGradGradGradGradGradGradGradGradGradGradGradGradGradGradGrad
 Berny optimization.
 FormGI is forming the generalized inverse of G from B-inverse, IUseBI=4.
 Internal  Forces:  Max     0.026956270 RMS     0.005460604
 Search for a local minimum.
 Step number   1 out of a maximum of  184
 All quantities printed in internal units (Hartrees-Bohrs-Radians)
 Mixed Optimization -- RFO/linear search
 Second derivative matrix not updated -- first step.
 ITU=  0
     Eigenvalues ---    0.00230   0.00230   0.00512   0.00704   0.01515
     Eigenvalues ---    0.01611   0.02239   0.02268   0.02274   0.02282
     Eigenvalues ---    0.02287   0.02291   0.02292   0.02293   0.02301
     Eigenvalues ---    0.02304   0.02305   0.02307   0.02314   0.02318
     Eigenvalues ---    0.02321   0.02339   0.03537   0.03607   0.03714
     Eigenvalues ---    0.04258   0.04812   0.05577   0.06699   0.07922
     Eigenvalues ---    0.08222   0.09278   0.09303   0.12022   0.12812
     Eigenvalues ---    0.15996   0.15999   0.16000   0.16000   0.16000
     Eigenvalues ---    0.16000   0.16000   0.16000   0.16000   0.16000
     Eigenvalues ---    0.16000   0.16000   0.16508   0.19372   0.21987
     Eigenvalues ---    0.21996   0.21996   0.21999   0.21999   0.22000
     Eigenvalues ---    0.22724   0.23472   0.23474   0.23592   0.24948
     Eigenvalues ---    0.25000   0.30444   0.31894   0.34260   0.34518
     Eigenvalues ---    0.35099   0.35416   0.35803   0.35914   0.35971
     Eigenvalues ---    0.35998   0.36001   0.36004   0.36032   0.36036
     Eigenvalues ---    0.36056   0.36060   0.43447   0.43529   0.43682
     Eigenvalues ---    0.43881   0.46584   0.46758   0.47627   0.47979
     Eigenvalues ---    0.48160   0.48351   0.48395   0.48556   0.48619
     Eigenvalues ---    0.48887   0.67372   0.68879
 RFO step:  Lambda=-2.22941317D-02 EMin= 2.30000000D-03
 Linear search not attempted -- first point.
 Iteration  1 RMS(Cart)=  0.38991084 RMS(Int)=  0.00985758
 Iteration  2 RMS(Cart)=  0.06044827 RMS(Int)=  0.00060270
 Iteration  3 RMS(Cart)=  0.00102059 RMS(Int)=  0.00053898
 Iteration  4 RMS(Cart)=  0.00000055 RMS(Int)=  0.00053898
 Variable       Old X    -DE/DX   Delta X   Delta X   Delta X     New X
                                 (Linear)    (Quad)   (Total)
    R1        2.89243   0.01166   0.00000   0.01675   0.01675   2.90918
    R2        1.90178   0.01334   0.00000   0.02734   0.02734   1.92912
    R3        3.46629  -0.00347   0.00000  -0.01344  -0.01344   3.45285
    R4        3.49073  -0.00608   0.00000  -0.02435  -0.02435   3.46638
    R5        2.88236   0.00611   0.00000   0.00860   0.00860   2.89096
    R6        2.61123   0.01251   0.00000   0.02474   0.02480   2.63603
    R7        2.60773   0.00891   0.00000   0.01754   0.01760   2.62532
    R8        2.61460   0.00830   0.00000   0.01642   0.01642   2.63102
    R9        2.03994   0.00990   0.00000   0.02585   0.02585   2.06578
   R10        2.61930   0.01009   0.00000   0.01990   0.01985   2.63915
   R11        2.04080   0.00909   0.00000   0.02378   0.02378   2.06459
   R12        2.61618   0.00982   0.00000   0.01922   0.01916   2.63533
   R13        2.04075   0.00918   0.00000   0.02402   0.02402   2.06477
   R14        2.61704   0.00968   0.00000   0.01915   0.01914   2.63618
   R15        2.04025   0.00908   0.00000   0.02373   0.02373   2.06398
   R16        2.03988   0.00889   0.00000   0.02321   0.02321   2.06309
   R17        2.87087   0.00716   0.00000   0.02190   0.02190   2.89278
   R18        2.05006   0.00933   0.00000   0.02479   0.02479   2.07484
   R19        2.05515   0.00725   0.00000   0.01943   0.01943   2.07458
   R20        2.84338   0.00455   0.00000   0.01335   0.01335   2.85673
   R21        2.06893   0.00507   0.00000   0.01390   0.01390   2.08283
   R22        2.06465   0.00552   0.00000   0.01501   0.01501   2.07966
   R23        2.62763   0.00952   0.00000   0.01919   0.01922   2.64684
   R24        2.62320   0.01013   0.00000   0.02022   0.02025   2.64345
   R25        2.61138   0.00999   0.00000   0.01961   0.01960   2.63099
   R26        2.04217   0.00913   0.00000   0.02395   0.02395   2.06611
   R27        2.61635   0.01098   0.00000   0.02181   0.02178   2.63813
   R28        2.04085   0.00896   0.00000   0.02345   0.02345   2.06430
   R29        2.61370   0.00878   0.00000   0.01734   0.01731   2.63101
   R30        2.04031   0.00921   0.00000   0.02406   0.02406   2.06437
   R31        2.61591   0.01039   0.00000   0.02052   0.02052   2.63644
   R32        2.04127   0.00909   0.00000   0.02379   0.02379   2.06507
   R33        2.04391   0.00889   0.00000   0.02338   0.02338   2.06729
   R34        1.89986   0.01106   0.00000   0.02258   0.02258   1.92244
    A1        1.99814  -0.00330   0.00000  -0.01809  -0.01809   1.98006
    A2        1.96866  -0.00461   0.00000  -0.02395  -0.02359   1.94507
    A3        2.01222  -0.00568   0.00000  -0.02439  -0.02425   1.98797
    A4        2.00469   0.00972   0.00000   0.05721   0.05706   2.06175
    A5        1.76208   0.01044   0.00000   0.04150   0.04152   1.80361
    A6        1.92926  -0.00644   0.00000  -0.04068  -0.04037   1.88889
    A7        1.76291  -0.00359   0.00000  -0.01247  -0.01195   1.75097
    A8        2.06013  -0.00126   0.00000  -0.00589  -0.00635   2.05378
    A9        2.11032  -0.00014   0.00000  -0.00179  -0.00226   2.10805
   A10        2.11090   0.00129   0.00000   0.00477   0.00455   2.11545
   A11        2.08549  -0.00098   0.00000  -0.00329  -0.00318   2.08231
   A12        2.08085   0.00149   0.00000   0.00704   0.00695   2.08780
   A13        2.11665  -0.00052   0.00000  -0.00398  -0.00406   2.11259
   A14        2.09243   0.00021   0.00000   0.00079   0.00079   2.09322
   A15        2.09441  -0.00036   0.00000  -0.00179  -0.00182   2.09259
   A16        2.09634   0.00015   0.00000   0.00096   0.00094   2.09727
   A17        2.09837   0.00002   0.00000  -0.00054  -0.00058   2.09779
   A18        2.09237   0.00000   0.00000   0.00032   0.00035   2.09272
   A19        2.09236  -0.00002   0.00000   0.00021   0.00023   2.09259
   A20        2.09296   0.00092   0.00000   0.00349   0.00350   2.09646
   A21        2.09812  -0.00029   0.00000  -0.00084  -0.00085   2.09727
   A22        2.09210  -0.00062   0.00000  -0.00265  -0.00266   2.08945
   A23        2.08535  -0.00146   0.00000  -0.00545  -0.00533   2.08001
   A24        2.08946   0.00078   0.00000   0.00301   0.00294   2.09240
   A25        2.10837   0.00067   0.00000   0.00241   0.00234   2.11070
   A26        1.95619   0.01702   0.00000   0.07538   0.07371   2.02990
   A27        1.85180  -0.00459   0.00000   0.00919   0.00528   1.85709
   A28        1.81834  -0.00923   0.00000  -0.07075  -0.06951   1.74883
   A29        1.96746  -0.00090   0.00000   0.03327   0.03057   1.99803
   A30        1.95142  -0.00492   0.00000  -0.04245  -0.04031   1.91111
   A31        1.91026   0.00204   0.00000  -0.01038  -0.01029   1.89997
   A32        1.96167   0.02696   0.00000   0.12048   0.12005   2.08172
   A33        1.89724  -0.00959   0.00000  -0.04638  -0.04648   1.85076
   A34        1.89593  -0.00624   0.00000  -0.01487  -0.01639   1.87955
   A35        1.90883  -0.00682   0.00000  -0.02363  -0.02284   1.88598
   A36        1.91670  -0.00785   0.00000  -0.02020  -0.02170   1.89500
   A37        1.88167   0.00266   0.00000  -0.02100  -0.02241   1.85927
   A38        2.10358   0.00395   0.00000   0.01464   0.01439   2.11796
   A39        2.10966  -0.00288   0.00000  -0.01044  -0.01068   2.09898
   A40        2.06994  -0.00106   0.00000  -0.00422  -0.00433   2.06562
   A41        2.10757   0.00016   0.00000   0.00054   0.00060   2.10817
   A42        2.08876   0.00015   0.00000   0.00102   0.00099   2.08975
   A43        2.08685  -0.00032   0.00000  -0.00155  -0.00158   2.08527
   A44        2.09673   0.00047   0.00000   0.00209   0.00208   2.09882
   A45        2.09090  -0.00027   0.00000  -0.00123  -0.00123   2.08967
   A46        2.09555  -0.00020   0.00000  -0.00086  -0.00086   2.09469
   A47        2.08800  -0.00039   0.00000  -0.00142  -0.00145   2.08655
   A48        2.09682   0.00021   0.00000   0.00082   0.00083   2.09764
   A49        2.09834   0.00018   0.00000   0.00063   0.00064   2.09898
   A50        2.09607  -0.00049   0.00000  -0.00206  -0.00205   2.09403
   A51        2.09637   0.00019   0.00000   0.00075   0.00074   2.09711
   A52        2.09074   0.00030   0.00000   0.00131   0.00130   2.09205
   A53        2.10783   0.00131   0.00000   0.00508   0.00513   2.11296
   A54        2.08770  -0.00103   0.00000  -0.00465  -0.00470   2.08300
   A55        2.08763  -0.00028   0.00000  -0.00051  -0.00056   2.08707
   A56        1.99469  -0.01291   0.00000  -0.07079  -0.07079   1.92390
    D1       -0.86330  -0.00308   0.00000  -0.00578  -0.00613  -0.86943
    D2        1.14832   0.00329   0.00000   0.01423   0.01445   1.16277
    D3       -3.09542   0.00159   0.00000   0.02273   0.02288  -3.07254
    D4       -3.02254  -0.00091   0.00000   0.02524   0.02483  -2.99771
    D5        0.05466  -0.00278   0.00000  -0.02570  -0.02594   0.02872
    D6        1.10338   0.00166   0.00000   0.04048   0.04024   1.14363
    D7       -2.10260  -0.00022   0.00000  -0.01046  -0.01053  -2.11312
    D8       -0.75146   0.00299   0.00000   0.04846   0.04885  -0.70261
    D9        2.32575   0.00111   0.00000  -0.00248  -0.00192   2.32383
   D10       -0.71784   0.00828   0.00000   0.18138   0.18205  -0.53579
   D11       -2.87225   0.00205   0.00000   0.08759   0.08752  -2.78473
   D12        1.39518   0.00575   0.00000   0.12655   0.12602   1.52121
   D13        1.40919   0.00673   0.00000   0.16745   0.16806   1.57725
   D14       -0.74522   0.00051   0.00000   0.07366   0.07353  -0.67169
   D15       -2.76098   0.00420   0.00000   0.11262   0.11204  -2.64894
   D16       -2.88980   0.00194   0.00000   0.13292   0.13357  -2.75622
   D17        1.23898  -0.00429   0.00000   0.03913   0.03904   1.27802
   D18       -0.77678  -0.00059   0.00000   0.07809   0.07755  -0.69923
   D19        0.60758   0.00209   0.00000   0.02998   0.02959   0.63717
   D20       -1.64425   0.00599   0.00000   0.05097   0.05142  -1.59283
   D21        2.78465  -0.00201   0.00000   0.02306   0.02300   2.80765
   D22        3.11919  -0.00172   0.00000  -0.04243  -0.04244   3.07675
   D23       -0.00135  -0.00113   0.00000  -0.03054  -0.03052  -0.03187
   D24        0.04201   0.00022   0.00000   0.00878   0.00882   0.05083
   D25       -3.07853   0.00080   0.00000   0.02067   0.02074  -3.05779
   D26       -3.11547   0.00196   0.00000   0.04714   0.04725  -3.06822
   D27        0.02117   0.00160   0.00000   0.04001   0.04012   0.06128
   D28       -0.04015  -0.00007   0.00000  -0.00569  -0.00574  -0.04588
   D29        3.09649  -0.00042   0.00000  -0.01282  -0.01287   3.08362
   D30       -0.01315  -0.00025   0.00000  -0.00756  -0.00756  -0.02071
   D31        3.13386   0.00017   0.00000   0.00245   0.00243   3.13629
   D32        3.10693  -0.00082   0.00000  -0.01956  -0.01951   3.08742
   D33       -0.02924  -0.00040   0.00000  -0.00955  -0.00952  -0.03876
   D34       -0.01699   0.00021   0.00000   0.00367   0.00368  -0.01331
   D35        3.13851   0.00018   0.00000   0.00425   0.00425  -3.14043
   D36        3.11917  -0.00021   0.00000  -0.00636  -0.00635   3.11282
   D37       -0.00851  -0.00024   0.00000  -0.00578  -0.00578  -0.01429
   D38        0.01886  -0.00006   0.00000  -0.00058  -0.00058   0.01828
   D39       -3.12039  -0.00007   0.00000  -0.00009  -0.00008  -3.12047
   D40       -3.13664  -0.00003   0.00000  -0.00116  -0.00116  -3.13780
   D41        0.00729  -0.00004   0.00000  -0.00066  -0.00065   0.00664
   D42        0.00946  -0.00001   0.00000   0.00151   0.00153   0.01099
   D43       -3.12712   0.00035   0.00000   0.00871   0.00874  -3.11838
   D44       -3.13446  -0.00001   0.00000   0.00102   0.00103  -3.13343
   D45        0.01214   0.00035   0.00000   0.00822   0.00824   0.02038
   D46       -1.10315  -0.00358   0.00000  -0.06482  -0.06628  -1.16943
   D47        3.06450  -0.00581   0.00000  -0.08098  -0.08126   2.98324
   D48        1.02140  -0.00025   0.00000  -0.02217  -0.02310   0.99830
   D49        0.98478   0.00198   0.00000   0.02422   0.02453   1.00931
   D50       -1.13075  -0.00025   0.00000   0.00807   0.00955  -1.12121
   D51        3.10934   0.00531   0.00000   0.06688   0.06771  -3.10614
   D52       -3.13751   0.00020   0.00000   0.00304   0.00250  -3.13501
   D53        1.03014  -0.00203   0.00000  -0.01311  -0.01248   1.01766
   D54       -1.01295   0.00353   0.00000   0.04569   0.04567  -0.96728
   D55       -1.05044   0.00136   0.00000   0.02367   0.02361  -1.02683
   D56        2.09189   0.00280   0.00000   0.06133   0.06135   2.15323
   D57        1.05845   0.00220   0.00000   0.02768   0.02765   1.08610
   D58       -2.08241   0.00365   0.00000   0.06534   0.06539  -2.01702
   D59        3.12006  -0.00326   0.00000  -0.02390  -0.02393   3.09613
   D60       -0.02080  -0.00182   0.00000   0.01376   0.01381  -0.00699
   D61        3.12110   0.00143   0.00000   0.03479   0.03501  -3.12708
   D62       -0.02529   0.00152   0.00000   0.03700   0.03717   0.01188
   D63       -0.02121   0.00002   0.00000  -0.00203  -0.00203  -0.02324
   D64        3.11559   0.00010   0.00000   0.00018   0.00014   3.11572
   D65       -3.12563  -0.00163   0.00000  -0.03936  -0.03907   3.11848
   D66        0.02255  -0.00104   0.00000  -0.02659  -0.02636  -0.00381
   D67        0.01668  -0.00021   0.00000  -0.00242  -0.00246   0.01422
   D68       -3.11832   0.00037   0.00000   0.01035   0.01025  -3.10808
   D69        0.00887   0.00024   0.00000   0.00601   0.00605   0.01492
   D70       -3.13484   0.00017   0.00000   0.00431   0.00431  -3.13053
   D71       -3.12793   0.00015   0.00000   0.00380   0.00388  -3.12405
   D72        0.01154   0.00009   0.00000   0.00210   0.00214   0.01369
   D73        0.00836  -0.00026   0.00000  -0.00538  -0.00540   0.00296
   D74       -3.14052  -0.00005   0.00000  -0.00125  -0.00127   3.14140
   D75       -3.13111  -0.00020   0.00000  -0.00368  -0.00366  -3.13477
   D76        0.00320   0.00002   0.00000   0.00045   0.00047   0.00368
   D77       -0.01285   0.00007   0.00000   0.00095   0.00094  -0.01192
   D78        3.13030   0.00004   0.00000   0.00003   0.00006   3.13036
   D79        3.13603  -0.00015   0.00000  -0.00318  -0.00320   3.13283
   D80       -0.00400  -0.00018   0.00000  -0.00410  -0.00408  -0.00808
   D81        0.00019   0.00018   0.00000   0.00297   0.00302   0.00322
   D82        3.13520  -0.00041   0.00000  -0.00982  -0.00973   3.12547
   D83        3.14023   0.00020   0.00000   0.00389   0.00390  -3.13906
   D84       -0.00795  -0.00038   0.00000  -0.00890  -0.00886  -0.01681
         Item               Value     Threshold  Converged?
 Maximum Force            0.026956     0.000450     NO 
[...]
     7  C   -0.025300  -0.001527   0.002308  -0.000738  -0.000687   0.002665
     8  C    0.001739   0.001634  -0.010848  -0.002450  -0.001219  -0.002223
     9  C    0.004490  -0.002296   0.006996  -0.027863  -0.102581  -0.001866
    10  C    0.011020   0.001122   0.005040  -0.048553   0.009392  -0.005968
    11  C    0.083365  -0.145766   0.094926   0.276568  -0.001350  -0.000781
    12  C    0.393337   0.073358  -0.120961   0.070689   0.000676   0.000634
    13  C    4.951960   0.399631   0.063377  -0.133212  -0.000070  -0.000376
    14  C    0.399631   4.981711   0.394745   0.097259   0.000017   0.000290
    15  C    0.063377   0.394745   4.996157   0.329083  -0.000059  -0.000870
    16  C   -0.133212   0.097259   0.329083   5.275493   0.000765   0.014446
    17  N   -0.000070   0.000017  -0.000059   0.000765   6.895794   0.006871
    18  H   -0.000376   0.000290  -0.000870   0.014446   0.006871   0.490429
    19  H   -0.000043   0.000004  -0.000003  -0.000081   0.023361  -0.000286
    20  H   -0.000075  -0.000026   0.000007   0.000004  -0.000032   0.000003
    21  H    0.000113  -0.000012  -0.000005  -0.000010   0.000001  -0.000002
    22  H   -0.001691   0.002895  -0.000493   0.000871   0.000017   0.000012
    23  H    0.000175  -0.000709   0.001631  -0.000089   0.000015  -0.001407
    24  H   -0.000216   0.000416  -0.000624   0.003936  -0.000138  -0.000053
    25  H   -0.000052   0.000016  -0.000043  -0.000417   0.017413   0.000287
    26  H   -0.000270   0.000438  -0.001677   0.003689  -0.000361   0.000393
    27  H   -0.000346  -0.000057   0.001996   0.000999   0.000154  -0.001351
    28  H   -0.045426   0.011790  -0.002982   0.012675   0.000038   0.000005
    29  H    0.421517  -0.053990   0.011330  -0.002875  -0.000001  -0.000000
    30  H   -0.053083   0.428560  -0.054173   0.011439   0.000000  -0.000000
    31  H    0.013046  -0.058314   0.435251  -0.061163  -0.000000  -0.000081
    32  H   -0.002864   0.010623  -0.048606   0.432236  -0.000004   0.002359
    33  H    0.000003  -0.000003   0.000006  -0.000037   0.308003   0.000241
              19         20         21         22         23         24
     1  N    0.001590   0.000004  -0.000001   0.000001   0.017907   0.004407
     2  S    0.001585  -0.000202   0.000011  -0.000105   0.000382  -0.015377
     3  C   -0.081192   0.015431  -0.003684   0.015964  -0.108669   0.008292
     4  C    0.444722  -0.056974   0.012794  -0.003098   0.014485  -0.003106
     5  C   -0.063430   0.431797  -0.057023   0.011542  -0.002946   0.001265
     6  C    0.012441  -0.058093   0.429020  -0.056205   0.010598   0.000087
     7  C   -0.003933   0.011280  -0.052527   0.424934  -0.028954  -0.000166
     8  C    0.015455  -0.001735   0.012434  -0.053089   0.428406  -0.004696
     9  C   -0.003044   0.000174  -0.000008  -0.000045   0.004357   0.360613
    10  C    0.001778  -0.000034   0.000005   0.000051  -0.002854  -0.012849
    11  C    0.000304   0.000020   0.000028  -0.000464  -0.001438  -0.021319
    12  C    0.000573  -0.000300   0.000147  -0.000064   0.000339   0.002139
    13  C   -0.000043  -0.000075   0.000113  -0.001691   0.000175  -0.000216
    14  C    0.000004  -0.000026  -0.000012   0.002895  -0.000709   0.000416
    15  C   -0.000003   0.000007  -0.000005  -0.000493   0.001631  -0.000624
    16  C   -0.000081   0.000004  -0.000010   0.000871  -0.000089   0.003936
    17  N    0.023361  -0.000032   0.000001   0.000017   0.000015  -0.000138
    18  H   -0.000286   0.000003  -0.000002   0.000012  -0.001407  -0.000053
    19  H    0.505990  -0.007371  -0.000115   0.000047   0.000096  -0.000714
    20  H   -0.007371   0.550678  -0.008077  -0.000237   0.000102  -0.000048
    21  H   -0.000115  -0.008077   0.553074  -0.007641  -0.000273  -0.000000
    22  H    0.000047  -0.000237  -0.007641   0.558817  -0.008251   0.000008
    23  H    0.000096   0.000102  -0.000273  -0.008251   0.565533  -0.000353
    24  H   -0.000714  -0.000048  -0.000000   0.000008  -0.000353   0.542037
    25  H    0.000027  -0.000007   0.000000  -0.000001  -0.000105  -0.011261
    26  H   -0.000035   0.000000   0.000000   0.000000  -0.000062  -0.002579
    27  H   -0.000077  -0.000000   0.000000  -0.000001  -0.000419   0.005624
    28  H    0.000042  -0.000013  -0.000006   0.000000  -0.000016   0.001664
    29  H   -0.000002   0.000003   0.000134  -0.000080  -0.000003  -0.000010
    30  H   -0.000000   0.000000  -0.000003   0.000254  -0.000013   0.000001
    31  H    0.000000   0.000000  -0.000000  -0.000048   0.000421  -0.000004
    32  H   -0.000003  -0.000000   0.000000   0.000005  -0.000627   0.000082
    33  H   -0.002027   0.000024  -0.000001  -0.000000   0.000110  -0.000576
              25         26         27         28         29         30
     1  N    0.001923   0.001027   0.010235  -0.000020  -0.000001   0.000002
     2  S   -0.019073   0.006014  -0.007621  -0.000198  -0.000021   0.000008
     3  C    0.005872   0.000449   0.003312  -0.001521  -0.000464   0.000080
     4  C    0.001637  -0.000104  -0.000465   0.002110   0.000101  -0.000026
     5  C   -0.000045   0.000013   0.000066  -0.000317   0.000660   0.000026
     6  C    0.000036  -0.000001  -0.000005   0.000273   0.001731  -0.000042
     7  C   -0.000015  -0.000031  -0.000058  -0.000067  -0.000752   0.000461
     8  C   -0.001153  -0.000421  -0.000861   0.000191  -0.000575  -0.000396
     9  C    0.366231  -0.035199  -0.022835   0.004086   0.000104  -0.000017
    10  C   -0.024235   0.373607   0.408668  -0.009020  -0.000412   0.000126
    11  C    0.010483  -0.028075  -0.053467  -0.070939   0.012958  -0.001889
    12  C    0.000118  -0.001494   0.006096   0.431850  -0.048740   0.011066
    13  C   -0.000052  -0.000270  -0.000346  -0.045426   0.421517  -0.053083
    14  C    0.000016   0.000438  -0.000057   0.011790  -0.053990   0.428560
    15  C   -0.000043  -0.001677   0.001996  -0.002982   0.011330  -0.054173
    16  C   -0.000417   0.003689   0.000999   0.012675  -0.002875   0.011439
    17  N    0.017413  -0.000361   0.000154   0.000038  -0.000001   0.000000
    18  H    0.000287   0.000393  -0.001351   0.000005  -0.000000  -0.000000
    19  H    0.000027  -0.000035  -0.000077   0.000042  -0.000002  -0.000000
    20  H   -0.000007   0.000000  -0.000000  -0.000013   0.000003   0.000000
    21  H    0.000000   0.000000   0.000000  -0.000006   0.000134  -0.000003
    22  H   -0.000001   0.000000  -0.000001   0.000000  -0.000080   0.000254
    23  H   -0.000105  -0.000062  -0.000419  -0.000016  -0.000003  -0.000013
    24  H   -0.011261  -0.002579   0.005624   0.001664  -0.000010   0.000001
    25  H    0.496058  -0.003837  -0.001170   0.000122  -0.000001   0.000000
    26  H   -0.003837   0.570503  -0.018393   0.001537  -0.000004  -0.000003
    27  H   -0.001170  -0.018393   0.517851   0.000074   0.000014  -0.000003
    28  H    0.000122   0.001537   0.000074   0.562771  -0.008551  -0.000288
    29  H   -0.000001  -0.000004   0.000014  -0.008551   0.561810  -0.007821
    30  H    0.000000  -0.000003  -0.000003  -0.000288  -0.007821   0.557440
    31  H   -0.000001   0.000007  -0.000065   0.000068  -0.000272  -0.008185
    32  H    0.000002   0.000597   0.004467  -0.000235   0.000073  -0.000263
    33  H   -0.001041   0.000028  -0.000033  -0.000000   0.000000  -0.000000
              31         32         33
     1  N   -0.000033   0.001222  -0.003133
     2  S   -0.000032  -0.000333  -0.017890
     3  C   -0.000186   0.001795   0.004182
     4  C    0.000002  -0.000042  -0.009917
     5  C    0.000004   0.000009   0.000402
     6  C   -0.000010  -0.000004  -0.000214
     7  C    0.000278  -0.000163   0.000192
     8  C   -0.000740  -0.000659   0.003345
     9  C    0.000090  -0.000780   0.013295
    10  C   -0.000615  -0.005165  -0.001454
    11  C    0.015157  -0.065010   0.000283
    12  C   -0.003318   0.012985  -0.000015
    13  C    0.013046  -0.002864   0.000003
    14  C   -0.058314   0.010623  -0.000003
    15  C    0.435251  -0.048606   0.000006
    16  C   -0.061163   0.432236  -0.000037
    17  N   -0.000000  -0.000004   0.308003
    18  H   -0.000081   0.002359   0.000241
    19  H    0.000000  -0.000003  -0.002027
    20  H    0.000000  -0.000000   0.000024
    21  H   -0.000000   0.000000  -0.000001
    22  H   -0.000048   0.000005  -0.000000
    23  H    0.000421  -0.000627   0.000110
    24  H   -0.000004   0.000082  -0.000576
    25  H   -0.000001   0.000002  -0.001041
    26  H    0.000007   0.000597   0.000028
    27  H   -0.000065   0.004467  -0.000033
    28  H    0.000068  -0.000235  -0.000000
    29  H   -0.000272   0.000073   0.000000
    30  H   -0.008185  -0.000263  -0.000000
    31  H    0.555837  -0.007616   0.000000
    32  H   -0.007616   0.531065  -0.000001
    33  H    0.000000  -0.000001   0.488695
 Mulliken charges:
               1
     1  N   -0.545800
     2  S    0.566598
     3  C    0.083304
     4  C   -0.187682
     5  C   -0.117661
     6  C   -0.109771
     7  C   -0.118460
     8  C   -0.140435
     9  C   -0.233153
    10  C   -0.232134
    11  C    0.157655
    12  C   -0.181550
    13  C   -0.075930
    14  C   -0.151161
    15  C   -0.090334
    16  C   -0.287309
    17  N   -0.566432
    18  H    0.200101
    19  H    0.154339
    20  H    0.123699
    21  H    0.121625
    22  H    0.116094
    23  H    0.112630
    24  H    0.143520
    25  H    0.162233
    26  H    0.134244
    27  H    0.147672
    28  H    0.110304
    29  H    0.114140
    30  H    0.116743
    31  H    0.120523
    32  H    0.134855
    33  H    0.217533
 Sum of Mulliken charges =  -0.00000
 Mulliken charges with hydrogens summed into heavy atoms:
               1
     1  N   -0.345699
     2  S    0.566598
     3  C    0.083304
     4  C   -0.033343
     5  C    0.006038
     6  C    0.011854
     7  C   -0.002365
     8  C   -0.027805
     9  C    0.072599
    10  C    0.049782
    11  C    0.157655
    12  C   -0.071247
    13  C    0.038210
    14  C   -0.034418
    15  C    0.030190
    16  C   -0.152453
    17  N   -0.348899
 Electronic spatial extent (au):  <R**2>=           3657.2702
 Charge=             -0.0000 electrons
 Dipole moment (field-independent basis, Debye):
    X=              4.4054    Y=              1.3738    Z=             -1.5928  Tot=              4.8818
 Quadrupole moment (field-independent basis, Debye-Ang):
   XX=           -119.0216   YY=           -102.2850   ZZ=           -105.0566
   XY=              1.4739   XZ=              7.4683   YZ=              0.1984
 Traceless Quadrupole moment (field-independent basis, Debye-Ang):
   XX=            -10.2339   YY=              6.5027   ZZ=              3.7311
   XY=              1.4739   XZ=              7.4683   YZ=              0.1984
 Octapole moment (field-independent basis, Debye-Ang**2):
  XXX=             50.1613  YYY=              8.0724  ZZZ=             -9.7711  XYY=              1.5784
  XXY=             28.6176  XXZ=             10.6783  XZZ=             10.4250  YZZ=              3.5346
  YYZ=            -10.8092  XYZ=            -16.6815
 Hexadecapole moment (field-independent basis, Debye-Ang**3):
 XXXX=          -2517.5681 YYYY=          -1851.8502 ZZZZ=           -732.4140 XXXY=              2.3548
 XXXZ=              2.6011 YYYX=             70.8926 YYYZ=            -41.5253 ZZZX=             45.6203
 ZZZY=             -6.1302 XXYY=           -725.7796 XXZZ=           -530.4186 YYZZ=           -422.1524
 XXYZ=             20.5630 YYXZ=             38.4025 ZZXY=            -11.6331
 N-N= 1.368343364769D+03 E-N=-5.196246720357D+03  KE= 1.045822606494D+03
 Breneman (CHELPG) radii used.
 Read replacement radii for each type of atom:
 Atom Element Radius
    1     7    1.70
    2    16    2.00
    3     6    1.50
    4     6    1.50
    5     6    1.50
    6     6    1.50
    7     6    1.50
    8     6    1.50
    9     6    1.50
   10     6    1.50
   11     6    1.50
   12     6    1.50
   13     6    1.50
   14     6    1.50
   15     6    1.50
   16     6    1.50
   17     7    1.70
   18     1    1.45
   19     1    1.45
   20     1    1.45
   21     1    1.45
   22     1    1.45
   23     1    1.45
   24     1    1.45
   25     1    1.45
   26     1    1.45
   27     1    1.45
   28     1    1.45
   29     1    1.45
   30     1    1.45
   31     1    1.45
   32     1    1.45
   33     1    1.45
 Generate Potential Derived Charges using the Breneman model, NDens= 1.
 Grid spacing= 0.300 Box extension= 2.800
 NStep X,Y,Z=   47     43     35   Total possible points=       70735
 Number of Points to Fit=   18320

 **********************************************************************

            Electrostatic Properties Using The SCF Density.

 **********************************************************************

       Atomic Center    1 is at  -1.874790 -1.143222  1.644083
       Atomic Center    2 is at  -2.028080 -0.359200  0.320785
       Atomic Center    3 is at  -0.817177  1.000583  0.238767
       Atomic Center    4 is at  -0.933317  1.909879 -0.812075
       Atomic Center    5 is at  -0.029289  2.964264 -0.902645
       Atomic Center    6 is at   0.965167  3.116145  0.065591
       Atomic Center    7 is at   1.045977  2.223584  1.132695
       Atomic Center    8 is at   0.147080  1.162503  1.226290
       Atomic Center    9 is at  -1.594129 -1.335735 -1.149924
       Atomic Center   10 is at  -0.465766 -2.316217 -0.886066
       Atomic Center   11 is at   0.859529 -1.683161 -0.543440
       Atomic Center   12 is at   1.448656 -0.734043 -1.388038
       Atomic Center   13 is at   2.651726 -0.124201 -1.048219
       Atomic Center   14 is at   3.294984 -0.457264  0.144233
       Atomic Center   15 is at   2.727561 -1.408703  0.987585
       Atomic Center   16 is at   1.519197 -2.015216  0.643903
       Atomic Center   17 is at  -3.431842  0.139405 -0.077718
       Atomic Center   18 is at  -0.887501 -1.318031  1.845933
       Atomic Center   19 is at  -1.744162  1.791587 -1.535829
       Atomic Center   20 is at  -0.107181  3.678993 -1.725429
       Atomic Center   21 is at   1.673781  3.944598 -0.006721
       Atomic Center   22 is at   1.814819  2.350344  1.898076
       Atomic Center   23 is at   0.198000  0.463275  2.062497
       Atomic Center   24 is at  -1.389861 -0.631739 -1.968313
       Atomic Center   25 is at  -2.544048 -1.847612 -1.360767
       Atomic Center   26 is at  -0.358035 -2.947069 -1.785030
       Atomic Center   27 is at  -0.775497 -2.986914 -0.070088
       Atomic Center   28 is at   0.951988 -0.455210 -2.321200
       Atomic Center   29 is at   3.087856  0.622629 -1.715583
       Atomic Center   30 is at   4.237619  0.024966  0.413295
       Atomic Center   31 is at   3.225693 -1.682079  1.920986
       Atomic Center   32 is at   1.079078 -2.763846  1.309427
       Atomic Center   33 is at  -3.788034  0.715525  0.689691
   18320 points will be used for fitting atomic charges
 Fitting point charges to electrostatic potential
 Charges from ESP fit, RMS=   0.00364 RRMS=   0.21667:
 ESP charges:
               1
     1  N   -0.800837
     2  S    0.749969
     3  C   -0.115492
     4  C   -0.029619
     5  C   -0.113239
     6  C   -0.083949
     7  C   -0.107289
     8  C    0.052642
     9  C    0.109210
    10  C   -0.163409
    11  C    0.132633
    12  C   -0.155332
    13  C   -0.014906
    14  C   -0.151601
    15  C   -0.049333
    16  C   -0.184728
    17  N   -0.778438
    18  H    0.363317
    19  H    0.072097
    20  H    0.102836
    21  H    0.097934
    22  H    0.094063
    23  H    0.016232
    24  H    0.020945
    25  H    0.050145
    26  H    0.042643
    27  H    0.063999
    28  H    0.087780
    29  H    0.064159
    30  H    0.103912
    31  H    0.090237
    32  H    0.095919
    33  H    0.337502
 Sum of ESP charges =  -0.00000
 ESP charges with hydrogens summed into heavy atoms:
               1
     1  N   -0.437521
     2  S    0.749969
     3  C   -0.115492
     4  C    0.042478
     5  C   -0.010403
     6  C    0.013985
     7  C   -0.013226
     8  C    0.068874
     9  C    0.180300
    10  C   -0.056767
    11  C    0.132633
    12  C   -0.067552
    13  C    0.049252
    14  C   -0.047689
    15  C    0.040904
    16  C   -0.088809
    17  N   -0.440936
 Charge=  -0.00000 Dipole=     4.4364     1.3219    -1.5654 Tot=     4.8867
 -----------------------------------------------------------------

              Electrostatic Properties (Atomic Units)

 -----------------------------------------------------------------
    Center     Electric         -------- Electric Field --------
               Potential          X             Y             Z
 -----------------------------------------------------------------
    1 Atom    -18.430200
    2 Atom    -59.080767
    3 Atom    -14.733878
    4 Atom    -14.746242
    5 Atom    -14.747907
    6 Atom    -14.747584
    7 Atom    -14.748734
    8 Atom    -14.746091
    9 Atom    -14.730502
   10 Atom    -14.740377
   11 Atom    -14.742629
   12 Atom    -14.755219
   13 Atom    -14.754238
   14 Atom    -14.755311
   15 Atom    -14.753685
   16 Atom    -14.754753
   17 Atom    -18.432677
   18 Atom     -1.049305
   19 Atom     -1.088188
   20 Atom     -1.090003
   21 Atom     -1.089757
   22 Atom     -1.091407
   23 Atom     -1.088376
   24 Atom     -1.082078
   25 Atom     -1.085689
   26 Atom     -1.094289
   27 Atom     -1.103103
   28 Atom     -1.093579
   29 Atom     -1.096001
   30 Atom     -1.095294
   31 Atom     -1.094271
   32 Atom     -1.092749
   33 Atom     -1.057990
 -----------------------------------------------------------------
 Unable to Open any file for archive entry.
 1\1\GINC-NOTCH396\SP\RPBE1PBE\def2TZVP\C14H16N2S1\U1414944\06-Jun-2025
 \0\\#N Guess=Read Geom=Check Integral(Ultrafine) Density Pop=(ChelpG,R
 eadRadii) NMR pbe1pbe EmpiricalDispersion=GD3BJ def2TZVP\\SDI0241_4\\0
 ,1\N,0,2.3437857257,-0.2691385515,-1.3758250291\S,0,2.0668074192,0.005
 6108479,0.1198691065\C,0,0.6155938867,1.0913034533,0.3129350872\C,0,0.
 332537929,1.574557525,1.5900099264\C,0,-0.7646942866,2.4110204088,1.77
 33397591\C,0,-1.553988658,2.7764457284,0.6811085681\C,0,-1.2371654371,
 2.3187310097,-0.596399749\C,0,-0.1428947661,1.4765201047,-0.7859348676
 \C,0,1.5518452072,-1.4745331645,1.0412308211\C,0,0.720664057,-2.425209
 0154,0.1988989377\C,0,-0.6084711307,-1.8759342942,-0.2552561604\C,0,-1
 .5341959545,-1.3672335187,0.6642541383\C,0,-2.7420477531,-0.8257806194
 ,0.2368380608\C,0,-3.0519148427,-0.7879392421,-1.1230164756\C,0,-2.146
 7801476,-1.3018430952,-2.0477216096\C,0,-0.9352991984,-1.8409466535,-1
 .6143600952\N,0,3.2319937936,0.494866108,1.003571103\H,0,1.4731032288,
 -0.4781012867,-1.8700784492\H,0,0.9881941063,1.3051031895,2.422350893\
 H,0,-0.9993819568,2.7903980493,2.7707730056\H,0,-2.4147083749,3.433468
 0238,0.8266425815\H,0,-1.8458925111,2.6158805733,-1.4532234323\H,0,0.1
 17225402,1.1195239043,-1.783755286\H,0,1.0497083152,-1.1374597312,1.95
 84745186\H,0,2.5232074261,-1.9097625781,1.3166374261\H,0,0.5637406194,
 -3.3424732448,0.7919562986\H,0,1.3167119825,-2.7195960206,-0.678399548
 2\H,0,-1.3018121289,-1.3807916339,1.7324449608\H,0,-3.4447279148,-0.42
 3190283,0.9699818439\H,0,-3.9986191282,-0.3586178856,-1.4590741559\H,0
 ,-2.3816173598,-1.2833177413,-3.1147813232\H,0,-0.2288026743,-2.245380
 8477,-2.3453654367\H,0,3.6116832229,1.3445006125,0.5773545283\\Version
 =ES64L-G16RevC.01\State=1-A\HF=-1050.0918028\RMSD=3.964e-09\Dipole=-1.
 8963933,0.0698915,0.2960906\Quadrupole=-8.4130649,3.7729004,4.6401645,
 -4.5378846,1.6330241,-0.0289414\PG=C01 [X(C14H16N2S1)]\\@
 The archive entry for this job was punched.


 It takes a long time to grow an old friend.
                            -- John Leonard
 Job cpu time:       0 days  1 hours  4 minutes 22.5 seconds.
 Elapsed time:       0 days  0 hours  4 minutes 20.1 seconds.
 File lengths (MBytes):  RWF=    238 Int=      0 D2E=      0 Chk=     37 Scr=      2
 Normal termination of Gaussian 16 at Fri Jun  6 22:48:13 2025.
