 Entering Gaussian System, Link 0=g16
 Input=SDI0241_7.com
 Output=SDI0241_7.log
 Initial command:
 /uufs/chpc.utah.edu/sys/installdir/gaussian16/C01/AVX/g16/l1.exe "/scratch/general/vast/u1414944/4689603-notchpeak.peaks/Gau-271430.inp" -scrdir="/scratch/general/vast/u1414944/4689603-notchpeak.peaks/"
 Entering Link 1 = /uufs/chpc.utah.edu/sys/installdir/gaussian16/C01/AVX/g16/l1.exe PID=    271431.
  
 Copyright (c) 1988-2019, Gaussian, Inc.  All Rights Reserved.
  
 This is part of the Gaussian(R) 16 program.  It is based on
 the Gaussian(R) 09 system (copyright 2009, Gaussian, Inc.),
 the Gaussian(R) 03 system (copyright 2003, Gaussian, Inc.),
 the Gaussian(R) 98 system (copyright 1998, Gaussian, Inc.),
 the Gaussian(R) 94 system (copyright 1995, Gaussian, Inc.),
 the Gaussian 92(TM) system (copyright 1992, Gaussian, Inc.),
 the Gaussian 90(TM) system (copyright 1990, Gaussian, Inc.),
 the Gaussian 88(TM) system (copyright 1988, Gaussian, Inc.),
 the Gaussian 86(TM) system (copyright 1986, Carnegie Mellon
 University), and the Gaussian 82(TM) system (copyright 1983,
 Carnegie Mellon University). Gaussian is a federally registered
 trademark of Gaussian, Inc.
  
 This software contains proprietary and confidential information,
 including trade secrets, belonging to Gaussian, Inc.
  
 This software is provided under written license and may be
 used, copied, transmitted, or stored only in accord with that
 written license.
  
 The following legend is applicable only to US Government
 contracts under FAR:
  
                    RESTRICTED RIGHTS LEGEND
  
 Use, reproduction and disclosure by the US Government is
 subject to restrictions as set forth in subparagraphs (a)
 and (c) of the Commercial Computer Software - Restricted
 Rights clause in FAR 52.227-19.
  
 Gaussian, Inc.
 340 Quinnipiac St., Bldg. 40, Wallingford CT 06492
  
  
 ---------------------------------------------------------------
 Warning -- This program may not be used in any manner that
 competes with the business of Gaussian, Inc. or will provide
 assistance to any competitor of Gaussian, Inc.  The licensee
 of this program is prohibited from giving any competitor of
 Gaussian, Inc. access to this program.  By using this program,
 the user acknowledges that Gaussian, Inc. is engaged in the
 business of creating and licensing software in the field of
 computational chemistry and represents and warrants to the
 licensee that it is not a competitor of Gaussian, Inc. and that
 it will not use this program in any manner prohibited above.
 ---------------------------------------------------------------
  

 Cite this work as:
 Gaussian 16, Revision C.01,
 M. J. Frisch, G. W. Trucks, H. B. Schlegel, G. E. Scuseria, 
 M. A. Robb, J. R. Cheeseman, G. Scalmani, V. Barone, 
 G. A. Petersson, H. Nakatsuji, X. Li, M. Caricato, A. V. Marenich, 
 J. Bloino, B. G. Janesko, R. Gomperts, B. Mennucci, H. P. Hratchian, 
 J. V. Ortiz, A. F. Izmaylov, J. L. Sonnenberg, D. Williams-Young, 
 F. Ding, F. Lipparini, F. Egidi, J. Goings, B. Peng, A. Petrone, 
 T. Henderson, D. Ranasinghe, V. G. Zakrzewski, J. Gao, N. Rega, 
 G. Zheng, W. Liang, M. Hada, M. Ehara, K. Toyota, R. Fukuda, 
 J. Hasegawa, M. Ishida, T. Nakajima, Y. Honda, O. Kitao, H. Nakai, 
 T. Vreven, K. Throssell, J. A. Montgomery, Jr., J. E. Peralta, 
 F. Ogliaro, M. J. Bearpark, J. J. Heyd, E. N. Brothers, K. N. Kudin, 
 V. N. Staroverov, T. A. Keith, R. Kobayashi, J. Normand, 
 K. Raghavachari, A. P. Rendell, J. C. Burant, S. S. Iyengar, 
 J. Tomasi, M. Cossi, J. M. Millam, M. Klene, C. Adamo, R. Cammi, 
 J. W. Ochterski, R. L. Martin, K. Morokuma, O. Farkas, 
 J. B. Foresman, and D. J. Fox, Gaussian, Inc., Wallingford CT, 2019.
 
 ******************************************
 Gaussian 16:  ES64L-G16RevC.01  3-Jul-2019
                 6-Jun-2025 
 ******************************************
 %NProcShared=16
 Will use up to   16 processors via shared memory.
 %Mem=40GB
 %chk=SDI0241_7.chk
 ----------------------------------------------------------------------
 #N OPT FREQ=NORAMAN Integral(Ultrafine) pbe1pbe EmpiricalDispersion=GD
 3BJ def2SVP
 ----------------------------------------------------------------------
 1/18=20,19=15,26=4,38=1/1,3;
 2/9=110,12=2,17=6,18=5,40=1/2;
 3/5=43,7=101,11=2,25=1,30=1,71=1,74=-13,75=-5,124=41/1,2,3;
 4//1;
 5/5=2,38=5/2;
 6/7=2,8=2,9=2,10=2,28=1/1;
 7//1,2,3,16;
 1/18=20,19=15,26=4/3(2);
 2/9=110/2;
 99//99;
 2/9=110/2;
 3/5=43,7=101,11=2,25=1,30=1,71=1,74=-13,75=-5,124=41/1,2,3;
 4/5=5,16=3,69=1/1;
 5/5=2,38=5/2;
 7//1,2,3,16;
 1/18=20,19=15,26=4/3(-5);
 2/9=110/2;
 6/7=2,8=2,9=2,10=2,19=2,28=1/1;
 99/9=1/99;
 ---------
 SDI0241_7
 ---------
 Symbolic Z-matrix:
 Charge =  0 Multiplicity = 1
 N                     1.03896  -0.34089  -2.05229 
 S                     1.65654   0.02951  -0.70242 
 C                     0.6732    1.28058   0.20227 
 C                    -0.48788   1.78434  -0.34953 
 C                    -1.19357   2.76628   0.32672 
 C                    -0.72866   3.2356    1.54428 
 C                     0.45002   2.73976   2.08045 
 C                     1.15912   1.76249   1.40303 
 C                     1.76279  -1.33454   0.54329 
 C                     0.48757  -1.56317   1.33925 
 C                    -0.727    -1.68665   0.45896 
 C                    -0.78231  -2.64354  -0.54857 
 C                    -1.88829  -2.73428  -1.37444 
 C                    -2.95946  -1.87353  -1.20051 
 C                    -2.92287  -0.93198  -0.18718 
 C                    -1.81453  -0.84169   0.63739 
 N                     3.11557   0.47176  -0.77948 
 H                     0.07776  -0.63705  -2.01239 
 H                    -0.82912   1.40893  -1.30259 
 H                    -2.10417   3.1634   -0.09642 
 H                    -1.28117   3.99763   2.07394 
 H                     0.81693   3.11776   3.02326 
 H                     2.09212   1.37957   1.78677 
 H                     2.60073  -1.05792   1.17634 
 H                     2.03964  -2.2038   -0.0495 
 H                     0.33917  -0.73999   2.04171 
 H                     0.6066   -2.48149   1.92446 
 H                     0.04629  -3.32129  -0.69179 
 H                    -1.91282  -3.47706  -2.15788 
 H                    -3.82017  -1.94071  -1.84907 
 H                    -3.75724  -0.26261  -0.03742 
 H                    -1.79446  -0.10501   1.4284 
 H                     3.36882   0.8828   -1.66146 
 

 GradGradGradGradGradGradGradGradGradGradGradGradGradGradGradGradGradGrad
 Berny optimization.
 Initialization pass.
                           ----------------------------
                           !    Initial Parameters    !
                           ! (Angstroms and Degrees)  !
 --------------------------                            --------------------------
 ! Name  Definition              Value          Derivative Info.                !
 --------------------------------------------------------------------------------
 ! R1    R(1,2)                  1.5299         estimate D2E/DX2                !
 ! R2    R(1,18)                 1.0066         estimate D2E/DX2                !
 ! R3    R(2,3)                  1.8305         estimate D2E/DX2                !
 ! R4    R(2,9)                  1.8503         estimate D2E/DX2                !
 ! R5    R(2,17)                 1.5265         estimate D2E/DX2                !
 ! R6    R(3,4)                  1.3807         estimate D2E/DX2                !
 ! R7    R(3,8)                  1.3821         estimate D2E/DX2                !
 ! R8    R(4,5)                  1.3855         estimate D2E/DX2                !
 ! R9    R(4,19)                 1.0797         estimate D2E/DX2                !
 ! R10   R(5,6)                  1.3852         estimate D2E/DX2                !
 ! R11   R(5,20)                 1.0798         estimate D2E/DX2                !
 ! R12   R(6,7)                  1.3866         estimate D2E/DX2                !
 ! R13   R(6,21)                 1.08           estimate D2E/DX2                !
 ! R14   R(7,8)                  1.3845         estimate D2E/DX2                !
 ! R15   R(7,22)                 1.08           estimate D2E/DX2                !
 ! R16   R(8,23)                 1.0791         estimate D2E/DX2                !
 ! R17   R(9,10)                 1.5205         estimate D2E/DX2                !
 ! R18   R(9,24)                 1.086          estimate D2E/DX2                !
 ! R19   R(9,25)                 1.088          estimate D2E/DX2                !
 ! R20   R(10,11)                1.5051         estimate D2E/DX2                !
 ! R21   R(10,26)                1.0923         estimate D2E/DX2                !
 ! R22   R(10,27)                1.0954         estimate D2E/DX2                !
 ! R23   R(11,12)                1.3906         estimate D2E/DX2                !
 ! R24   R(11,16)                1.3887         estimate D2E/DX2                !
 ! R25   R(12,13)                1.3833         estimate D2E/DX2                !
 ! R26   R(12,28)                1.08           estimate D2E/DX2                !
 ! R27   R(13,14)                1.3851         estimate D2E/DX2                !
 ! R28   R(13,29)                1.0799         estimate D2E/DX2                !
 ! R29   R(14,15)                1.3837         estimate D2E/DX2                !
 ! R30   R(14,30)                1.0798         estimate D2E/DX2                !
 ! R31   R(15,16)                1.3844         estimate D2E/DX2                !
 ! R32   R(15,31)                1.0801         estimate D2E/DX2                !
 ! R33   R(16,32)                1.0811         estimate D2E/DX2                !
 ! R34   R(17,33)                1.0055         estimate D2E/DX2                !
 ! A1    A(2,1,18)             114.9436         estimate D2E/DX2                !
 ! A2    A(1,2,3)              112.6243         estimate D2E/DX2                !
 ! A3    A(1,2,9)              116.0206         estimate D2E/DX2                !
 ! A4    A(1,2,17)             114.2936         estimate D2E/DX2                !
 ! A5    A(3,2,9)              101.6516         estimate D2E/DX2                !
 ! A6    A(3,2,17)             109.9009         estimate D2E/DX2                !
 ! A7    A(9,2,17)             101.1089         estimate D2E/DX2                !
 ! A8    A(2,3,4)              120.2384         estimate D2E/DX2                !
 ! A9    A(2,3,8)              118.6093         estimate D2E/DX2                !
 ! A10   A(4,3,8)              121.0411         estimate D2E/DX2                !
 ! A11   A(3,4,5)              119.4618         estimate D2E/DX2                !
 ! A12   A(3,4,19)             119.4523         estimate D2E/DX2                !
 ! A13   A(5,4,19)             121.0855         estimate D2E/DX2                !
 ! A14   A(4,5,6)              119.8813         estimate D2E/DX2                !
 ! A15   A(4,5,20)             119.9287         estimate D2E/DX2                !
 ! A16   A(6,5,20)             120.1899         estimate D2E/DX2                !
 ! A17   A(5,6,7)              120.2661         estimate D2E/DX2                !
 ! A18   A(5,6,21)             119.8943         estimate D2E/DX2                !
 ! A19   A(7,6,21)             119.837          estimate D2E/DX2                !
 ! A20   A(6,7,8)              119.9073         estimate D2E/DX2                !
 ! A21   A(6,7,22)             120.0794         estimate D2E/DX2                !
 ! A22   A(8,7,22)             120.0129         estimate D2E/DX2                !
 ! A23   A(3,8,7)              119.4164         estimate D2E/DX2                !
 ! A24   A(3,8,23)             119.2899         estimate D2E/DX2                !
 ! A25   A(7,8,23)             121.2873         estimate D2E/DX2                !
 ! A26   A(2,9,10)             114.526          estimate D2E/DX2                !
 ! A27   A(2,9,24)             104.4163         estimate D2E/DX2                !
 ! A28   A(2,9,25)             103.6977         estimate D2E/DX2                !
 ! A29   A(10,9,24)            112.3495         estimate D2E/DX2                !
 ! A30   A(10,9,25)            112.241          estimate D2E/DX2                !
 ! A31   A(24,9,25)            108.9523         estimate D2E/DX2                !
 ! A32   A(9,10,11)            112.5162         estimate D2E/DX2                !
 ! A33   A(9,10,26)            109.7111         estimate D2E/DX2                !
 ! A34   A(9,10,27)            108.3346         estimate D2E/DX2                !
 ! A35   A(11,10,26)           109.1682         estimate D2E/DX2                !
 ! A36   A(11,10,27)           109.3518         estimate D2E/DX2                !
 ! A37   A(26,10,27)           107.6364         estimate D2E/DX2                !
 ! A38   A(10,11,12)           120.8174         estimate D2E/DX2                !
 ! A39   A(10,11,16)           120.4562         estimate D2E/DX2                !
 ! A40   A(12,11,16)           118.7263         estimate D2E/DX2                !
 ! A41   A(11,12,13)           120.6304         estimate D2E/DX2                !
 ! A42   A(11,12,28)           119.8264         estimate D2E/DX2                !
 ! A43   A(13,12,28)           119.5429         estimate D2E/DX2                !
 ! A44   A(12,13,14)           120.1707         estimate D2E/DX2                !
 ! A45   A(12,13,29)           119.7639         estimate D2E/DX2                !
 ! A46   A(14,13,29)           120.0652         estimate D2E/DX2                !
 ! A47   A(13,14,15)           119.6276         estimate D2E/DX2                !
 ! A48   A(13,14,30)           120.1556         estimate D2E/DX2                !
 ! A49   A(15,14,30)           120.2161         estimate D2E/DX2                !
 ! A50   A(14,15,16)           120.1148         estimate D2E/DX2                !
 ! A51   A(14,15,31)           120.1856         estimate D2E/DX2                !
 ! A52   A(16,15,31)           119.6995         estimate D2E/DX2                !
 ! A53   A(11,16,15)           120.7144         estimate D2E/DX2                !
 ! A54   A(11,16,32)           119.6093         estimate D2E/DX2                !
 ! A55   A(15,16,32)           119.6763         estimate D2E/DX2                !
 ! A56   A(2,17,33)            113.7937         estimate D2E/DX2                !
 ! D1    D(18,1,2,3)           -53.8499         estimate D2E/DX2                !
 ! D2    D(18,1,2,9)            62.6969         estimate D2E/DX2                !
 ! D3    D(18,1,2,17)          179.8001         estimate D2E/DX2                !
 ! D4    D(1,2,3,4)             -0.1066         estimate D2E/DX2                !
 ! D5    D(1,2,3,8)           -176.3147         estimate D2E/DX2                !
 ! D6    D(9,2,3,4)           -124.941          estimate D2E/DX2                !
 ! D7    D(9,2,3,8)             58.8509         estimate D2E/DX2                !
 ! D8    D(17,2,3,4)           128.5675         estimate D2E/DX2                !
 ! D9    D(17,2,3,8)           -47.6406         estimate D2E/DX2                !
 ! D10   D(1,2,9,10)           -83.3143         estimate D2E/DX2                !
 ! D11   D(1,2,9,24)           153.3978         estimate D2E/DX2                !
 ! D12   D(1,2,9,25)            39.3305         estimate D2E/DX2                !
 ! D13   D(3,2,9,10)            39.2164         estimate D2E/DX2                !
 ! D14   D(3,2,9,24)           -84.0714         estimate D2E/DX2                !
 ! D15   D(3,2,9,25)           161.8612         estimate D2E/DX2                !
 ! D16   D(17,2,9,10)          152.4626         estimate D2E/DX2                !
 ! D17   D(17,2,9,24)           29.1748         estimate D2E/DX2                !
 ! D18   D(17,2,9,25)          -84.8926         estimate D2E/DX2                !
 ! D19   D(1,2,17,33)           27.5706         estimate D2E/DX2                !
 ! D20   D(3,2,17,33)         -100.1834         estimate D2E/DX2                !
 ! D21   D(9,2,17,33)          152.9605         estimate D2E/DX2                !
 ! D22   D(2,3,4,5)           -177.6466         estimate D2E/DX2                !
 ! D23   D(2,3,4,19)             2.1453         estimate D2E/DX2                !
 ! D24   D(8,3,4,5)             -1.5321         estimate D2E/DX2                !
 ! D25   D(8,3,4,19)           178.2598         estimate D2E/DX2                !
 ! D26   D(2,3,8,7)            177.9759         estimate D2E/DX2                !
 ! D27   D(2,3,8,23)            -1.1179         estimate D2E/DX2                !
 ! D28   D(4,3,8,7)              1.7994         estimate D2E/DX2                !
 ! D29   D(4,3,8,23)          -177.2943         estimate D2E/DX2                !
 ! D30   D(3,4,5,6)              0.1783         estimate D2E/DX2                !
 ! D31   D(3,4,5,20)          -179.8099         estimate D2E/DX2                !
 ! D32   D(19,4,5,6)          -179.6101         estimate D2E/DX2                !
 ! D33   D(19,4,5,20)            0.4017         estimate D2E/DX2                !
 ! D34   D(4,5,6,7)              0.8862         estimate D2E/DX2                !
 ! D35   D(4,5,6,21)          -179.702          estimate D2E/DX2                !
 ! D36   D(20,5,6,7)          -179.1256         estimate D2E/DX2                !
 ! D37   D(20,5,6,21)            0.2861         estimate D2E/DX2                !
 ! D38   D(5,6,7,8)             -0.617          estimate D2E/DX2                !
 ! D39   D(5,6,7,22)           179.1422         estimate D2E/DX2                !
 ! D40   D(21,6,7,8)           179.9709         estimate D2E/DX2                !
 ! D41   D(21,6,7,22)           -0.2699         estimate D2E/DX2                !
 ! D42   D(6,7,8,3)             -0.7124         estimate D2E/DX2                !
 ! D43   D(6,7,8,23)           178.3627         estimate D2E/DX2                !
 ! D44   D(22,7,8,3)           179.5282         estimate D2E/DX2                !
 ! D45   D(22,7,8,23)           -1.3967         estimate D2E/DX2                !
 ! D46   D(2,9,10,11)           50.1457         estimate D2E/DX2                !
 ! D47   D(2,9,10,26)          -71.5953         estimate D2E/DX2                !
 ! D48   D(2,9,10,27)          171.1613         estimate D2E/DX2                !
 ! D49   D(24,9,10,11)         169.0584         estimate D2E/DX2                !
 ! D50   D(24,9,10,26)          47.3174         estimate D2E/DX2                !
 ! D51   D(24,9,10,27)         -69.926          estimate D2E/DX2                !
 ! D52   D(25,9,10,11)         -67.7452         estimate D2E/DX2                !
 ! D53   D(25,9,10,26)         170.5139         estimate D2E/DX2                !
 ! D54   D(25,9,10,27)          53.2704         estimate D2E/DX2                !
 ! D55   D(9,10,11,12)          56.4341         estimate D2E/DX2                !
 ! D56   D(9,10,11,16)        -123.4085         estimate D2E/DX2                !
 ! D57   D(26,10,11,12)        178.4829         estimate D2E/DX2                !
 ! D58   D(26,10,11,16)         -1.3597         estimate D2E/DX2                !
 ! D59   D(27,10,11,12)        -63.9974         estimate D2E/DX2                !
 ! D60   D(27,10,11,16)        116.16           estimate D2E/DX2                !
 ! D61   D(10,11,12,13)       -178.5656         estimate D2E/DX2                !
 ! D62   D(10,11,12,28)          1.225          estimate D2E/DX2                !
 ! D63   D(16,11,12,13)          1.2797         estimate D2E/DX2                !
 ! D64   D(16,11,12,28)       -178.9297         estimate D2E/DX2                !
 ! D65   D(10,11,16,15)        178.6377         estimate D2E/DX2                !
 ! D66   D(10,11,16,32)         -1.3063         estimate D2E/DX2                !
 ! D67   D(12,11,16,15)         -1.2081         estimate D2E/DX2                !
 ! D68   D(12,11,16,32)        178.8478         estimate D2E/DX2                !
 ! D69   D(11,12,13,14)         -0.3461         estimate D2E/DX2                !
 ! D70   D(11,12,13,29)        179.4721         estimate D2E/DX2                !
 ! D71   D(28,12,13,14)        179.8626         estimate D2E/DX2                !
 ! D72   D(28,12,13,29)         -0.3191         estimate D2E/DX2                !
 ! D73   D(12,13,14,15)         -0.6797         estimate D2E/DX2                !
 ! D74   D(12,13,14,30)        179.6355         estimate D2E/DX2                !
 ! D75   D(29,13,14,15)        179.5026         estimate D2E/DX2                !
 ! D76   D(29,13,14,30)         -0.1822         estimate D2E/DX2                !
 ! D77   D(13,14,15,16)          0.7515         estimate D2E/DX2                !
 ! D78   D(13,14,15,31)       -179.4089         estimate D2E/DX2                !
 ! D79   D(30,14,15,16)       -179.5639         estimate D2E/DX2                !
 ! D80   D(30,14,15,31)          0.2757         estimate D2E/DX2                !
 ! D81   D(14,15,16,11)          0.2019         estimate D2E/DX2                !
 ! D82   D(14,15,16,32)       -179.8541         estimate D2E/DX2                !
 ! D83   D(31,15,16,11)       -179.6385         estimate D2E/DX2                !
 ! D84   D(31,15,16,32)          0.3055         estimate D2E/DX2                !
 --------------------------------------------------------------------------------
 Trust Radius=3.00D-01 FncErr=1.00D-07 GrdErr=1.00D-06 EigMax=2.50D+02 EigMin=1.00D-04
 Number of steps in this run=    184 maximum allowed number of steps=    198.
 GradGradGradGradGradGradGradGradGradGradGradGradGradGradGradGradGradGrad

                          Input orientation:                          
 ---------------------------------------------------------------------
 Center     Atomic      Atomic             Coordinates (Angstroms)
 Number     Number       Type             X           Y           Z
 ---------------------------------------------------------------------
      1          7           0        1.038963   -0.340891   -2.052286
      2         16           0        1.656541    0.029512   -0.702420
      3          6           0        0.673200    1.280581    0.202269
      4          6           0       -0.487883    1.784342   -0.349533
      5          6           0       -1.193566    2.766281    0.326719
      6          6           0       -0.728660    3.235605    1.544277
      7          6           0        0.450016    2.739757    2.080451
      8          6           0        1.159119    1.762489    1.403026
      9          6           0        1.762790   -1.334545    0.543288
     10          6           0        0.487565   -1.563167    1.339250
     11          6           0       -0.726998   -1.686653    0.458957
     12          6           0       -0.782307   -2.643542   -0.548568
     13          6           0       -1.888291   -2.734279   -1.374440
     14          6           0       -2.959462   -1.873534   -1.200505
     15          6           0       -2.922874   -0.931976   -0.187181
     16          6           0       -1.814527   -0.841691    0.637395
     17          7           0        3.115571    0.471764   -0.779477
     18          1           0        0.077757   -0.637048   -2.012395
     19          1           0       -0.829121    1.408930   -1.302589
     20          1           0       -2.104174    3.163395   -0.096420
     21          1           0       -1.281173    3.997633    2.073935
     22          1           0        0.816931    3.117758    3.023262
     23          1           0        2.092121    1.379573    1.786770
     24          1           0        2.600732   -1.057918    1.176338
     25          1           0        2.039638   -2.203800   -0.049495
     26          1           0        0.339175   -0.739993    2.041714
     27          1           0        0.606604   -2.481487    1.924456
     28          1           0        0.046295   -3.321285   -0.691791
     29          1           0       -1.912816   -3.477056   -2.157882
     30          1           0       -3.820167   -1.940708   -1.849069
     31          1           0       -3.757235   -0.262614   -0.037418
     32          1           0       -1.794461   -0.105012    1.428399
     33          1           0        3.368818    0.882800   -1.661456
 ---------------------------------------------------------------------
                    Distance matrix (angstroms):
                    1          2          3          4          5
     1  N    0.000000
     2  S    1.529948   0.000000
     3  C    2.801067   1.830463   0.000000
     4  C    3.122058   2.793298   1.380715   0.000000
     5  C    4.505372   4.083154   2.389060   1.385463   0.000000
     6  C    5.371320   4.584306   2.754689   2.398051   1.385226
     7  C    5.188138   4.067616   2.388843   2.774399   2.403673
     8  C    4.046953   2.771919   1.382088   2.405110   2.775098
     9  C    2.871981   1.850331   2.853486   3.948432   5.060012
    10  C    3.646987   2.841047   3.068238   3.874184   4.753477
    11  C    3.352020   3.158366   3.291036   3.571924   4.479263
    12  C    3.298545   3.621722   4.252176   4.442124   5.495585
    13  C    3.841431   4.544885   5.016607   4.840404   5.799374
    14  C    4.365997   5.017684   5.011232   4.495877   5.194101
    15  C    4.418615   4.707544   4.240145   3.651565   4.114816
    16  C    3.953175   3.821310   3.298812   3.103234   3.674177
    17  N    2.567636   1.526530   2.753759   3.859093   5.005711
    18  H    1.006587   2.157057   2.989413   2.991353   4.320922
    19  H    2.667145   2.905428   2.130268   1.079673   2.151712
    20  H    5.097524   4.932691   3.368681   2.139684   1.079792
    21  H    6.421179   5.664300   3.834720   3.376561   2.139315
    22  H    6.145954   4.911508   3.369552   3.854385   3.381861
    23  H    4.336761   2.865041   2.129267   3.374026   3.853629
    24  H    3.657495   2.367221   3.183201   4.466125   5.453719
    25  H    2.912550   2.358125   3.751193   4.731138   5.941116
    26  H    4.172508   3.139723   2.752790   3.574123   4.193384
    27  H    4.536911   3.782586   4.138057   4.956433   5.773426
    28  H    3.423315   3.717640   4.729643   5.144893   6.295481
    29  H    4.308095   5.211017   5.907021   5.743072   6.757945
    30  H    5.119752   5.932192   5.897036   5.218115   5.812816
    31  H    5.202821   5.462283   4.697623   3.869898   3.984871
    32  H    4.494341   4.058066   3.084252   2.904797   3.133544
    33  H    2.660525   2.140034   3.301221   4.172297   5.321249
                    6          7          8          9         10
     6  C    0.000000
     7  C    1.386587   0.000000
     8  C    2.398694   1.384481   0.000000
     9  C    5.300525   4.548207   3.270349   0.000000
    10  C    4.954740   4.366456   3.393381   1.520534   0.000000
    11  C    5.040490   4.858777   4.042930   2.515976   1.505101
    12  C    6.240773   6.116394   5.195283   3.063192   2.518659
    13  C    6.745603   6.882515   6.100978   4.355149   3.792137
    14  C    6.213984   6.608454   6.079617   5.062705   4.292864
    15  C    5.018093   5.477241   5.143109   4.759317   3.789392
    16  C    4.315772   4.476308   4.026228   3.612334   2.512520
    17  N    5.274160   4.519753   3.202654   2.615812   3.941619
    18  H    5.319555   5.319096   4.311870   3.139642   3.501309
    19  H    3.384003   3.853862   3.376160   4.201418   4.188835
    20  H    2.142227   3.382620   3.854862   5.966079   5.578409
    21  H    1.080045   2.139932   3.376539   6.327773   5.881385
    22  H    2.142460   1.080002   2.139863   5.183428   4.985523
    23  H    3.385331   2.152408   1.079063   3.003522   3.381507
    24  H    5.445601   4.457055   3.175583   1.086012   2.178828
    25  H    6.307987   5.612693   4.314693   1.087953   2.178981
    26  H    4.146456   3.481731   2.709732   2.150687   1.092286
    27  H    5.883248   5.225921   4.311437   2.135385   1.095422
    28  H    6.970894   6.677166   5.609937   2.901536   2.722284
    29  H    7.756804   7.886393   7.040573   5.039519   4.653465
    30  H    6.918556   7.455356   7.005931   6.104114   5.372566
    31  H    4.889945   5.585746   5.508762   5.653047   4.648116
    32  H    3.508430   3.681787   3.494544   3.866420   2.709576
    33  H    5.709793   5.096034   3.879132   3.515230   4.825828
                   11         12         13         14         15
    11  C    0.000000
    12  C    1.390612   0.000000
    13  C    2.409868   1.383292   0.000000
    14  C    2.787944   2.399570   1.385115   0.000000
    15  C    2.410166   2.764432   2.393374   1.383725   0.000000
    16  C    1.388712   2.391370   2.763115   2.398635   1.384381
    17  N    4.577971   4.995188   5.972547   6.525620   6.227690
    18  H    2.803012   2.628406   2.944606   3.378278   3.524511
    19  H    3.563160   4.122290   4.277053   3.914504   3.332834
    20  H    5.072280   5.972629   6.038418   5.226966   4.177389
    21  H    5.935181   7.157626   7.588051   6.928868   5.666470
    22  H    5.660543   6.964777   7.804123   7.550785   6.379141
    23  H    4.371758   5.468235   6.539167   6.710068   5.864292
    24  H    3.461752   4.115150   5.428441   6.101669   5.690806
    25  H    2.860112   2.899280   4.179176   5.140516   5.124746
    26  H    2.130261   3.404523   4.539701   4.762132   3.955476
    27  H    2.134934   2.840983   4.143804   4.780357   4.395135
    28  H    2.143414   1.080014   2.133825   3.374811   3.844397
    29  H    3.385196   2.136045   1.079861   2.140869   3.373619
    30  H    3.867715   3.378442   2.141768   1.079796   2.141155
    31  H    3.384762   3.844515   3.374864   2.141093   1.080108
    32  H    2.140300   3.372979   3.844184   3.375801   2.137121
    33  H    5.279579   5.559267   6.387709   6.917874   6.712101
                   16         17         18         19         20
    16  C    0.000000
    17  N    5.295145   0.000000
    18  H    3.262515   3.460905   0.000000
    19  H    3.130472   4.088095   2.347824   0.000000
    20  H    4.082046   5.912460   4.782798   2.481683   0.000000
    21  H    5.076138   6.317046   6.326536   4.278627   2.466521
    22  H    5.319227   5.171639   6.324776   4.933819   4.274032
    23  H    4.638640   2.908125   4.749535   4.251901   4.933287
    24  H    4.453283   2.535784   4.087854   4.898399   6.447910
    25  H    4.145087   2.974751   3.186952   4.780360   6.780867
    26  H    2.573108   4.139547   4.063833   4.143326   5.077205
    27  H    3.194892   4.725237   4.379547   5.254567   6.580042
    28  H    3.373096   4.880099   2.991674   4.849161   6.857847
    29  H    3.842965   6.540478   3.471195   5.077281   6.955705
    30  H    3.378303   7.420816   4.113395   4.523834   5.662886
    31  H    2.136544   6.951650   4.329885   3.601190   3.804423
    32  H    1.081104   5.414407   3.953141   3.268363   3.619873
    33  H    5.926690   1.005471   3.642003   4.245974   6.132218
                   21         22         23         24         25
    21  H    0.000000
    22  H    2.465247   0.000000
    23  H    4.279698   2.485218   0.000000
    24  H    6.436883   4.901974   2.563723   0.000000
    25  H    7.348096   6.265447   4.026808   1.769333   0.000000
    26  H    5.007162   4.009231   2.762314   2.442251   3.067159
    27  H    6.750189   5.709918   4.139264   2.561791   2.455032
    28  H    7.935867   7.473739   5.694448   3.890744   2.373760
    29  H    8.612678   8.819713   7.428772   6.110758   4.657078
    30  H    7.556477   8.416078   7.694072   7.152646   6.135552
    31  H    5.360821   6.458923   6.343455   6.521462   6.113272
    32  H    4.184720   4.444008   4.175876   4.504363   4.614043
    33  H    6.728875   5.783921   3.710391   3.522701   3.727229
                   26         27         28         29         30
    26  H    0.000000
    27  H    1.765805   0.000000
    28  H    3.771060   2.804274   0.000000
    29  H    5.495414   4.899399   2.451898   0.000000
    30  H    5.820655   5.841937   4.265538   2.468546   0.000000
    31  H    4.618578   5.274035   4.924481   4.269764   2.470230
    32  H    2.309060   3.414501   4.269426   4.924032   4.267910
    33  H    5.052293   5.639771   5.445526   6.866618   7.725860
                   31         32         33
    31  H    0.000000
    32  H    2.454779   0.000000
    33  H    7.397981   6.097739   0.000000
 Stoichiometry    C14H16N2S
 Framework group  C1[X(C14H16N2S)]
 Deg. of freedom    93
 Full point group                 C1      NOp   1
 Largest Abelian subgroup         C1      NOp   1
 Largest concise Abelian subgroup C1      NOp   1
                         Standard orientation:                         
 ---------------------------------------------------------------------
 Center     Atomic      Atomic             Coordinates (Angstroms)
 Number     Number       Type             X           Y           Z
 ---------------------------------------------------------------------
      1          7           0       -0.403726   -1.584835   -1.676861
      2         16           0        0.613638   -1.625042   -0.534891
      3          6           0        1.446531   -0.015602   -0.276850
      4          6           0        1.131374    1.066239   -1.074766
      5          6           0        1.806464    2.263092   -0.897826
      6          6           0        2.790778    2.363442    0.071661
      7          6           0        3.116071    1.265537    0.853590
      8          6           0        2.446097    0.067339    0.674022
      9          6           0       -0.070533   -1.966151    1.150126
     10          6           0       -0.625951   -0.744491    1.865024
     11          6           0       -1.582939    0.039464    1.007751
     12          6           0       -2.705633   -0.567340    0.455349
     13          6           0       -3.566738    0.149347   -0.356042
     14          6           0       -3.321824    1.486512   -0.621655
     15          6           0       -2.218927    2.104771   -0.059455
     16          6           0       -1.357457    1.385502    0.751119
     17          7           0        1.654524   -2.734651   -0.659864
     18          1           0       -1.096755   -0.858601   -1.602610
     19          1           0        0.365194    0.964554   -1.828637
     20          1           0        1.563927    3.114855   -1.515587
     21          1           0        3.313834    3.297747    0.213026
     22          1           0        3.893565    1.343264    1.599153
     23          1           0        2.698906   -0.808142    1.251946
     24          1           0        0.754750   -2.420899    1.690065
     25          1           0       -0.833636   -2.720499    0.970476
     26          1           0        0.194942   -0.093394    2.173726
     27          1           0       -1.141876   -1.080384    2.771085
     28          1           0       -2.907541   -1.608869    0.657538
     29          1           0       -4.429786   -0.338096   -0.784582
     30          1           0       -3.990939    2.044191   -1.259808
     31          1           0       -2.024650    3.149518   -0.252834
     32          1           0       -0.499225    1.876237    1.188616
     33          1           0        1.841620   -3.010368   -1.608519
 ---------------------------------------------------------------------
 Rotational constants (GHZ):           0.6099995           0.4179342           0.3138400
 Standard basis: def2SVP (5D, 7F)
 There are   339 symmetry adapted cartesian basis functions of A   symmetry.
 There are   322 symmetry adapted basis functions of A   symmetry.
   322 basis functions,   549 primitive gaussians,   339 cartesian basis functions
    65 alpha electrons       65 beta electrons
       nuclear repulsion energy      1360.7521055731 Hartrees.
 NAtoms=   33 NActive=   33 NUniq=   33 SFac= 1.00D+00 NAtFMM=   60 NAOKFM=F Big=F
 Integral buffers will be    131072 words long.
 Raffenetti 2 integral format.
 Two-electron integral symmetry is turned on.
 Nuclear repulsion after empirical dispersion term =     1360.7065538289 Hartrees.
 One-electron integrals computed using PRISM.
   1 Symmetry operations used in ECPInt.
 ECPInt:  NShTT=   11628 NPrTT=   42474 LenC2=   11206 LenP2D=   29927.
 LDataN:  DoStor=T MaxTD1= 4 Len=   56
 NBasis=   322 RedAO= T EigKep=  2.30D-04  NBF=   322
 NBsUse=   322 1.00D-06 EigRej= -1.00D+00 NBFU=   322
 ExpMin= 1.22D-01 ExpMax= 9.18D+03 ExpMxC= 1.38D+03 IAcc=3 IRadAn=         5 AccDes= 0.00D+00
 Harris functional with IExCor= 1009 and IRadAn=       5 diagonalized for initial guess.
 HarFok:  IExCor= 1009 AccDes= 0.00D+00 IRadAn=         5 IDoV= 1 UseB2=F ITyADJ=14
 ICtDFT=  3500011 ScaDFX=  1.000000  1.000000  1.000000  1.000000
 FoFCou: FMM=F IPFlag=           0 FMFlag=      100000 FMFlg1=           0
         NFxFlg=           0 DoJE=T BraDBF=F KetDBF=T FulRan=T
         wScrn=  0.000000 ICntrl=       500 IOpCl=  0 I1Cent=   200000004 NGrid=           0
         NMat0=    1 NMatS0=      1 NMatT0=    0 NMatD0=    1 NMtDS0=    0 NMtDT0=    0
 Petite list used in FoFCou.
 Requested convergence on RMS density matrix=1.00D-08 within 128 cycles.
 Requested convergence on MAX density matrix=1.00D-06.
 Requested convergence on             energy=1.00D-06.
 No special actions if energy rises.
 Integral accuracy reduced to 1.0D-05 until final iterations.
 Initial convergence to 1.0D-05 achieved.  Increase integral accuracy.
 SCF Done:  E(RPBE1PBE) =  -1049.21661636     A.U. after   14 cycles
            NFock= 14  Conv=0.72D-08     -V/T= 2.0069

 **********************************************************************

            Population analysis using the SCF Density.

 **********************************************************************

 Orbital symmetries:
       Occupied  (A) (A) (A) (A) (A) (A) (A) (A) (A) (A) (A) (A)
                 (A) (A) (A) (A) (A) (A) (A) (A) (A) (A) (A) (A)
                 (A) (A) (A) (A) (A) (A) (A) (A) (A) (A) (A) (A)
                 (A) (A) (A) (A) (A) (A) (A) (A) (A) (A) (A) (A)
                 (A) (A) (A) (A) (A) (A) (A) (A) (A) (A) (A) (A)
                 (A) (A) (A) (A) (A)
       Virtual   (A) (A) (A) (A) (A) (A) (A) (A) (A) (A) (A) (A)
                 (A) (A) (A) (A) (A) (A) (A) (A) (A) (A) (A) (A)
                 (A) (A) (A) (A) (A) (A) (A) (A) (A) (A) (A) (A)
                 (A) (A) (A) (A) (A) (A) (A) (A) (A) (A) (A) (A)
                 (A) (A) (A) (A) (A) (A) (A) (A) (A) (A) (A) (A)
                 (A) (A) (A) (A) (A) (A) (A) (A) (A) (A) (A) (A)
                 (A) (A) (A) (A) (A) (A) (A) (A) (A) (A) (A) (A)
                 (A) (A) (A) (A) (A) (A) (A) (A) (A) (A) (A) (A)
                 (A) (A) (A) (A) (A) (A) (A) (A) (A) (A) (A) (A)
                 (A) (A) (A) (A) (A) (A) (A) (A) (A) (A) (A) (A)
                 (A) (A) (A) (A) (A) (A) (A) (A) (A) (A) (A) (A)
                 (A) (A) (A) (A) (A) (A) (A) (A) (A) (A) (A) (A)
                 (A) (A) (A) (A) (A) (A) (A) (A) (A) (A) (A) (A)
                 (A) (A) (A) (A) (A) (A) (A) (A) (A) (A) (A) (A)
                 (A) (A) (A) (A) (A) (A) (A) (A) (A) (A) (A) (A)
                 (A) (A) (A) (A) (A) (A) (A) (A) (A) (A) (A) (A)
                 (A) (A) (A) (A) (A) (A) (A) (A) (A) (A) (A) (A)
                 (A) (A) (A) (A) (A) (A) (A) (A) (A) (A) (A) (A)
                 (A) (A) (A) (A) (A) (A) (A) (A) (A) (A) (A) (A)
                 (A) (A) (A) (A) (A) (A) (A) (A) (A) (A) (A) (A)
                 (A) (A) (A) (A) (A) (A) (A) (A) (A) (A) (A) (A)
                 (A) (A) (A) (A) (A)
 The electronic state is 1-A.
 Alpha  occ. eigenvalues --  -89.17298 -14.33854 -14.32568 -10.26325 -10.26030
 Alpha  occ. eigenvalues --  -10.25444 -10.25421 -10.25324 -10.25235 -10.25234
 Alpha  occ. eigenvalues --  -10.25158 -10.25065 -10.24358 -10.24307 -10.24294
 Alpha  occ. eigenvalues --  -10.24233 -10.24206  -8.14715  -6.08831  -6.08763
 Alpha  occ. eigenvalues --   -6.08718  -0.99858  -0.89703  -0.89392  -0.84080
 Alpha  occ. eigenvalues --   -0.82916  -0.78686  -0.78212  -0.77311  -0.76112
 Alpha  occ. eigenvalues --   -0.68822  -0.65526  -0.63873  -0.63132  -0.61187
 Alpha  occ. eigenvalues --   -0.59300  -0.55731  -0.54094  -0.52019  -0.50131
 Alpha  occ. eigenvalues --   -0.49507  -0.48872  -0.48345  -0.47113  -0.46595
 Alpha  occ. eigenvalues --   -0.45772  -0.45211  -0.44201  -0.43227  -0.41895
 Alpha  occ. eigenvalues --   -0.40476  -0.39630  -0.38556  -0.38276  -0.37377
 Alpha  occ. eigenvalues --   -0.36027  -0.35794  -0.30085  -0.29340  -0.28725
 Alpha  occ. eigenvalues --   -0.27581  -0.26811  -0.26589  -0.24355  -0.23254
 Alpha virt. eigenvalues --   -0.03513  -0.02071  -0.01054  -0.00687   0.05253
 Alpha virt. eigenvalues --    0.06691   0.07802   0.08072   0.08507   0.09429
 Alpha virt. eigenvalues --    0.10179   0.10320   0.11820   0.12257   0.12810
 Alpha virt. eigenvalues --    0.13320   0.14188   0.14524   0.14970   0.16109
 Alpha virt. eigenvalues --    0.16809   0.17819   0.18550   0.19189   0.19641
 Alpha virt. eigenvalues --    0.20318   0.23863   0.25431   0.28506   0.28859
 Alpha virt. eigenvalues --    0.29301   0.30267   0.30513   0.31486   0.32389
 Alpha virt. eigenvalues --    0.33823   0.35693   0.37643   0.39123   0.40008
 Alpha virt. eigenvalues --    0.40465   0.41222   0.43350   0.43746   0.45297
 Alpha virt. eigenvalues --    0.45743   0.46057   0.47110   0.47630   0.47976
 Alpha virt. eigenvalues --    0.48571   0.49296   0.50458   0.51102   0.51616
 Alpha virt. eigenvalues --    0.52068   0.53348   0.54764   0.55728   0.56247
 Alpha virt. eigenvalues --    0.57737   0.58691   0.59324   0.61074   0.61324
 Alpha virt. eigenvalues --    0.62858   0.63656   0.64421   0.65140   0.65619
 Alpha virt. eigenvalues --    0.66218   0.66638   0.66914   0.67303   0.67457
 Alpha virt. eigenvalues --    0.68764   0.69368   0.69800   0.70138   0.70783
 Alpha virt. eigenvalues --    0.72062   0.72414   0.72857   0.73345   0.73783
 Alpha virt. eigenvalues --    0.74453   0.74701   0.75368   0.76131   0.76458
 Alpha virt. eigenvalues --    0.77442   0.78610   0.79293   0.79507   0.82245
 Alpha virt. eigenvalues --    0.83309   0.83503   0.84951   0.85461   0.87955
 Alpha virt. eigenvalues --    0.88373   0.89463   0.90401   0.91760   0.94231
 Alpha virt. eigenvalues --    0.95147   0.96464   0.97932   0.98639   1.00058
 Alpha virt. eigenvalues --    1.01651   1.03746   1.06149   1.08636   1.09890
 Alpha virt. eigenvalues --    1.11562   1.12972   1.15051   1.15732   1.17084
 Alpha virt. eigenvalues --    1.18634   1.20687   1.21815   1.22596   1.24382
 Alpha virt. eigenvalues --    1.25677   1.25998   1.27123   1.27822   1.29475
 Alpha virt. eigenvalues --    1.30013   1.31088   1.32192   1.33153   1.34064
 Alpha virt. eigenvalues --    1.35481   1.36110   1.41588   1.44826   1.47074
 Alpha virt. eigenvalues --    1.49504   1.51301   1.55084   1.55932   1.56971
 Alpha virt. eigenvalues --    1.57655   1.66385   1.67859   1.69026   1.69410
 Alpha virt. eigenvalues --    1.70490   1.70636   1.71501   1.72826   1.73851
 Alpha virt. eigenvalues --    1.74647   1.75927   1.76650   1.76907   1.77625
 Alpha virt. eigenvalues --    1.78469   1.78613   1.79683   1.79807   1.80054
 Alpha virt. eigenvalues --    1.81298   1.82073   1.82653   1.83543   1.85869
 Alpha virt. eigenvalues --    1.86083   1.87359   1.88679   1.91007   1.92255
 Alpha virt. eigenvalues --    1.93778   1.95573   1.96154   1.96922   1.97907
 Alpha virt. eigenvalues --    1.98537   1.99475   2.00159   2.01790   2.03336
 Alpha virt. eigenvalues --    2.03797   2.06875   2.08219   2.10839   2.12447
 Alpha virt. eigenvalues --    2.12739   2.15430   2.16084   2.17202   2.17776
 Alpha virt. eigenvalues --    2.19018   2.19567   2.20470   2.22737   2.24601
 Alpha virt. eigenvalues --    2.27721   2.28361   2.30019   2.31141   2.31742
 Alpha virt. eigenvalues --    2.32276   2.33383   2.34560   2.35906   2.36392
 Alpha virt. eigenvalues --    2.36783   2.39021   2.41808   2.42513   2.42929
 Alpha virt. eigenvalues --    2.44328   2.49915   2.50271   2.54799   2.55877
 Alpha virt. eigenvalues --    2.60455   2.61063   2.61698   2.63028   2.64927
 Alpha virt. eigenvalues --    2.65351   2.66090   2.66930   2.67165   2.69226
 Alpha virt. eigenvalues --    2.71121   2.75915   2.76200   2.76835   2.77897
 Alpha virt. eigenvalues --    2.83453   2.84895   2.86867   2.87971   2.89832
 Alpha virt. eigenvalues --    2.91124   2.93068   2.93555   2.96134   2.99620
 Alpha virt. eigenvalues --    3.03775   3.05155   3.06825   3.12984   3.16217
 Alpha virt. eigenvalues --    3.17442   3.24501   3.29196   3.29845   3.35719
 Alpha virt. eigenvalues --    3.65910   3.69041
          Condensed to atoms (all electrons):
               1          2          3          4          5          6
     1  N    6.848018   0.360730  -0.068251   0.006350   0.001190  -0.000023
     2  S    0.360730  14.713694   0.069879  -0.035994   0.005735   0.000028
     3  C   -0.068251   0.069879   6.008868   0.233251   0.109702  -0.203852
     4  C    0.006350  -0.035994   0.233251   5.131682   0.228595   0.112621
     5  C    0.001190   0.005735   0.109702   0.228595   5.130500   0.245896
     6  C   -0.000023   0.000028  -0.203852   0.112621   0.245896   5.156486
     7  C   -0.000015   0.001705   0.127556  -0.156041   0.097848   0.247028
     8  C    0.005549  -0.045790   0.134028   0.070854  -0.146451   0.109113
     9  C   -0.040554   0.242591  -0.125803   0.003762  -0.000166  -0.000190
    10  C   -0.006554  -0.036558   0.014595   0.002107   0.000583   0.000211
    11  C    0.002059  -0.015220  -0.008218  -0.001730   0.001095  -0.000070
    12  C    0.006804   0.000801   0.002564  -0.000440  -0.000173   0.000002
    13  C   -0.002562  -0.000251  -0.000282   0.000219   0.000030   0.000001
    14  C   -0.000055   0.000108  -0.000057  -0.000309  -0.000114  -0.000000
    15  C    0.000162  -0.000539  -0.000205  -0.000176   0.000902   0.000054
    16  C   -0.000652   0.005655   0.001457  -0.010695  -0.002749  -0.001137
    17  N   -0.062840   0.361906  -0.066565  -0.002247  -0.000084  -0.000050
    18  H    0.328099  -0.007342  -0.005751   0.004618   0.000680   0.000006
    19  H    0.020654  -0.006210  -0.076690   0.426687  -0.049580   0.013544
    20  H   -0.000003  -0.000141   0.018918  -0.074607   0.458128  -0.076598
    21  H   -0.000000   0.000019  -0.001770   0.015096  -0.070184   0.451700
    22  H    0.000001  -0.000143   0.017619  -0.002018   0.014711  -0.073931
    23  H    0.000436  -0.009903  -0.077519   0.013466  -0.001545   0.013569
    24  H    0.003548  -0.001219  -0.002845  -0.000742  -0.000014   0.000014
    25  H    0.005325  -0.015779   0.009067  -0.000035  -0.000010   0.000004
    26  H    0.000016  -0.012037   0.008977   0.000352  -0.000221  -0.000201
    27  H   -0.000164   0.005233  -0.000550  -0.000097   0.000004  -0.000010
    28  H    0.000520  -0.000404  -0.000003  -0.000035   0.000000  -0.000000
    29  H   -0.000004  -0.000013   0.000001  -0.000000   0.000000   0.000000
    30  H   -0.000004  -0.000000   0.000002  -0.000010  -0.000001  -0.000000
    31  H   -0.000001  -0.000006   0.000023   0.000096   0.000496   0.000027
    32  H    0.000004  -0.000114  -0.004992   0.003365  -0.001287   0.001973
    33  H    0.003295  -0.013184   0.002313   0.000441  -0.000026  -0.000000
               7          8          9         10         11         12
     1  N   -0.000015   0.005549  -0.040554  -0.006554   0.002059   0.006804
     2  S    0.001705  -0.045790   0.242591  -0.036558  -0.015220   0.000801
     3  C    0.127556   0.134028  -0.125803   0.014595  -0.008218   0.002564
     4  C   -0.156041   0.070854   0.003762   0.002107  -0.001730  -0.000440
     5  C    0.097848  -0.146451  -0.000166   0.000583   0.001095  -0.000173
     6  C    0.247028   0.109113  -0.000190   0.000211  -0.000070   0.000002
     7  C    5.095871   0.259658  -0.000804  -0.001311   0.000167   0.000017
     8  C    0.259658   5.187219  -0.006922  -0.003694  -0.001921  -0.000191
     9  C   -0.000804  -0.006922   5.237410   0.226392  -0.059450   0.000697
    10  C   -0.001311  -0.003694   0.226392   4.984752   0.273042  -0.132837
    11  C    0.000167  -0.001921  -0.059450   0.273042   5.620368   0.194541
    12  C    0.000017  -0.000191   0.000697  -0.132837   0.194541   5.230621
    13  C   -0.000001   0.000014  -0.000499   0.015497   0.111337   0.279806
    14  C    0.000001  -0.000003   0.000192  -0.000636  -0.175402   0.092797
    15  C   -0.000050   0.000064  -0.000835   0.013845   0.103772  -0.146161
    16  C    0.000411  -0.000551   0.004455  -0.077035   0.245204   0.067581
    17  N    0.000937   0.010579  -0.098343   0.007524   0.000523  -0.000092
    18  H   -0.000041  -0.000811  -0.002517  -0.002247   0.005489   0.000631
    19  H   -0.002237   0.016947   0.001488   0.000811  -0.001392  -0.001362
    20  H    0.014925  -0.002302   0.000013  -0.000022  -0.000014   0.000000
    21  H   -0.069929   0.015009  -0.000001   0.000003   0.000002  -0.000000
    22  H    0.456987  -0.074101   0.000053  -0.000037   0.000003  -0.000000
    23  H   -0.056683   0.449919   0.004395  -0.002769   0.000139  -0.000006
    24  H    0.000613   0.004124   0.343404  -0.016389   0.010345   0.000344
    25  H   -0.000003  -0.000018   0.340300   0.004498  -0.016692   0.008902
    26  H   -0.000199   0.003551  -0.007967   0.353425  -0.011595   0.012766
    27  H    0.000026   0.000009  -0.003567   0.345042  -0.008810  -0.008645
    28  H    0.000000   0.000000   0.004953  -0.018817  -0.079962   0.455982
    29  H   -0.000000  -0.000000   0.000010  -0.000302   0.016789  -0.071802
    30  H    0.000000  -0.000000  -0.000000   0.000038  -0.001672   0.014934
    31  H   -0.000003  -0.000009   0.000009  -0.000332   0.017768  -0.002053
    32  H    0.000951  -0.001009   0.000751  -0.020274  -0.066455   0.016589
    33  H   -0.000036  -0.001739   0.007952  -0.000356  -0.000059   0.000010
              13         14         15         16         17         18
     1  N   -0.002562  -0.000055   0.000162  -0.000652  -0.062840   0.328099
     2  S   -0.000251   0.000108  -0.000539   0.005655   0.361906  -0.007342
     3  C   -0.000282  -0.000057  -0.000205   0.001457  -0.066565  -0.005751
     4  C    0.000219  -0.000309  -0.000176  -0.010695  -0.002247   0.004618
     5  C    0.000030  -0.000114   0.000902  -0.002749  -0.000084   0.000680
     6  C    0.000001  -0.000000   0.000054  -0.001137  -0.000050   0.000006
     7  C   -0.000001   0.000001  -0.000050   0.000411   0.000937  -0.000041
     8  C    0.000014  -0.000003   0.000064  -0.000551   0.010579  -0.000811
     9  C   -0.000499   0.000192  -0.000835   0.004455  -0.098343  -0.002517
    10  C    0.015497  -0.000636   0.013845  -0.077035   0.007524  -0.002247
    11  C    0.111337  -0.175402   0.103772   0.245204   0.000523   0.005489
    12  C    0.279806   0.092797  -0.146161   0.067581  -0.000092   0.000631
    13  C    5.066757   0.260320   0.094382  -0.150265   0.000002   0.002592
    14  C    0.260320   5.141723   0.257915   0.098295  -0.000000   0.000413
    15  C    0.094382   0.257915   5.085365   0.277751   0.000002   0.000257
    16  C   -0.150265   0.098295   0.277751   5.133667  -0.000072  -0.002507
    17  N    0.000002  -0.000000   0.000002  -0.000072   6.912875   0.003741
    18  H    0.002592   0.000413   0.000257  -0.002507   0.003741   0.534456
    19  H    0.000383   0.000396   0.001073   0.001568  -0.000175   0.002727
    20  H   -0.000002   0.000007   0.000107   0.000139   0.000003  -0.000003
    21  H    0.000000  -0.000000  -0.000001  -0.000022  -0.000000  -0.000000
    22  H    0.000000  -0.000000  -0.000000  -0.000006  -0.000003   0.000000
    23  H    0.000000  -0.000000   0.000004  -0.000015   0.011894  -0.000080
    24  H   -0.000016  -0.000000   0.000008  -0.000067   0.013103  -0.000262
    25  H   -0.000198  -0.000012   0.000075  -0.000304   0.006240  -0.000409
    26  H   -0.000459   0.000000   0.000664  -0.014708   0.000176   0.000002
    27  H    0.000060   0.000137  -0.000819   0.005074  -0.000252   0.000003
    28  H   -0.061745   0.015353  -0.002113   0.015778  -0.000043  -0.000251
    29  H    0.455034  -0.073964   0.014950  -0.002004  -0.000000   0.000034
    30  H   -0.071069   0.452809  -0.071191   0.014976  -0.000000   0.000027
    31  H    0.014988  -0.076499   0.455250  -0.072877  -0.000000  -0.000006
    32  H   -0.002046   0.015149  -0.064216   0.444650  -0.000002  -0.000096
    33  H   -0.000000   0.000000  -0.000001   0.000012   0.331814  -0.000109
              19         20         21         22         23         24
     1  N    0.020654  -0.000003  -0.000000   0.000001   0.000436   0.003548
     2  S   -0.006210  -0.000141   0.000019  -0.000143  -0.009903  -0.001219
     3  C   -0.076690   0.018918  -0.001770   0.017619  -0.077519  -0.002845
     4  C    0.426687  -0.074607   0.015096  -0.002018   0.013466  -0.000742
     5  C   -0.049580   0.458128  -0.070184   0.014711  -0.001545  -0.000014
     6  C    0.013544  -0.076598   0.451700  -0.073931   0.013569   0.000014
     7  C   -0.002237   0.014925  -0.069929   0.456987  -0.056683   0.000613
     8  C    0.016947  -0.002302   0.015009  -0.074101   0.449919   0.004124
     9  C    0.001488   0.000013  -0.000001   0.000053   0.004395   0.343404
    10  C    0.000811  -0.000022   0.000003  -0.000037  -0.002769  -0.016389
    11  C   -0.001392  -0.000014   0.000002   0.000003   0.000139   0.010345
    12  C   -0.001362   0.000000  -0.000000  -0.000000  -0.000006   0.000344
    13  C    0.000383  -0.000002   0.000000   0.000000   0.000000  -0.000016
    14  C    0.000396   0.000007  -0.000000  -0.000000  -0.000000  -0.000000
    15  C    0.001073   0.000107  -0.000001  -0.000000   0.000004   0.000008
    16  C    0.001568   0.000139  -0.000022  -0.000006  -0.000015  -0.000067
    17  N   -0.000175   0.000003  -0.000000  -0.000003   0.011894   0.013103
    18  H    0.002727  -0.000003  -0.000000   0.000000  -0.000080  -0.000262
    19  H    0.651461  -0.011863  -0.000246   0.000039  -0.000173  -0.000088
    20  H   -0.011863   0.666401  -0.012279  -0.000262   0.000032   0.000000
    21  H   -0.000246  -0.012279   0.663224  -0.012270  -0.000237   0.000000
    22  H    0.000039  -0.000262  -0.012270   0.663042  -0.011616  -0.000021
    23  H   -0.000173   0.000032  -0.000237  -0.011616   0.640795   0.001440
    24  H   -0.000088   0.000000   0.000000  -0.000021   0.001440   0.579323
    25  H   -0.000092  -0.000000   0.000000  -0.000001  -0.000147  -0.005663
    26  H   -0.000047   0.000000  -0.000007   0.000105   0.001437  -0.009388
    27  H    0.000008   0.000000  -0.000000   0.000001   0.000013  -0.003405
    28  H    0.000000   0.000000  -0.000000   0.000000   0.000001  -0.000162
    29  H   -0.000002  -0.000000   0.000000  -0.000000  -0.000000  -0.000001
    30  H    0.000001   0.000000   0.000000   0.000000  -0.000000   0.000000
    31  H   -0.000016   0.000141   0.000000  -0.000000   0.000000  -0.000000
    32  H   -0.000216  -0.000092   0.000037  -0.000002  -0.000034  -0.000028
    33  H    0.000062  -0.000000   0.000000   0.000000  -0.000255  -0.000897
              25         26         27         28         29         30
     1  N    0.005325   0.000016  -0.000164   0.000520  -0.000004  -0.000004
     2  S   -0.015779  -0.012037   0.005233  -0.000404  -0.000013  -0.000000
     3  C    0.009067   0.008977  -0.000550  -0.000003   0.000001   0.000002
     4  C   -0.000035   0.000352  -0.000097  -0.000035  -0.000000  -0.000010
     5  C   -0.000010  -0.000221   0.000004   0.000000   0.000000  -0.000001
     6  C    0.000004  -0.000201  -0.000010  -0.000000   0.000000  -0.000000
     7  C   -0.000003  -0.000199   0.000026   0.000000  -0.000000   0.000000
     8  C   -0.000018   0.003551   0.000009   0.000000  -0.000000  -0.000000
     9  C    0.340300  -0.007967  -0.003567   0.004953   0.000010  -0.000000
    10  C    0.004498   0.353425   0.345042  -0.018817  -0.000302   0.000038
    11  C   -0.016692  -0.011595  -0.008810  -0.079962   0.016789  -0.001672
    12  C    0.008902   0.012766  -0.008645   0.455982  -0.071802   0.014934
    13  C   -0.000198  -0.000459   0.000060  -0.061745   0.455034  -0.071069
    14  C   -0.000012   0.000000   0.000137   0.015353  -0.073964   0.452809
    15  C    0.000075   0.000664  -0.000819  -0.002113   0.014950  -0.071191
    16  C   -0.000304  -0.014708   0.005074   0.015778  -0.002004   0.014976
    17  N    0.006240   0.000176  -0.000252  -0.000043  -0.000000  -0.000000
    18  H   -0.000409   0.000002   0.000003  -0.000251   0.000034   0.000027
    19  H   -0.000092  -0.000047   0.000008   0.000000  -0.000002   0.000001
    20  H   -0.000000   0.000000   0.000000   0.000000  -0.000000   0.000000
    21  H    0.000000  -0.000007  -0.000000  -0.000000   0.000000   0.000000
    22  H   -0.000001   0.000105   0.000001   0.000000  -0.000000   0.000000
    23  H   -0.000147   0.001437   0.000013   0.000001  -0.000000  -0.000000
    24  H   -0.005663  -0.009388  -0.003405  -0.000162  -0.000001   0.000000
    25  H    0.580516   0.005901  -0.011116   0.001774   0.000013  -0.000000
    26  H    0.005901   0.646158  -0.020393   0.000138   0.000010  -0.000001
    27  H   -0.011116  -0.020393   0.633308   0.002815   0.000000  -0.000001
    28  H    0.001774   0.000138   0.002815   0.674292  -0.013115  -0.000283
    29  H    0.000013   0.000010   0.000000  -0.013115   0.667974  -0.012328
    30  H   -0.000000  -0.000001  -0.000001  -0.000283  -0.012328   0.669100
    31  H    0.000000  -0.000009   0.000010   0.000035  -0.000290  -0.012542
    32  H   -0.000014   0.008861   0.000234  -0.000247   0.000032  -0.000282
    33  H   -0.000388  -0.000005   0.000015   0.000001   0.000000  -0.000000
              31         32         33
     1  N   -0.000001   0.000004   0.003295
     2  S   -0.000006  -0.000114  -0.013184
     3  C    0.000023  -0.004992   0.002313
     4  C    0.000096   0.003365   0.000441
     5  C    0.000496  -0.001287  -0.000026
     6  C    0.000027   0.001973  -0.000000
     7  C   -0.000003   0.000951  -0.000036
     8  C   -0.000009  -0.001009  -0.001739
     9  C    0.000009   0.000751   0.007952
    10  C   -0.000332  -0.020274  -0.000356
    11  C    0.017768  -0.066455  -0.000059
    12  C   -0.002053   0.016589   0.000010
    13  C    0.014988  -0.002046  -0.000000
    14  C   -0.076499   0.015149   0.000000
    15  C    0.455250  -0.064216  -0.000001
    16  C   -0.072877   0.444650   0.000012
    17  N   -0.000000  -0.000002   0.331814
    18  H   -0.000006  -0.000096  -0.000109
    19  H   -0.000016  -0.000216   0.000062
    20  H    0.000141  -0.000092  -0.000000
    21  H    0.000000   0.000037   0.000000
    22  H   -0.000000  -0.000002   0.000000
    23  H    0.000000  -0.000034  -0.000255
    24  H   -0.000000  -0.000028  -0.000897
    25  H    0.000000  -0.000014  -0.000388
    26  H   -0.000009   0.008861  -0.000005
    27  H    0.000010   0.000234   0.000015
    28  H    0.000035  -0.000247   0.000001
    29  H   -0.000290   0.000032   0.000000
    30  H   -0.012542  -0.000282  -0.000000
    31  H    0.676256  -0.013170   0.000000
    32  H   -0.013170   0.671920   0.000000
    33  H    0.000000   0.000000   0.544569
 Mulliken charges:
               1
     1  N   -0.411077
     2  S    0.432765
     3  C   -0.115470
     4  C    0.031612
     5  C   -0.023492
     6  C    0.003786
     7  C   -0.017350
     8  C    0.018874
     9  C   -0.071209
    10  C    0.077806
    11  C   -0.153979
    12  C   -0.022627
    13  C   -0.012030
    14  C   -0.008564
    15  C   -0.020296
    16  C    0.018992
    17  N   -0.430552
    18  H    0.138658
    19  H    0.012536
    20  H    0.019370
    21  H    0.021855
    22  H    0.021847
    23  H    0.023442
    24  H    0.084943
    25  H    0.088268
    26  H    0.034697
    27  H    0.065837
    28  H    0.005539
    29  H    0.018976
    30  H    0.017498
    31  H    0.012717
    32  H    0.010060
    33  H    0.126571
 Sum of Mulliken charges =  -0.00000
 Mulliken charges with hydrogens summed into heavy atoms:
               1
     1  N   -0.272420
     2  S    0.432765
     3  C   -0.115470
     4  C    0.044148
     5  C   -0.004122
     6  C    0.025640
     7  C    0.004498
     8  C    0.042316
     9  C    0.102001
    10  C    0.178340
    11  C   -0.153979
    12  C   -0.017088
    13  C    0.006946
    14  C    0.008934
    15  C   -0.007579
    16  C    0.029052
    17  N   -0.303981
 Electronic spatial extent (au):  <R**2>=           3840.9155
 Charge=              0.0000 electrons
 Dipole moment (field-independent basis, Debye):
    X=             -0.7588    Y=              3.5429    Z=              2.2506  Tot=              4.2654
 Quadrupole moment (field-independent basis, Debye-Ang):
   XX=           -103.5762   YY=           -108.7196   ZZ=           -107.4375
   XY=              7.4969   XZ=              4.3903   YZ=             -7.8791
 Traceless Quadrupole moment (field-independent basis, Debye-Ang):
   XX=              3.0016   YY=             -2.1418   ZZ=             -0.8598
   XY=              7.4969   XZ=              4.3903   YZ=             -7.8791
 Octapole moment (field-independent basis, Debye-Ang**2):
  XXX=             -8.8753  YYY=             35.4658  ZZZ=              6.8970  XYY=             -5.5179
  XXY=              9.4883  XXZ=             -4.9722  XZZ=             10.7302  YZZ=             -3.8685
  YYZ=             -0.2789  XYZ=             15.2151
 Hexadecapole moment (field-independent basis, Debye-Ang**3):
 XXXX=          -2726.5298 YYYY=          -1753.1748 ZZZZ=           -723.9092 XXXY=             64.5418
 XXXZ=            124.8513 YYYX=             64.9128 YYYZ=            -24.1083 ZZZX=             -1.1505
 ZZZY=            -18.3953 XXYY=           -730.8647 XXZZ=           -568.6154 YYZZ=           -397.3072
 XXYZ=             -0.7552 YYXZ=            -13.0834 ZZXY=            -20.5287
 N-N= 1.360706553829D+03 E-N=-5.175275621244D+03  KE= 1.042050023336D+03
   1 Symmetry operations used in ECPInt.
 ECPInt:  NShTT=   11628 NPrTT=   42474 LenC2=   11206 LenP2D=   29927.
 LDataN:  DoStor=T MaxTD1= 5 Len=  102
 Calling FoFJK, ICntrl=      2127 FMM=F ISym2X=0 I1Cent= 0 IOpClX= 0 NMat=1 NMatS=1 NMatT=0.
 ***** Axes restored to original set *****
 -------------------------------------------------------------------
 Center     Atomic                   Forces (Hartrees/Bohr)
 Number     Number              X              Y              Z
 -------------------------------------------------------------------
      1        7           0.000324614    0.001330235   -0.007270828
      2       16           0.010685269   -0.001916354   -0.000596969
      3        6           0.002937565   -0.009200328   -0.006384636
      4        6           0.000266132   -0.000000830   -0.003086233
      5        6           0.000856853    0.000136436   -0.000092838
      6        6          -0.001065426    0.000791280    0.000092911
      7        6           0.000412834   -0.001217871    0.000577235
      8        6           0.001543147    0.000762372    0.001497235
      9        6          -0.012555097    0.012123615    0.002498909
     10        6          -0.000233451    0.000507702   -0.009184445
     11        6           0.003738896   -0.000886755    0.008006651
     12        6          -0.001166079   -0.000442995    0.000430217
     13        6           0.000685597   -0.001164749   -0.000914472
     14        6          -0.001319732    0.000627646   -0.000665195
     15        6          -0.001073036    0.000331845    0.000069191
     16        6          -0.001240843   -0.001336602    0.000963120
     17        7           0.011576628   -0.006122876    0.020703572
     18        1          -0.012241513   -0.003697476    0.002502865
     19        1          -0.003044284   -0.003351877   -0.007893624
     20        1          -0.007678008    0.003343817   -0.003755773
     21        1          -0.004590579    0.006490459    0.004441717
     22        1           0.003309325    0.003146092    0.007802572
     23        1           0.008922788   -0.002338339    0.004287241
     24        1           0.007345826    0.001744411    0.003785896
     25        1           0.003544192   -0.003230854   -0.007749168
     26        1          -0.000625791    0.002102041    0.004048926
     27        1           0.001799720   -0.003544872    0.003861955
     28        1           0.007266149   -0.005562124   -0.001809184
     29        1          -0.000211360   -0.006371507   -0.006602257
     30        1          -0.007330067   -0.000645691   -0.005518355
     31        1          -0.007081655    0.005621734    0.001195589
     32        1           0.000879798    0.005863357    0.005679884
     33        1          -0.004638412    0.006109058   -0.010921706
 -------------------------------------------------------------------
 Cartesian Forces:  Max     0.020703572 RMS     0.005326863

 GradGradGradGradGradGradGradGradGradGradGradGradGradGradGradGradGradGrad
 Berny optimization.
 FormGI is forming the generalized inverse of G from B-inverse, IUseBI=4.
 Internal  Forces:  Max     0.017272882 RMS     0.004739730
 Search for a local minimum.
 Step number   1 out of a maximum of  184
 All quantities printed in internal units (Hartrees-Bohrs-Radians)
 Mixed Optimization -- RFO/linear search
 Second derivative matrix not updated -- first step.
 ITU=  0
     Eigenvalues ---    0.00230   0.00230   0.00494   0.00698   0.01513
     Eigenvalues ---    0.01607   0.02234   0.02260   0.02268   0.02274
     Eigenvalues ---    0.02278   0.02282   0.02283   0.02285   0.02293
     Eigenvalues ---    0.02295   0.02297   0.02300   0.02301   0.02309
     Eigenvalues ---    0.02312   0.02331   0.03485   0.03546   0.03591
     Eigenvalues ---    0.04223   0.04702   0.05538   0.06513   0.08082
     Eigenvalues ---    0.08629   0.09244   0.09350   0.12306   0.12830
     Eigenvalues ---    0.15998   0.15999   0.16000   0.16000   0.16000
     Eigenvalues ---    0.16000   0.16000   0.16000   0.16000   0.16000
     Eigenvalues ---    0.16000   0.16000   0.16652   0.19401   0.21981
     Eigenvalues ---    0.21998   0.21999   0.21999   0.21999   0.22021
     Eigenvalues ---    0.22522   0.23473   0.23474   0.23857   0.24945
     Eigenvalues ---    0.25000   0.30315   0.31848   0.34194   0.34550
     Eigenvalues ---    0.35050   0.35278   0.35861   0.35981   0.35989
     Eigenvalues ---    0.35993   0.35994   0.36011   0.36019   0.36019
     Eigenvalues ---    0.36034   0.36108   0.43390   0.43439   0.43590
     Eigenvalues ---    0.43795   0.46549   0.46739   0.47563   0.47880
     Eigenvalues ---    0.48051   0.48214   0.48320   0.48433   0.48462
     Eigenvalues ---    0.48770   0.67556   0.68521
 RFO step:  Lambda=-1.45590756D-02 EMin= 2.30000000D-03
 Linear search not attempted -- first point.
 Iteration  1 RMS(Cart)=  0.22993575 RMS(Int)=  0.00406980
 Iteration  2 RMS(Cart)=  0.01233758 RMS(Int)=  0.00027978
 Iteration  3 RMS(Cart)=  0.00004918 RMS(Int)=  0.00027927
 Iteration  4 RMS(Cart)=  0.00000001 RMS(Int)=  0.00027927
 Variable       Old X    -DE/DX   Delta X   Delta X   Delta X     New X
                                 (Linear)    (Quad)   (Total)
    R1        2.89118   0.00959   0.00000   0.01390   0.01390   2.90508
    R2        1.90217   0.01288   0.00000   0.02682   0.02682   1.92900
    R3        3.45907  -0.00323   0.00000  -0.01275  -0.01275   3.44632
    R4        3.49662  -0.00595   0.00000  -0.02480  -0.02480   3.47182
    R5        2.88472   0.00613   0.00000   0.00876   0.00876   2.89349
    R6        2.60917   0.00923   0.00000   0.01843   0.01844   2.62761
    R7        2.61177   0.01211   0.00000   0.02434   0.02435   2.63612
    R8        2.61815   0.00914   0.00000   0.01835   0.01835   2.63650
    R9        2.04029   0.00910   0.00000   0.02426   0.02426   2.06455
   R10        2.61770   0.00981   0.00000   0.01956   0.01955   2.63725
   R11        2.04051   0.00918   0.00000   0.02449   0.02449   2.06500
   R12        2.62027   0.01040   0.00000   0.02096   0.02094   2.64121
   R13        2.04099   0.00911   0.00000   0.02432   0.02432   2.06531
   R14        2.61629   0.00874   0.00000   0.01766   0.01766   2.63395
   R15        2.04091   0.00904   0.00000   0.02413   0.02413   2.06504
   R16        2.03913   0.01007   0.00000   0.02681   0.02681   2.06594
   R17        2.87339   0.00546   0.00000   0.01719   0.01719   2.89059
   R18        2.05227   0.00832   0.00000   0.02265   0.02265   2.07491
   R19        2.05593   0.00771   0.00000   0.02111   0.02111   2.07704
   R20        2.84423   0.00537   0.00000   0.01611   0.01611   2.86034
   R21        2.06412   0.00427   0.00000   0.01187   0.01187   2.07599
   R22        2.07005   0.00523   0.00000   0.01467   0.01467   2.08472
   R23        2.62788   0.01062   0.00000   0.02175   0.02176   2.64964
   R24        2.62428   0.00964   0.00000   0.01960   0.01961   2.64389
   R25        2.61404   0.01000   0.00000   0.02004   0.02004   2.63408
   R26        2.04093   0.00931   0.00000   0.02485   0.02485   2.06578
   R27        2.61749   0.01038   0.00000   0.02101   0.02100   2.63848
   R28        2.04064   0.00918   0.00000   0.02449   0.02449   2.06514
   R29        2.61486   0.00972   0.00000   0.01955   0.01954   2.63441
   R30        2.04052   0.00920   0.00000   0.02454   0.02454   2.06506
   R31        2.61610   0.01058   0.00000   0.02125   0.02125   2.63735
   R32        2.04111   0.00912   0.00000   0.02436   0.02436   2.06547
   R33        2.04299   0.00817   0.00000   0.02189   0.02189   2.06488
   R34        1.90006   0.01091   0.00000   0.02264   0.02264   1.92270
    A1        2.00614  -0.00378   0.00000  -0.02166  -0.02166   1.98449
    A2        1.96566  -0.00509   0.00000  -0.03339  -0.03338   1.93229
    A3        2.02494  -0.00200   0.00000  -0.01143  -0.01168   2.01326
    A4        1.99480   0.00774   0.00000   0.05789   0.05799   2.05279
    A5        1.77415   0.00499   0.00000   0.00966   0.00940   1.78355
    A6        1.91813  -0.00222   0.00000  -0.01394  -0.01374   1.90440
    A7        1.76468  -0.00366   0.00000  -0.01249  -0.01252   1.75216
    A8        2.09856  -0.00277   0.00000  -0.01134  -0.01148   2.08707
    A9        2.07012   0.00160   0.00000   0.00519   0.00502   2.07514
   A10        2.11257   0.00112   0.00000   0.00435   0.00424   2.11681
   A11        2.08500  -0.00088   0.00000  -0.00355  -0.00353   2.08147
   A12        2.08484   0.00046   0.00000   0.00191   0.00190   2.08673
   A13        2.11334   0.00042   0.00000   0.00164   0.00163   2.11497
   A14        2.09232   0.00056   0.00000   0.00194   0.00193   2.09426
   A15        2.09315  -0.00043   0.00000  -0.00184  -0.00184   2.09131
   A16        2.09771  -0.00013   0.00000  -0.00009  -0.00009   2.09762
   A17        2.09904   0.00009   0.00000  -0.00014  -0.00016   2.09888
   A18        2.09255  -0.00002   0.00000   0.00022   0.00023   2.09278
   A19        2.09155  -0.00008   0.00000  -0.00013  -0.00012   2.09143
   A20        2.09278   0.00025   0.00000   0.00116   0.00114   2.09391
   A21        2.09578   0.00008   0.00000   0.00059   0.00057   2.09635
   A22        2.09462  -0.00033   0.00000  -0.00179  -0.00181   2.09281
   A23        2.08421  -0.00115   0.00000  -0.00413  -0.00410   2.08011
   A24        2.08200   0.00189   0.00000   0.00958   0.00957   2.09157
   A25        2.11686  -0.00074   0.00000  -0.00551  -0.00552   2.11134
   A26        1.99886   0.01727   0.00000   0.07773   0.07748   2.07633
   A27        1.82241  -0.00701   0.00000  -0.02635  -0.02773   1.79468
   A28        1.80987  -0.00804   0.00000  -0.04560  -0.04578   1.76409
   A29        1.96087  -0.00222   0.00000   0.00720   0.00705   1.96792
   A30        1.95897  -0.00273   0.00000  -0.00840  -0.00738   1.95159
   A31        1.90158   0.00190   0.00000  -0.01134  -0.01231   1.88927
   A32        1.96378   0.01181   0.00000   0.05652   0.05596   2.01974
   A33        1.91482  -0.00205   0.00000   0.00677   0.00537   1.92019
   A34        1.89080  -0.00478   0.00000  -0.03448  -0.03400   1.85679
   A35        1.90534  -0.00229   0.00000   0.01109   0.00978   1.91513
   A36        1.90855  -0.00383   0.00000  -0.02544  -0.02472   1.88383
   A37        1.87861   0.00069   0.00000  -0.01811  -0.01821   1.86040
   A38        2.10866  -0.00003   0.00000   0.00011   0.00005   2.10871
   A39        2.10236   0.00160   0.00000   0.00629   0.00623   2.10858
   A40        2.07216  -0.00157   0.00000  -0.00635  -0.00638   2.06579
   A41        2.10540   0.00105   0.00000   0.00422   0.00423   2.10963
   A42        2.09137  -0.00027   0.00000  -0.00063  -0.00064   2.09072
   A43        2.08642  -0.00079   0.00000  -0.00362  -0.00364   2.08278
   A44        2.09737  -0.00008   0.00000  -0.00027  -0.00027   2.09711
   A45        2.09027   0.00001   0.00000  -0.00005  -0.00005   2.09023
   A46        2.09553   0.00007   0.00000   0.00032   0.00032   2.09585
   A47        2.08790  -0.00050   0.00000  -0.00197  -0.00198   2.08592
   A48        2.09711   0.00020   0.00000   0.00067   0.00068   2.09779
   A49        2.09817   0.00030   0.00000   0.00129   0.00129   2.09946
   A50        2.09640   0.00005   0.00000   0.00017   0.00017   2.09657
   A51        2.09763  -0.00011   0.00000  -0.00057  -0.00057   2.09706
   A52        2.08915   0.00006   0.00000   0.00039   0.00039   2.08954
   A53        2.10686   0.00104   0.00000   0.00407   0.00408   2.11094
   A54        2.08758  -0.00102   0.00000  -0.00491  -0.00493   2.08265
   A55        2.08874  -0.00002   0.00000   0.00084   0.00082   2.08957
   A56        1.98607  -0.01353   0.00000  -0.07749  -0.07749   1.90858
    D1       -0.93986  -0.00085   0.00000   0.00512   0.00471  -0.93514
    D2        1.09427   0.00048   0.00000  -0.01542  -0.01529   1.07898
    D3        3.13810   0.00007   0.00000   0.00423   0.00450  -3.14058
    D4       -0.00186  -0.00279   0.00000  -0.04902  -0.04902  -0.05088
    D5       -3.07727  -0.00191   0.00000  -0.01847  -0.01855  -3.09582
    D6       -2.18063  -0.00086   0.00000  -0.02340  -0.02340  -2.20403
    D7        1.02714   0.00002   0.00000   0.00715   0.00707   1.03421
    D8        2.24393   0.00173   0.00000  -0.00926  -0.00914   2.23479
    D9       -0.83148   0.00261   0.00000   0.02129   0.02133  -0.81015
   D10       -1.45411   0.00510   0.00000   0.12058   0.12070  -1.33341
   D11        2.67730   0.00242   0.00000   0.08318   0.08368   2.76098
   D12        0.68645   0.00614   0.00000   0.12353   0.12280   0.80924
   D13        0.68446   0.00120   0.00000   0.07955   0.07969   0.76415
   D14       -1.46732  -0.00149   0.00000   0.04216   0.04267  -1.42465
   D15        2.82501   0.00224   0.00000   0.08250   0.08179   2.90680
   D16        2.66097  -0.00079   0.00000   0.06377   0.06398   2.72496
   D17        0.50920  -0.00347   0.00000   0.02637   0.02696   0.53616
   D18       -1.48166   0.00026   0.00000   0.06672   0.06608  -1.41557
   D19        0.48120   0.00104   0.00000   0.02656   0.02645   0.50765
   D20       -1.74853   0.00362   0.00000   0.03717   0.03721  -1.71132
   D21        2.66966   0.00039   0.00000   0.03632   0.03639   2.70606
   D22       -3.10052   0.00068   0.00000   0.02281   0.02270  -3.07782
   D23        0.03744   0.00063   0.00000   0.02165   0.02157   0.05901
   D24       -0.02674  -0.00021   0.00000  -0.00849  -0.00851  -0.03525
   D25        3.11122  -0.00026   0.00000  -0.00964  -0.00964   3.10158
   D26        3.10626  -0.00052   0.00000  -0.01503  -0.01520   3.09106
   D27       -0.01951  -0.00034   0.00000  -0.01149  -0.01161  -0.03112
   D28        0.03141   0.00052   0.00000   0.01639   0.01642   0.04783
   D29       -3.09437   0.00069   0.00000   0.01993   0.02001  -3.07436
   D30        0.00311  -0.00016   0.00000  -0.00264  -0.00266   0.00045
   D31       -3.13827  -0.00007   0.00000  -0.00112  -0.00112  -3.13939
   D32       -3.13479  -0.00011   0.00000  -0.00146  -0.00151  -3.13630
   D33        0.00701  -0.00002   0.00000   0.00005   0.00003   0.00704
   D34        0.01547   0.00020   0.00000   0.00562   0.00564   0.02111
   D35       -3.13639   0.00003   0.00000   0.00034   0.00037  -3.13603
   D36       -3.12633   0.00011   0.00000   0.00410   0.00409  -3.12224
   D37        0.00499  -0.00005   0.00000  -0.00118  -0.00119   0.00381
   D38       -0.01077   0.00013   0.00000   0.00236   0.00240  -0.00837
   D39        3.12662  -0.00031   0.00000  -0.00940  -0.00940   3.11722
   D40        3.14108   0.00029   0.00000   0.00764   0.00767  -3.13443
   D41       -0.00471  -0.00015   0.00000  -0.00412  -0.00413  -0.00884
   D42       -0.01243  -0.00045   0.00000  -0.01314  -0.01315  -0.02558
   D43        3.11302  -0.00061   0.00000  -0.01661  -0.01664   3.09638
   D44        3.13336  -0.00002   0.00000  -0.00139  -0.00138   3.13198
   D45       -0.02438  -0.00017   0.00000  -0.00486  -0.00487  -0.02925
   D46        0.87521   0.00191   0.00000   0.07196   0.07211   0.94732
   D47       -1.24957  -0.00171   0.00000   0.01469   0.01432  -1.23525
   D48        2.98733   0.00135   0.00000   0.05242   0.05202   3.03934
   D49        2.95063   0.00349   0.00000   0.09880   0.09955   3.05018
   D50        0.82584  -0.00014   0.00000   0.04152   0.04177   0.86761
   D51       -1.22044   0.00293   0.00000   0.07925   0.07946  -1.14098
   D52       -1.18238   0.00224   0.00000   0.08290   0.08306  -1.09932
   D53        2.97603  -0.00139   0.00000   0.02563   0.02528   3.00130
   D54        0.92974   0.00167   0.00000   0.06336   0.06297   0.99271
   D55        0.98496  -0.00167   0.00000  -0.03520  -0.03556   0.94940
   D56       -2.15389  -0.00224   0.00000  -0.05395  -0.05436  -2.20824
   D57        3.11511   0.00201   0.00000   0.01911   0.01946   3.13457
   D58       -0.02373   0.00144   0.00000   0.00036   0.00065  -0.02308
   D59       -1.11697  -0.00068   0.00000  -0.01096  -0.01087  -1.12783
   D60        2.02737  -0.00125   0.00000  -0.02970  -0.02967   1.99771
   D61       -3.11656  -0.00038   0.00000  -0.01190  -0.01185  -3.12841
   D62        0.02138  -0.00065   0.00000  -0.01946  -0.01942   0.00196
   D63        0.02233   0.00019   0.00000   0.00655   0.00652   0.02886
   D64       -3.12291  -0.00009   0.00000  -0.00101  -0.00105  -3.12397
   D65        3.11782   0.00043   0.00000   0.01331   0.01332   3.13114
   D66       -0.02280   0.00069   0.00000   0.02038   0.02038  -0.00242
   D67       -0.02109  -0.00013   0.00000  -0.00506  -0.00504  -0.02613
   D68        3.12148   0.00013   0.00000   0.00201   0.00202   3.12350
   D69       -0.00604  -0.00014   0.00000  -0.00408  -0.00407  -0.01011
   D70        3.13238  -0.00009   0.00000  -0.00276  -0.00276   3.12962
   D71        3.13920   0.00014   0.00000   0.00346   0.00346  -3.14053
   D72       -0.00557   0.00018   0.00000   0.00478   0.00478  -0.00079
   D73       -0.01186   0.00000   0.00000  -0.00009  -0.00010  -0.01196
   D74        3.13523   0.00004   0.00000   0.00125   0.00124   3.13647
   D75        3.13291  -0.00004   0.00000  -0.00141  -0.00142   3.13150
   D76       -0.00318  -0.00000   0.00000  -0.00007  -0.00008  -0.00326
   D77        0.01312   0.00005   0.00000   0.00157   0.00157   0.01468
   D78       -3.13128  -0.00002   0.00000  -0.00018  -0.00018  -3.13146
   D79       -3.13398   0.00001   0.00000   0.00023   0.00022  -3.13376
   D80        0.00481  -0.00006   0.00000  -0.00153  -0.00153   0.00329
   D81        0.00352   0.00003   0.00000   0.00110   0.00111   0.00463
   D82       -3.13905  -0.00023   0.00000  -0.00598  -0.00598   3.13816
   D83       -3.13528   0.00010   0.00000   0.00285   0.00285  -3.13243
   D84        0.00533  -0.00016   0.00000  -0.00423  -0.00424   0.00110
         Item               Value     Threshold  Converged?
 Maximum Force            0.017273     0.000450     NO 
[...]
     7  C   -0.000001  -0.000000   0.000035   0.000005  -0.002239   0.000318
     8  C    0.000029  -0.000022  -0.000035   0.000449   0.024817  -0.004447
     9  C    0.000260   0.000798  -0.000334   0.004319  -0.101402  -0.004234
    10  C    0.017640  -0.003973   0.013018  -0.073553   0.010494  -0.005569
    11  C    0.027891  -0.107366   0.026068   0.401952   0.000065   0.010633
    12  C    0.432810   0.043465  -0.081705  -0.005867  -0.000511  -0.010972
    13  C    4.880738   0.459405   0.015960  -0.082725   0.000007   0.002016
    14  C    0.459405   4.895519   0.466087   0.033935   0.000003   0.000052
    15  C    0.015960   0.466087   4.909163   0.433633  -0.000017   0.000563
    16  C   -0.082725   0.033935   0.433633   5.073040   0.000416   0.003643
    17  N    0.000007   0.000003  -0.000017   0.000416   6.889853   0.007158
    18  H    0.002016   0.000052   0.000563   0.003643   0.007158   0.457865
    19  H    0.000316   0.000377  -0.001583   0.006648   0.000104   0.001907
    20  H    0.000001  -0.000006   0.000067  -0.000196   0.000016  -0.000023
    21  H   -0.000000  -0.000000   0.000000  -0.000011  -0.000000  -0.000001
    22  H    0.000000   0.000000  -0.000000   0.000010  -0.000057   0.000002
    23  H    0.000002  -0.000001   0.000002  -0.000066   0.018807  -0.000163
    24  H   -0.000139   0.000008  -0.000001  -0.000192   0.005470  -0.000565
    25  H    0.000103   0.000007  -0.000046   0.001018   0.009257   0.000930
    26  H   -0.000378   0.000020   0.001247   0.009333   0.000167   0.000131
    27  H   -0.000017   0.000378  -0.001076  -0.003370  -0.000373  -0.000039
    28  H   -0.044603   0.011168  -0.002696   0.013096  -0.000106  -0.000263
    29  H    0.425792  -0.052534   0.010505  -0.001977   0.000000   0.000015
    30  H   -0.048726   0.423469  -0.050790   0.010135   0.000000  -0.000002
    31  H    0.010731  -0.050748   0.428156  -0.056007  -0.000000  -0.000051
    32  H   -0.002396   0.009540  -0.048380   0.418730  -0.000008  -0.000206
    33  H    0.000000  -0.000001   0.000001  -0.000019   0.311386   0.000067
              19         20         21         22         23         24
     1  N    0.020411  -0.000007   0.000000   0.000002   0.001656   0.004445
     2  S   -0.003515  -0.000135   0.000024  -0.000256   0.004785  -0.014713
     3  C   -0.071981   0.013866  -0.004071   0.014207  -0.081843   0.004228
     4  C    0.418209  -0.055211   0.012426  -0.002123   0.013058  -0.002763
     5  C   -0.044996   0.427612  -0.052060   0.010562  -0.003819  -0.000030
     6  C    0.011137  -0.052440   0.427364  -0.054208   0.012209  -0.000006
     7  C   -0.003993   0.010309  -0.053348   0.428352  -0.062363   0.001119
     8  C    0.015742  -0.002150   0.011997  -0.053845   0.448801  -0.000034
     9  C    0.002791   0.000041  -0.000014   0.000244  -0.001378   0.383952
    10  C    0.001534  -0.000114   0.000026  -0.000119   0.001041  -0.049779
    11  C   -0.006480   0.000107  -0.000001   0.000000  -0.000269   0.016846
    12  C   -0.001277  -0.000002   0.000000  -0.000000  -0.000035   0.000226
    13  C    0.000316   0.000001  -0.000000   0.000000   0.000002  -0.000139
    14  C    0.000377  -0.000006  -0.000000   0.000000  -0.000001   0.000008
    15  C   -0.001583   0.000067   0.000000  -0.000000   0.000002  -0.000001
    16  C    0.006648  -0.000196  -0.000011   0.000010  -0.000066  -0.000192
    17  N    0.000104   0.000016  -0.000000  -0.000057   0.018807   0.005470
    18  H    0.001907  -0.000023  -0.000001   0.000002  -0.000163  -0.000565
    19  H    0.535341  -0.007225  -0.000190   0.000082   0.000014  -0.000179
    20  H   -0.007225   0.547169  -0.007584  -0.000235   0.000055   0.000001
    21  H   -0.000190  -0.007584   0.548437  -0.007749  -0.000120   0.000000
    22  H    0.000082  -0.000235  -0.007749   0.546551  -0.007295  -0.000045
    23  H    0.000014   0.000055  -0.000120  -0.007295   0.509973   0.000188
    24  H   -0.000179   0.000001   0.000000  -0.000045   0.000188   0.506119
    25  H   -0.000160  -0.000001   0.000000  -0.000003  -0.000140  -0.009482
    26  H   -0.000259   0.000010  -0.000005  -0.000020  -0.000031  -0.001809
    27  H    0.000013  -0.000000   0.000000   0.000001   0.000056  -0.004150
    28  H   -0.000009   0.000000   0.000000   0.000000  -0.000002   0.000151
    29  H    0.000002  -0.000000  -0.000000   0.000000   0.000000  -0.000002
    30  H    0.000007  -0.000000  -0.000000   0.000000  -0.000000   0.000000
    31  H    0.000099   0.000026   0.000000  -0.000000   0.000000  -0.000001
    32  H   -0.001077   0.000064  -0.000002   0.000000  -0.000008  -0.000015
    33  H    0.000109  -0.000001  -0.000000   0.000011  -0.001307  -0.000717
              25         26         27         28         29         30
     1  N    0.003712   0.000857  -0.000615   0.001207  -0.000141  -0.000002
     2  S   -0.021905  -0.002212   0.003479  -0.000883   0.000009   0.000002
     3  C    0.007478   0.000901  -0.001012  -0.000061  -0.000009  -0.000000
     4  C   -0.000888  -0.006619   0.001124  -0.000027   0.000002   0.000007
     5  C    0.000010   0.000001  -0.000093  -0.000003   0.000000  -0.000001
     6  C    0.000011   0.000155   0.000004  -0.000000   0.000000   0.000000
     7  C    0.000050   0.000566  -0.000053  -0.000001  -0.000000  -0.000000
     8  C    0.000405   0.002048   0.000059   0.000012   0.000000  -0.000000
     9  C    0.372433  -0.021941  -0.030744   0.006294  -0.000004  -0.000003
    10  C   -0.009038   0.408839   0.380110  -0.010312  -0.000217   0.000109
    11  C   -0.011584  -0.052953  -0.028881  -0.065623   0.012798  -0.001482
    12  C    0.001646   0.005520   0.000262   0.428363  -0.052625   0.010193
    13  C    0.000103  -0.000378  -0.000017  -0.044603   0.425792  -0.048726
    14  C    0.000007   0.000020   0.000378   0.011168  -0.052534   0.423469
    15  C   -0.000046   0.001247  -0.001076  -0.002696   0.010505  -0.050790
    16  C    0.001018   0.009333  -0.003370   0.013096  -0.001977   0.010135
    17  N    0.009257   0.000167  -0.000373  -0.000106   0.000000   0.000000
    18  H    0.000930   0.000131  -0.000039  -0.000263   0.000015  -0.000002
    19  H   -0.000160  -0.000259   0.000013  -0.000009   0.000002   0.000007
    20  H   -0.000001   0.000010  -0.000000   0.000000  -0.000000  -0.000000
    21  H    0.000000  -0.000005   0.000000   0.000000  -0.000000  -0.000000
    22  H   -0.000003  -0.000020   0.000001   0.000000   0.000000   0.000000
    23  H   -0.000140  -0.000031   0.000056  -0.000002   0.000000  -0.000000
    24  H   -0.009482  -0.001809  -0.004150   0.000151  -0.000002   0.000000
    25  H    0.510774   0.003385  -0.005592   0.000533  -0.000004   0.000000
    26  H    0.003385   0.515461  -0.017654   0.000157   0.000013  -0.000003
    27  H   -0.005592  -0.017654   0.570038   0.001611  -0.000019  -0.000003
    28  H    0.000533   0.000157   0.001611   0.559615  -0.008458  -0.000291
    29  H   -0.000004   0.000013  -0.000019  -0.008458   0.553288  -0.007639
    30  H    0.000000  -0.000003  -0.000003  -0.000291  -0.007639   0.553106
    31  H   -0.000001  -0.000070   0.000017   0.000070  -0.000284  -0.007924
    32  H   -0.000019   0.004288   0.000393  -0.000216   0.000078  -0.000275
    33  H   -0.000660   0.000001   0.000034   0.000002  -0.000000   0.000000
              31         32         33
     1  N   -0.000001   0.000173  -0.004230
     2  S    0.000002  -0.000438  -0.017600
     3  C   -0.000058  -0.002200   0.004104
     4  C   -0.000320   0.000052   0.002733
     5  C    0.000127   0.000779   0.000021
     6  C    0.000010  -0.000138  -0.000086
     7  C   -0.000001   0.000482   0.000207
     8  C    0.000003  -0.000664  -0.007461
     9  C    0.000024  -0.000013   0.012779
    10  C   -0.000332  -0.007097  -0.001150
    11  C    0.012311  -0.050367   0.000065
    12  C   -0.002271   0.012839   0.000056
    13  C    0.010731  -0.002396   0.000000
    14  C   -0.050748   0.009540  -0.000001
    15  C    0.428156  -0.048380   0.000001
    16  C   -0.056007   0.418730  -0.000019
    17  N   -0.000000  -0.000008   0.311386
    18  H   -0.000051  -0.000206   0.000067
    19  H    0.000099  -0.001077   0.000109
    20  H    0.000026   0.000064  -0.000001
    21  H    0.000000  -0.000002  -0.000000
    22  H   -0.000000   0.000000   0.000011
    23  H    0.000000  -0.000008  -0.001307
    24  H   -0.000001  -0.000015  -0.000717
    25  H   -0.000001  -0.000019  -0.000660
    26  H   -0.000070   0.004288   0.000001
    27  H    0.000017   0.000393   0.000034
    28  H    0.000070  -0.000216   0.000002
    29  H   -0.000284   0.000078  -0.000000
    30  H   -0.007924  -0.000275   0.000000
    31  H    0.555168  -0.007744   0.000000
    32  H   -0.007744   0.542807  -0.000000
    33  H    0.000000  -0.000000   0.480848
 Mulliken charges:
               1
     1  N   -0.536472
     2  S    0.534254
     3  C    0.082932
     4  C   -0.192572
     5  C   -0.118482
     6  C   -0.101158
     7  C   -0.114922
     8  C   -0.184103
     9  C   -0.240842
    10  C   -0.215310
    11  C    0.081728
    12  C   -0.188872
    13  C   -0.090510
    14  C   -0.130614
    15  C   -0.113354
    16  C   -0.200967
    17  N   -0.575525
    18  H    0.231399
    19  H    0.128080
    20  H    0.125985
    21  H    0.124882
    22  H    0.125933
    23  H    0.148192
    24  H    0.161870
    25  H    0.147770
    26  H    0.150853
    27  H    0.136112
    28  H    0.111275
    29  H    0.121409
    30  H    0.120113
    31  H    0.119071
    32  H    0.131041
    33  H    0.220807
 Sum of Mulliken charges =  -0.00000
 Mulliken charges with hydrogens summed into heavy atoms:
               1
     1  N   -0.305074
     2  S    0.534254
     3  C    0.082932
     4  C   -0.064492
     5  C    0.007503
     6  C    0.023723
     7  C    0.011011
     8  C   -0.035911
     9  C    0.068797
    10  C    0.071655
    11  C    0.081728
    12  C   -0.077597
    13  C    0.030900
    14  C   -0.010501
    15  C    0.005716
    16  C   -0.069925
    17  N   -0.354718
 Electronic spatial extent (au):  <R**2>=           4209.8522
 Charge=             -0.0000 electrons
 Dipole moment (field-independent basis, Debye):
    X=             -0.0319    Y=              3.6317    Z=              2.5496  Tot=              4.4374
 Quadrupole moment (field-independent basis, Debye-Ang):
   XX=            -99.6984   YY=           -109.8923   ZZ=           -109.9269
   XY=              6.5531   XZ=              3.9893   YZ=             -8.5359
 Traceless Quadrupole moment (field-independent basis, Debye-Ang):
   XX=              6.8074   YY=             -3.3864   ZZ=             -3.4210
   XY=              6.5531   XZ=              3.9893   YZ=             -8.5359
 Octapole moment (field-independent basis, Debye-Ang**2):
  XXX=             -0.2378  YYY=             44.3000  ZZZ=              9.5718  XYY=             -5.7046
  XXY=              8.5730  XXZ=             -5.1532  XZZ=             11.9743  YZZ=             -5.6166
  YYZ=             -0.5186  XYZ=             15.1942
 Hexadecapole moment (field-independent basis, Debye-Ang**3):
 XXXX=          -3351.9406 YYYY=          -1675.4127 ZZZZ=           -675.0432 XXXY=             72.9939
 XXXZ=            166.2879 YYYX=             76.0568 YYYZ=            -36.9663 ZZZX=             -8.6214
 ZZZY=            -17.0057 XXYY=           -812.9323 XXZZ=           -698.0628 YYZZ=           -371.1854
 XXYZ=             -9.7492 YYXZ=             -8.8539 ZZXY=            -24.6379
 N-N= 1.332483873714D+03 E-N=-5.124520227482D+03  KE= 1.045814579254D+03
 Breneman (CHELPG) radii used.
 Read replacement radii for each type of atom:
 Atom Element Radius
    1     7    1.70
    2    16    2.00
    3     6    1.50
    4     6    1.50
    5     6    1.50
    6     6    1.50
    7     6    1.50
    8     6    1.50
    9     6    1.50
   10     6    1.50
   11     6    1.50
   12     6    1.50
   13     6    1.50
   14     6    1.50
   15     6    1.50
   16     6    1.50
   17     7    1.70
   18     1    1.45
   19     1    1.45
   20     1    1.45
   21     1    1.45
   22     1    1.45
   23     1    1.45
   24     1    1.45
   25     1    1.45
   26     1    1.45
   27     1    1.45
   28     1    1.45
   29     1    1.45
   30     1    1.45
   31     1    1.45
   32     1    1.45
   33     1    1.45
 Generate Potential Derived Charges using the Breneman model, NDens= 1.
 Grid spacing= 0.300 Box extension= 2.800
 NStep X,Y,Z=   51     40     35   Total possible points=       71400
 Number of Points to Fit=   18963

 **********************************************************************

            Electrostatic Properties Using The SCF Density.

 **********************************************************************

       Atomic Center    1 is at  -0.374706 -1.294880 -1.664441
       Atomic Center    2 is at   0.656592 -1.535706 -0.544289
       Atomic Center    3 is at   1.654388 -0.035225 -0.257824
       Atomic Center    4 is at   1.355824  1.143849 -0.931938
       Atomic Center    5 is at   2.152780  2.269702 -0.723248
       Atomic Center    6 is at   3.238551  2.204155  0.148620
       Atomic Center    7 is at   3.544790  1.007973  0.801124
       Atomic Center    8 is at   2.758590 -0.121720  0.589812
       Atomic Center    9 is at  -0.051412 -1.791837  1.106576
       Atomic Center   10 is at  -0.686568 -0.568981  1.748348
       Atomic Center   11 is at  -1.778353  0.088161  0.942181
       Atomic Center   12 is at  -2.908459 -0.632888  0.536091
       Atomic Center   13 is at  -3.906383 -0.027593 -0.221686
       Atomic Center   14 is at  -3.794236  1.314668 -0.586246
       Atomic Center   15 is at  -2.680746  2.045945 -0.179761
       Atomic Center   16 is at  -1.682295  1.435526  0.579662
       Atomic Center   17 is at   1.560924 -2.778169 -0.664577
       Atomic Center   18 is at  -0.965662 -0.484915 -1.465304
       Atomic Center   19 is at   0.512051  1.169838 -1.624509
       Atomic Center   20 is at   1.927664  3.200216 -1.249888
       Atomic Center   21 is at   3.860868  3.087357  0.311120
       Atomic Center   22 is at   4.409735  0.953132  1.466457
       Atomic Center   23 is at   3.005592 -1.079535  1.054886
       Atomic Center   24 is at   0.766116 -2.202851  1.714522
       Atomic Center   25 is at  -0.767725 -2.604095  0.910081
       Atomic Center   26 is at   0.094675  0.171817  1.976595
       Atomic Center   27 is at  -1.093787 -0.893065  2.721644
       Atomic Center   28 is at  -3.004157 -1.688134  0.804941
       Atomic Center   29 is at  -4.776399 -0.609054 -0.535411
       Atomic Center   30 is at  -4.575245  1.788159 -1.185579
       Atomic Center   31 is at  -2.584839  3.098867 -0.455795
       Atomic Center   32 is at  -0.806267  2.010840  0.890182
       Atomic Center   33 is at   1.889570 -2.826343 -1.632457
   18963 points will be used for fitting atomic charges
 Fitting point charges to electrostatic potential
 Charges from ESP fit, RMS=   0.00359 RRMS=   0.21467:
 ESP charges:
               1
     1  N   -0.788176
     2  S    0.697454
     3  C   -0.015990
     4  C    0.005270
     5  C   -0.098375
     6  C   -0.097817
     7  C   -0.089671
     8  C   -0.088365
     9  C    0.021684
    10  C   -0.192514
    11  C    0.161245
    12  C   -0.185500
    13  C   -0.061609
    14  C   -0.125795
    15  C   -0.080465
    16  C   -0.140579
    17  N   -0.799655
    18  H    0.355713
    19  H    0.034780
    20  H    0.099187
    21  H    0.099683
    22  H    0.098018
    23  H    0.101700
    24  H    0.068500
    25  H    0.075511
    26  H    0.048637
    27  H    0.061763
    28  H    0.114820
    29  H    0.094177
    30  H    0.100045
    31  H    0.098222
    32  H    0.068067
    33  H    0.360035
 Sum of ESP charges =  -0.00000
 ESP charges with hydrogens summed into heavy atoms:
               1
     1  N   -0.432463
     2  S    0.697454
     3  C   -0.015990
     4  C    0.040049
     5  C    0.000812
     6  C    0.001867
     7  C    0.008347
     8  C    0.013335
     9  C    0.165694
    10  C   -0.082114
    11  C    0.161245
    12  C   -0.070680
    13  C    0.032568
    14  C   -0.025750
    15  C    0.017757
    16  C   -0.072512
    17  N   -0.439619
 Charge=  -0.00000 Dipole=    -0.0555     3.6763     2.5843 Tot=     4.4941
 -----------------------------------------------------------------

              Electrostatic Properties (Atomic Units)

 -----------------------------------------------------------------
    Center     Electric         -------- Electric Field --------
               Potential          X             Y             Z
 -----------------------------------------------------------------
    1 Atom    -18.433523
    2 Atom    -59.081590
    3 Atom    -14.734492
    4 Atom    -14.744486
    5 Atom    -14.745818
    6 Atom    -14.744785
    7 Atom    -14.745696
    8 Atom    -14.743834
    9 Atom    -14.729416
   10 Atom    -14.737225
   11 Atom    -14.742965
   12 Atom    -14.756257
   13 Atom    -14.755715
   14 Atom    -14.756341
   15 Atom    -14.754740
   16 Atom    -14.756058
   17 Atom    -18.435098
   18 Atom     -1.053265
   19 Atom     -1.088018
   20 Atom     -1.088222
   21 Atom     -1.087546
   22 Atom     -1.088320
   23 Atom     -1.087005
   24 Atom     -1.083604
   25 Atom     -1.083007
   26 Atom     -1.099692
   27 Atom     -1.092820
   28 Atom     -1.095525
   29 Atom     -1.097769
   30 Atom     -1.097011
   31 Atom     -1.095453
   32 Atom     -1.095911
   33 Atom     -1.059235
 -----------------------------------------------------------------
 Unable to Open any file for archive entry.
 1\1\GINC-NOTCH219\SP\RPBE1PBE\def2TZVP\C14H16N2S1\U1414944\06-Jun-2025
 \0\\#N Guess=Read Geom=Check Integral(Ultrafine) Density Pop=(ChelpG,R
 eadRadii) NMR pbe1pbe EmpiricalDispersion=GD3BJ def2TZVP\\SDI0241_7\\0
 ,1\N,0,0.8160218785,-0.1865357155,-1.9532849065\S,0,1.6030696562,0.113
 4896588,-0.6622176081\C,0,0.7860100407,1.4349552453,0.2944672845\C,0,-
 0.4399220725,1.9441181191,-0.1198141451\C,0,-1.0304456447,2.9777160029
 ,0.6076402651\C,0,-0.3897134755,3.4934427735,1.73317937\C,0,0.85322856
 75,2.9921366849,2.1258386505\C,0,1.4520441384,1.9668182523,1.398437813
 1\C,0,1.6146769963,-1.2298509804,0.5574242363\C,0,0.2893736432,-1.5026
 995714,1.2500990981\C,0,-0.8674250666,-1.8059879831,0.3316396656\C,0,-
 0.8051451805,-2.867394128,-0.5802255268\C,0,-1.8681445783,-3.134364133
 ,-1.4376741937\C,0,-3.0178864033,-2.3446707963,-1.3973851818\C,0,-3.09
 70145877,-1.2928317999,-0.4878642388\C,0,-2.0291519367,-1.0281943636,0
 .3699668775\N,0,3.1132211477,0.3911915298,-0.7975833987\H,0,-0.1600075
 733,-0.416817942,-1.7551362087\H,0,-0.9171298421,1.5390510026,-1.01450
 81666\H,0,-1.992527076,3.3860190558,0.2889363513\H,0,-0.8544254128,4.3
 024013177,2.3018276858\H,0,1.3637403295,3.4135298274,2.9950980822\H,0,
 2.4438179275,1.5897394,1.6609449098\H,0,2.4102186875,-0.9710900184,1.2
 694918537\H,0,1.9698848612,-2.0731098385,-0.0543095438\H,0,0.030098932
 3,-0.6482836035,1.8935019541\H,0,0.4526710666,-2.3575808812,1.92882918
 21\H,0,0.0938176697,-3.4873281057,-0.6305245631\H,0,-1.7971940381,-3.9
 619063356,-2.1473142493\H,0,-3.8500956202,-2.5512094523,-2.0742453217\
 H,0,-3.9943850681,-0.6708213742,-0.4446506344\H,0,-2.0920954073,-0.196
 9786313,1.0770404973\H,0,3.2389376661,1.0262665862,-1.5900460246\\Vers
 ion=ES64L-G16RevC.01\State=1-A\HF=-1050.0899773\RMSD=3.520e-09\Dipole=
 -1.1816874,0.1783844,1.2726595\Quadrupole=-3.8107153,6.0027883,-2.1920
 73,-2.3712958,6.6984324,3.721347\PG=C01 [X(C14H16N2S1)]\\@
 The archive entry for this job was punched.


 ALL THINGS ARE POSSIBLE EXCEPT SKIING THROUGH A REVOLVING DOOR.
 Job cpu time:       0 days  0 hours 59 minutes 35.2 seconds.
 Elapsed time:       0 days  0 hours  4 minutes  3.1 seconds.
 File lengths (MBytes):  RWF=    238 Int=      0 D2E=      0 Chk=     37 Scr=      2
 Normal termination of Gaussian 16 at Fri Jun  6 23:30:41 2025.
