 Entering Gaussian System, Link 0=g16
 Input=SDI0241_8.com
 Output=SDI0241_8.log
 Initial command:
 /uufs/chpc.utah.edu/sys/installdir/gaussian16/C01/AVX/g16/l1.exe "/scratch/general/vast/u1414944/4689604-notchpeak.peaks/Gau-367701.inp" -scrdir="/scratch/general/vast/u1414944/4689604-notchpeak.peaks/"
 Entering Link 1 = /uufs/chpc.utah.edu/sys/installdir/gaussian16/C01/AVX/g16/l1.exe PID=    367702.
  
 Copyright (c) 1988-2019, Gaussian, Inc.  All Rights Reserved.
  
 This is part of the Gaussian(R) 16 program.  It is based on
 the Gaussian(R) 09 system (copyright 2009, Gaussian, Inc.),
 the Gaussian(R) 03 system (copyright 2003, Gaussian, Inc.),
 the Gaussian(R) 98 system (copyright 1998, Gaussian, Inc.),
 the Gaussian(R) 94 system (copyright 1995, Gaussian, Inc.),
 the Gaussian 92(TM) system (copyright 1992, Gaussian, Inc.),
 the Gaussian 90(TM) system (copyright 1990, Gaussian, Inc.),
 the Gaussian 88(TM) system (copyright 1988, Gaussian, Inc.),
 the Gaussian 86(TM) system (copyright 1986, Carnegie Mellon
 University), and the Gaussian 82(TM) system (copyright 1983,
 Carnegie Mellon University). Gaussian is a federally registered
 trademark of Gaussian, Inc.
  
 This software contains proprietary and confidential information,
 including trade secrets, belonging to Gaussian, Inc.
  
 This software is provided under written license and may be
 used, copied, transmitted, or stored only in accord with that
 written license.
  
 The following legend is applicable only to US Government
 contracts under FAR:
  
                    RESTRICTED RIGHTS LEGEND
  
 Use, reproduction and disclosure by the US Government is
 subject to restrictions as set forth in subparagraphs (a)
 and (c) of the Commercial Computer Software - Restricted
 Rights clause in FAR 52.227-19.
  
 Gaussian, Inc.
 340 Quinnipiac St., Bldg. 40, Wallingford CT 06492
  
  
 ---------------------------------------------------------------
 Warning -- This program may not be used in any manner that
 competes with the business of Gaussian, Inc. or will provide
 assistance to any competitor of Gaussian, Inc.  The licensee
 of this program is prohibited from giving any competitor of
 Gaussian, Inc. access to this program.  By using this program,
 the user acknowledges that Gaussian, Inc. is engaged in the
 business of creating and licensing software in the field of
 computational chemistry and represents and warrants to the
 licensee that it is not a competitor of Gaussian, Inc. and that
 it will not use this program in any manner prohibited above.
 ---------------------------------------------------------------
  

 Cite this work as:
 Gaussian 16, Revision C.01,
 M. J. Frisch, G. W. Trucks, H. B. Schlegel, G. E. Scuseria, 
 M. A. Robb, J. R. Cheeseman, G. Scalmani, V. Barone, 
 G. A. Petersson, H. Nakatsuji, X. Li, M. Caricato, A. V. Marenich, 
 J. Bloino, B. G. Janesko, R. Gomperts, B. Mennucci, H. P. Hratchian, 
 J. V. Ortiz, A. F. Izmaylov, J. L. Sonnenberg, D. Williams-Young, 
 F. Ding, F. Lipparini, F. Egidi, J. Goings, B. Peng, A. Petrone, 
 T. Henderson, D. Ranasinghe, V. G. Zakrzewski, J. Gao, N. Rega, 
 G. Zheng, W. Liang, M. Hada, M. Ehara, K. Toyota, R. Fukuda, 
 J. Hasegawa, M. Ishida, T. Nakajima, Y. Honda, O. Kitao, H. Nakai, 
 T. Vreven, K. Throssell, J. A. Montgomery, Jr., J. E. Peralta, 
 F. Ogliaro, M. J. Bearpark, J. J. Heyd, E. N. Brothers, K. N. Kudin, 
 V. N. Staroverov, T. A. Keith, R. Kobayashi, J. Normand, 
 K. Raghavachari, A. P. Rendell, J. C. Burant, S. S. Iyengar, 
 J. Tomasi, M. Cossi, J. M. Millam, M. Klene, C. Adamo, R. Cammi, 
 J. W. Ochterski, R. L. Martin, K. Morokuma, O. Farkas, 
 J. B. Foresman, and D. J. Fox, Gaussian, Inc., Wallingford CT, 2019.
 
 ******************************************
 Gaussian 16:  ES64L-G16RevC.01  3-Jul-2019
                 6-Jun-2025 
 ******************************************
 %NProcShared=16
 Will use up to   16 processors via shared memory.
 %Mem=40GB
 %chk=SDI0241_8.chk
 ----------------------------------------------------------------------
 #N OPT FREQ=NORAMAN Integral(Ultrafine) pbe1pbe EmpiricalDispersion=GD
 3BJ def2SVP
 ----------------------------------------------------------------------
 1/18=20,19=15,26=4,38=1/1,3;
 2/9=110,12=2,17=6,18=5,40=1/2;
 3/5=43,7=101,11=2,25=1,30=1,71=1,74=-13,75=-5,124=41/1,2,3;
 4//1;
 5/5=2,38=5/2;
 6/7=2,8=2,9=2,10=2,28=1/1;
 7//1,2,3,16;
 1/18=20,19=15,26=4/3(2);
 2/9=110/2;
 99//99;
 2/9=110/2;
 3/5=43,7=101,11=2,25=1,30=1,71=1,74=-13,75=-5,124=41/1,2,3;
 4/5=5,16=3,69=1/1;
 5/5=2,38=5/2;
 7//1,2,3,16;
 1/18=20,19=15,26=4/3(-5);
 2/9=110/2;
 6/7=2,8=2,9=2,10=2,19=2,28=1/1;
 99/9=1/99;
 ---------
 SDI0241_8
 ---------
 Symbolic Z-matrix:
 Charge =  0 Multiplicity = 1
 N                     1.69472  -0.74469  -1.45167 
 S                     1.81109  -0.1123   -0.06338 
 C                     0.64364   1.27663   0.17724 
 C                     0.69651   1.98796   1.36096 
 C                    -0.15071   3.06762   1.54373 
 C                    -1.03054   3.43421   0.53669 
 C                    -1.05669   2.73246  -0.65734 
 C                    -0.21367   1.64823  -0.83925 
 C                     1.38991  -1.21074   1.36533 
 C                    -0.09258  -1.28107   1.69628 
 C                    -0.94436  -1.5521    0.48534 
 C                    -1.97658  -0.68793   0.1442 
 C                    -2.7473   -0.9167   -0.9827 
 C                    -2.49722  -2.01748  -1.78299 
 C                    -1.48261  -2.89617  -1.44113 
 C                    -0.71461  -2.66684  -0.31354 
 N                     3.22492   0.32574   0.31028 
 H                     0.76663  -1.03898  -1.70737 
 H                     1.40833   1.69933   2.11889 
 H                    -0.12317   3.62555   2.46806 
 H                    -1.69132   4.27632   0.68072 
 H                    -1.73234   3.02779  -1.44612 
 H                    -0.21365   1.09123  -1.76415 
 H                     1.97819  -0.81796   2.18943 
 H                     1.79309  -2.17818   1.0734 
 H                    -0.41246  -0.34326   2.15584 
 H                    -0.24355  -2.0789    2.43164 
 H                    -2.1793    0.17336   0.76539 
 H                    -3.54228  -0.23067  -1.2356 
 H                    -3.09271  -2.19373  -2.66634 
 H                    -1.28638  -3.76177  -2.05628 
 H                     0.07218  -3.36018  -0.05533 
 H                     3.79837   0.56347  -0.48068 
 

 GradGradGradGradGradGradGradGradGradGradGradGradGradGradGradGradGradGrad
 Berny optimization.
 Initialization pass.
                           ----------------------------
                           !    Initial Parameters    !
                           ! (Angstroms and Degrees)  !
 --------------------------                            --------------------------
 ! Name  Definition              Value          Derivative Info.                !
 --------------------------------------------------------------------------------
 ! R1    R(1,2)                  1.53           estimate D2E/DX2                !
 ! R2    R(1,18)                 1.0066         estimate D2E/DX2                !
 ! R3    R(2,3)                  1.8303         estimate D2E/DX2                !
 ! R4    R(2,9)                  1.8507         estimate D2E/DX2                !
 ! R5    R(2,17)                 1.5266         estimate D2E/DX2                !
 ! R6    R(3,4)                  1.382          estimate D2E/DX2                !
 ! R7    R(3,8)                  1.3807         estimate D2E/DX2                !
 ! R8    R(4,5)                  1.3845         estimate D2E/DX2                !
 ! R9    R(4,19)                 1.0791         estimate D2E/DX2                !
 ! R10   R(5,6)                  1.3866         estimate D2E/DX2                !
 ! R11   R(5,20)                 1.08           estimate D2E/DX2                !
 ! R12   R(6,7)                  1.3852         estimate D2E/DX2                !
 ! R13   R(6,21)                 1.0801         estimate D2E/DX2                !
 ! R14   R(7,8)                  1.3854         estimate D2E/DX2                !
 ! R15   R(7,22)                 1.0798         estimate D2E/DX2                !
 ! R16   R(8,23)                 1.0797         estimate D2E/DX2                !
 ! R17   R(9,10)                 1.5206         estimate D2E/DX2                !
 ! R18   R(9,24)                 1.086          estimate D2E/DX2                !
 ! R19   R(9,25)                 1.088          estimate D2E/DX2                !
 ! R20   R(10,11)                1.5051         estimate D2E/DX2                !
 ! R21   R(10,26)                1.0922         estimate D2E/DX2                !
 ! R22   R(10,27)                1.0955         estimate D2E/DX2                !
 ! R23   R(11,12)                1.3888         estimate D2E/DX2                !
 ! R24   R(11,16)                1.3906         estimate D2E/DX2                !
 ! R25   R(12,13)                1.3843         estimate D2E/DX2                !
 ! R26   R(12,28)                1.0811         estimate D2E/DX2                !
 ! R27   R(13,14)                1.3837         estimate D2E/DX2                !
 ! R28   R(13,29)                1.0801         estimate D2E/DX2                !
 ! R29   R(14,15)                1.3851         estimate D2E/DX2                !
 ! R30   R(14,30)                1.0798         estimate D2E/DX2                !
 ! R31   R(15,16)                1.3834         estimate D2E/DX2                !
 ! R32   R(15,31)                1.0799         estimate D2E/DX2                !
 ! R33   R(16,32)                1.08           estimate D2E/DX2                !
 ! R34   R(17,33)                1.0055         estimate D2E/DX2                !
 ! A1    A(2,1,18)             114.926          estimate D2E/DX2                !
 ! A2    A(1,2,3)              112.6085         estimate D2E/DX2                !
 ! A3    A(1,2,9)              115.9672         estimate D2E/DX2                !
 ! A4    A(1,2,17)             114.2772         estimate D2E/DX2                !
 ! A5    A(3,2,9)              101.7565         estimate D2E/DX2                !
 ! A6    A(3,2,17)             109.9265         estimate D2E/DX2                !
 ! A7    A(9,2,17)             101.0766         estimate D2E/DX2                !
 ! A8    A(2,3,4)              118.606          estimate D2E/DX2                !
 ! A9    A(2,3,8)              120.2327         estimate D2E/DX2                !
 ! A10   A(4,3,8)              121.0514         estimate D2E/DX2                !
 ! A11   A(3,4,5)              119.4084         estimate D2E/DX2                !
 ! A12   A(3,4,19)             119.2849         estimate D2E/DX2                !
 ! A13   A(5,4,19)             121.3003         estimate D2E/DX2                !
 ! A14   A(4,5,6)              119.9064         estimate D2E/DX2                !
 ! A15   A(4,5,20)             120.0147         estimate D2E/DX2                !
 ! A16   A(6,5,20)             120.0784         estimate D2E/DX2                !
 ! A17   A(5,6,7)              120.2697         estimate D2E/DX2                !
 ! A18   A(5,6,21)             119.8344         estimate D2E/DX2                !
 ! A19   A(7,6,21)             119.8933         estimate D2E/DX2                !
 ! A20   A(6,7,8)              119.879          estimate D2E/DX2                !
 ! A21   A(6,7,22)             120.1943         estimate D2E/DX2                !
 ! A22   A(8,7,22)             119.9267         estimate D2E/DX2                !
 ! A23   A(3,8,7)              119.4586         estimate D2E/DX2                !
 ! A24   A(3,8,23)             119.4602         estimate D2E/DX2                !
 ! A25   A(7,8,23)             121.0809         estimate D2E/DX2                !
 ! A26   A(2,9,10)             114.6665         estimate D2E/DX2                !
 ! A27   A(2,9,24)             104.3506         estimate D2E/DX2                !
 ! A28   A(2,9,25)             103.6677         estimate D2E/DX2                !
 ! A29   A(10,9,24)            112.3132         estimate D2E/DX2                !
 ! A30   A(10,9,25)            112.2447         estimate D2E/DX2                !
 ! A31   A(24,9,25)            108.9329         estimate D2E/DX2                !
 ! A32   A(9,10,11)            112.6411         estimate D2E/DX2                !
 ! A33   A(9,10,26)            109.7176         estimate D2E/DX2                !
 ! A34   A(9,10,27)            108.3085         estimate D2E/DX2                !
 ! A35   A(11,10,26)           109.1103         estimate D2E/DX2                !
 ! A36   A(11,10,27)           109.3251         estimate D2E/DX2                !
 ! A37   A(26,10,27)           107.6097         estimate D2E/DX2                !
 ! A38   A(10,11,12)           120.4117         estimate D2E/DX2                !
 ! A39   A(10,11,16)           120.8686         estimate D2E/DX2                !
 ! A40   A(12,11,16)           118.7196         estimate D2E/DX2                !
 ! A41   A(11,12,13)           120.7275         estimate D2E/DX2                !
 ! A42   A(11,12,28)           119.6017         estimate D2E/DX2                !
 ! A43   A(13,12,28)           119.6707         estimate D2E/DX2                !
 ! A44   A(12,13,14)           120.1103         estimate D2E/DX2                !
 ! A45   A(12,13,29)           119.6988         estimate D2E/DX2                !
 ! A46   A(14,13,29)           120.1907         estimate D2E/DX2                !
 ! A47   A(13,14,15)           119.6248         estimate D2E/DX2                !
 ! A48   A(13,14,30)           120.2194         estimate D2E/DX2                !
 ! A49   A(15,14,30)           120.155          estimate D2E/DX2                !
 ! A50   A(14,15,16)           120.1768         estimate D2E/DX2                !
 ! A51   A(14,15,31)           120.0678         estimate D2E/DX2                !
 ! A52   A(16,15,31)           119.7551         estimate D2E/DX2                !
 ! A53   A(11,16,15)           120.6257         estimate D2E/DX2                !
 ! A54   A(11,16,32)           119.8445         estimate D2E/DX2                !
 ! A55   A(15,16,32)           119.5295         estimate D2E/DX2                !
 ! A56   A(2,17,33)            113.7974         estimate D2E/DX2                !
 ! D1    D(18,1,2,3)           -53.7647         estimate D2E/DX2                !
 ! D2    D(18,1,2,9)            62.8708         estimate D2E/DX2                !
 ! D3    D(18,1,2,17)          179.8774         estimate D2E/DX2                !
 ! D4    D(1,2,3,4)           -176.3171         estimate D2E/DX2                !
 ! D5    D(1,2,3,8)             -0.0889         estimate D2E/DX2                !
 ! D6    D(9,2,3,4)             58.8533         estimate D2E/DX2                !
 ! D7    D(9,2,3,8)           -124.9184         estimate D2E/DX2                !
 ! D8    D(17,2,3,4)           -47.6567         estimate D2E/DX2                !
 ! D9    D(17,2,3,8)           128.5716         estimate D2E/DX2                !
 ! D10   D(1,2,9,10)           -84.4855         estimate D2E/DX2                !
 ! D11   D(1,2,9,24)           152.2339         estimate D2E/DX2                !
 ! D12   D(1,2,9,25)            38.2247         estimate D2E/DX2                !
 ! D13   D(3,2,9,10)            38.0704         estimate D2E/DX2                !
 ! D14   D(3,2,9,24)           -85.2102         estimate D2E/DX2                !
 ! D15   D(3,2,9,25)           160.7806         estimate D2E/DX2                !
 ! D16   D(17,2,9,10)          151.3656         estimate D2E/DX2                !
 ! D17   D(17,2,9,24)           28.085          estimate D2E/DX2                !
 ! D18   D(17,2,9,25)          -85.9242         estimate D2E/DX2                !
 ! D19   D(1,2,17,33)           27.6804         estimate D2E/DX2                !
 ! D20   D(3,2,17,33)         -100.0605         estimate D2E/DX2                !
 ! D21   D(9,2,17,33)          152.973          estimate D2E/DX2                !
 ! D22   D(2,3,4,5)            178.0178         estimate D2E/DX2                !
 ! D23   D(2,3,4,19)            -1.0729         estimate D2E/DX2                !
 ! D24   D(8,3,4,5)              1.8217         estimate D2E/DX2                !
 ! D25   D(8,3,4,19)          -177.2691         estimate D2E/DX2                !
 ! D26   D(2,3,8,7)           -177.6707         estimate D2E/DX2                !
 ! D27   D(2,3,8,23)             2.1166         estimate D2E/DX2                !
 ! D28   D(4,3,8,7)             -1.536          estimate D2E/DX2                !
 ! D29   D(4,3,8,23)           178.2513         estimate D2E/DX2                !
 ! D30   D(3,4,5,6)             -0.7296         estimate D2E/DX2                !
 ! D31   D(3,4,5,20)           179.512          estimate D2E/DX2                !
 ! D32   D(19,4,5,6)           178.3422         estimate D2E/DX2                !
 ! D33   D(19,4,5,20)           -1.4161         estimate D2E/DX2                !
 ! D34   D(4,5,6,7)             -0.6227         estimate D2E/DX2                !
 ! D35   D(4,5,6,21)           179.9669         estimate D2E/DX2                !
 ! D36   D(20,5,6,7)           179.1355         estimate D2E/DX2                !
 ! D37   D(20,5,6,21)           -0.2749         estimate D2E/DX2                !
 ! D38   D(5,6,7,8)              0.9105         estimate D2E/DX2                !
 ! D39   D(5,6,7,22)          -179.1185         estimate D2E/DX2                !
 ! D40   D(21,6,7,8)          -179.6795         estimate D2E/DX2                !
 ! D41   D(21,6,7,22)            0.2915         estimate D2E/DX2                !
 ! D42   D(6,7,8,3)              0.1588         estimate D2E/DX2                !
 ! D43   D(6,7,8,23)          -179.625          estimate D2E/DX2                !
 ! D44   D(22,7,8,3)          -179.8123         estimate D2E/DX2                !
 ! D45   D(22,7,8,23)            0.404          estimate D2E/DX2                !
 ! D46   D(2,9,10,11)           49.3762         estimate D2E/DX2                !
 ! D47   D(2,9,10,26)          -72.3801         estimate D2E/DX2                !
 ! D48   D(2,9,10,27)          170.4199         estimate D2E/DX2                !
 ! D49   D(24,9,10,11)         168.2767         estimate D2E/DX2                !
 ! D50   D(24,9,10,26)          46.5204         estimate D2E/DX2                !
 ! D51   D(24,9,10,27)         -70.6797         estimate D2E/DX2                !
 ! D52   D(25,9,10,11)         -68.5772         estimate D2E/DX2                !
 ! D53   D(25,9,10,26)         169.6665         estimate D2E/DX2                !
 ! D54   D(25,9,10,27)          52.4665         estimate D2E/DX2                !
 ! D55   D(9,10,11,12)        -124.2118         estimate D2E/DX2                !
 ! D56   D(9,10,11,16)          55.6886         estimate D2E/DX2                !
 ! D57   D(26,10,11,12)         -2.112          estimate D2E/DX2                !
 ! D58   D(26,10,11,16)        177.7884         estimate D2E/DX2                !
 ! D59   D(27,10,11,12)        115.3267         estimate D2E/DX2                !
 ! D60   D(27,10,11,16)        -64.7729         estimate D2E/DX2                !
 ! D61   D(10,11,12,13)        178.7313         estimate D2E/DX2                !
 ! D62   D(10,11,12,28)         -1.2039         estimate D2E/DX2                !
 ! D63   D(16,11,12,13)         -1.1712         estimate D2E/DX2                !
 ! D64   D(16,11,12,28)        178.8936         estimate D2E/DX2                !
 ! D65   D(10,11,16,15)       -178.6441         estimate D2E/DX2                !
 ! D66   D(10,11,16,32)          1.1647         estimate D2E/DX2                !
 ! D67   D(12,11,16,15)          1.2579         estimate D2E/DX2                !
 ! D68   D(12,11,16,32)       -178.9332         estimate D2E/DX2                !
 ! D69   D(11,12,13,14)          0.1728         estimate D2E/DX2                !
 ! D70   D(11,12,13,29)       -179.6469         estimate D2E/DX2                !
 ! D71   D(28,12,13,14)       -179.8921         estimate D2E/DX2                !
 ! D72   D(28,12,13,29)          0.2882         estimate D2E/DX2                !
 ! D73   D(12,13,14,15)          0.7567         estimate D2E/DX2                !
 ! D74   D(12,13,14,30)       -179.5586         estimate D2E/DX2                !
 ! D75   D(29,13,14,15)       -179.4244         estimate D2E/DX2                !
 ! D76   D(29,13,14,30)          0.2602         estimate D2E/DX2                !
 ! D77   D(13,14,15,16)         -0.6698         estimate D2E/DX2                !
 ! D78   D(13,14,15,31)        179.516          estimate D2E/DX2                !
 ! D79   D(30,14,15,16)        179.6454         estimate D2E/DX2                !
 ! D80   D(30,14,15,31)         -0.1688         estimate D2E/DX2                !
 ! D81   D(14,15,16,11)         -0.3478         estimate D2E/DX2                !
 ! D82   D(14,15,16,32)        179.8428         estimate D2E/DX2                !
 ! D83   D(31,15,16,11)        179.467          estimate D2E/DX2                !
 ! D84   D(31,15,16,32)         -0.3425         estimate D2E/DX2                !
 --------------------------------------------------------------------------------
 Trust Radius=3.00D-01 FncErr=1.00D-07 GrdErr=1.00D-06 EigMax=2.50D+02 EigMin=1.00D-04
 Number of steps in this run=    184 maximum allowed number of steps=    198.
 GradGradGradGradGradGradGradGradGradGradGradGradGradGradGradGradGradGrad

                          Input orientation:                          
 ---------------------------------------------------------------------
 Center     Atomic      Atomic             Coordinates (Angstroms)
 Number     Number       Type             X           Y           Z
 ---------------------------------------------------------------------
      1          7           0        1.694720   -0.744687   -1.451670
      2         16           0        1.811090   -0.112301   -0.063375
      3          6           0        0.643637    1.276630    0.177236
      4          6           0        0.696506    1.987963    1.360963
      5          6           0       -0.150715    3.067622    1.543729
      6          6           0       -1.030541    3.434211    0.536692
      7          6           0       -1.056686    2.732463   -0.657338
      8          6           0       -0.213670    1.648232   -0.839254
      9          6           0        1.389909   -1.210741    1.365331
     10          6           0       -0.092585   -1.281066    1.696284
     11          6           0       -0.944365   -1.552101    0.485335
     12          6           0       -1.976582   -0.687927    0.144197
     13          6           0       -2.747299   -0.916697   -0.982704
     14          6           0       -2.497221   -2.017478   -1.782994
     15          6           0       -1.482607   -2.896173   -1.441133
     16          6           0       -0.714613   -2.666844   -0.313540
     17          7           0        3.224916    0.325742    0.310283
     18          1           0        0.766633   -1.038976   -1.707367
     19          1           0        1.408325    1.699328    2.118885
     20          1           0       -0.123175    3.625550    2.468064
     21          1           0       -1.691317    4.276318    0.680717
     22          1           0       -1.732344    3.027787   -1.446121
     23          1           0       -0.213654    1.091231   -1.764145
     24          1           0        1.978185   -0.817964    2.189426
     25          1           0        1.793094   -2.178182    1.073404
     26          1           0       -0.412459   -0.343264    2.155836
     27          1           0       -0.243554   -2.078905    2.431642
     28          1           0       -2.179296    0.173364    0.765385
     29          1           0       -3.542277   -0.230672   -1.235604
     30          1           0       -3.092711   -2.193731   -2.666337
     31          1           0       -1.286377   -3.761768   -2.056280
     32          1           0        0.072182   -3.360176   -0.055329
     33          1           0        3.798375    0.563466   -0.480684
 ---------------------------------------------------------------------
                    Distance matrix (angstroms):
                    1          2          3          4          5
     1  N    0.000000
     2  S    1.529973   0.000000
     3  C    2.800684   1.830292   0.000000
     4  C    4.046568   2.771669   1.382027   0.000000
     5  C    5.187653   4.067354   2.388713   1.384503   0.000000
     6  C    5.370644   4.583961   2.754494   2.398697   1.386581
     7  C    4.504639   4.082843   2.388945   2.775157   2.403708
     8  C    3.121389   2.793048   1.380693   2.405159   2.774389
     9  C    2.871518   1.850721   2.855786   3.273002   4.550795
    10  C    3.659478   2.843658   3.064529   3.379594   4.351751
    11  C    3.371747   3.156998   3.258588   3.998904   4.805405
    12  C    4.003558   3.836781   3.275076   3.973199   4.404160
    13  C    4.470017   4.719230   4.201737   5.078348   5.385156
    14  C    4.393421   5.014811   4.955668   6.010650   6.513940
    15  C    3.837240   4.527316   4.955029   6.037802   6.800749
    16  C    3.285562   3.601034   4.199606   5.144167   6.054051
    17  N    2.567449   1.526567   2.754068   3.203087   4.520417
    18  H    1.006645   2.156925   2.988124   4.310676   5.317452
    19  H    4.336369   2.864696   2.129184   1.079094   2.152588
    20  H    6.145569   4.911323   3.369468   2.139915   1.080017
    21  H    6.420499   5.663966   3.834531   3.376537   2.139905
    22  H    5.096701   4.932349   3.368549   3.854901   3.382653
    23  H    2.666482   2.905287   2.130324   3.376214   3.853844
    24  H    3.652849   2.366642   3.196444   3.194101   4.477378
    25  H    2.905269   2.358062   3.749679   4.317634   5.614094
    26  H    4.197076   3.149986   2.766632   2.701157   3.475245
    27  H    4.540613   3.783412   4.138728   4.309233   5.223385
    28  H    4.556990   4.085539   3.087405   3.452206   3.619073
    29  H    5.266596   5.481484   4.667971   5.443508   5.486905
    30  H    5.147294   5.929167   5.838631   6.932812   7.352675
    31  H    4.284306   5.185034   5.839436   6.976302   7.803228
    32  H    3.379820   3.684095   4.677672   5.567607   6.627462
    33  H    2.660721   2.140119   3.300581   3.878459   5.095523
                    6          7          8          9         10
     6  C    0.000000
     7  C    1.385222   0.000000
     8  C    2.397963   1.385397   0.000000
     9  C    5.302905   5.062201   3.950366   0.000000
    10  C    4.945529   4.751572   3.876132   1.520613   0.000000
    11  C    4.987321   4.435741   3.539856   2.517887   1.505120
    12  C    4.247478   3.631492   3.087503   3.619084   2.512018
    13  C    4.917949   4.034898   3.608145   4.766154   3.789097
    14  C    6.103524   5.089615   4.420711   5.066810   4.293012
    15  C    6.647549   5.698884   4.756477   4.355257   3.792639
    16  C    6.168110   5.421045   4.375752   3.060696   2.519265
    17  N    5.274728   5.006067   3.859312   2.615561   3.938101
    18  H    5.317427   4.318657   2.989264   3.139976   3.518764
    19  H    3.385443   3.853707   3.374028   3.006109   3.363640
    20  H    2.142457   3.381890   3.854390   5.186054   4.967037
    21  H    1.080052   2.139307   3.376476   6.330124   5.871272
    22  H    2.142254   1.079773   2.139587   5.968070   5.579403
    23  H    3.383890   2.151597   1.079664   4.202870   4.197263
    24  H    5.464884   5.469921   4.478756   1.086037   2.178472
    25  H    6.305547   5.935583   4.725125   1.087989   2.179123
    26  H    4.156077   4.217709   3.602240   2.150802   1.092236
    27  H    5.882570   5.775140   4.958952   2.135165   1.095487
    28  H    3.464833   3.135822   2.934926   3.874908   2.708561
    29  H    4.783431   3.910591   3.842785   5.661436   4.647545
    30  H    6.796004   5.696390   5.136905   6.108560   5.372725
    31  H    7.653174   6.647167   5.648005   5.037626   4.654112
    32  H    6.908703   6.225512   5.077440   2.893916   2.723599
    33  H    5.709173   5.320467   4.171545   3.515151   4.825044
                   11         12         13         14         15
    11  C    0.000000
    12  C    1.388756   0.000000
    13  C    2.410280   1.384286   0.000000
    14  C    2.788056   2.398507   1.383735   0.000000
    15  C    2.409878   2.762903   2.393309   1.385069   0.000000
    16  C    1.390554   2.391276   2.764527   2.399721   1.383427
    17  N    4.576007   5.301952   6.235609   6.528043   5.967325
    18  H    2.828207   3.328175   3.589959   3.408215   2.929017
    19  H    4.333062   4.588679   5.807982   6.655269   6.492291
    20  H    5.604786   5.238469   6.278999   7.453278   7.724166
    21  H    5.879335   5.001296   5.554230   6.806704   7.482675
    22  H    5.032575   4.049111   4.099249   5.114023   5.929224
    23  H    3.547013   3.148824   3.325926   3.857345   4.196900
    24  H    3.461818   4.454218   5.692308   6.103132   5.429272
    25  H    2.869056   4.158694   5.141410   5.156708   4.191494
    26  H    2.129503   2.571373   3.953572   4.760631   4.538804
    27  H    2.134659   3.189139   4.390584   4.779743   4.147477
    28  H    2.140260   1.081106   2.136978   3.375663   3.843976
    29  H    3.384812   2.136430   1.080083   2.141134   3.374816
    30  H    3.867831   3.378209   2.141202   1.079800   2.141725
    31  H    3.385175   3.842783   3.373617   2.140882   1.079893
    32  H    2.143553   3.373152   3.844488   3.374832   2.133803
    33  H    5.282272   5.941934   6.729691   6.927612   6.385947
                   16         17         18         19         20
    16  C    0.000000
    17  N    4.986443   0.000000
    18  H    2.605148   3.460711   0.000000
    19  H    5.430195   2.908227   4.748714   0.000000
    20  H    6.905168   5.172471   6.323273   2.485507   0.000000
    21  H    7.081666   6.317722   6.324303   4.279835   2.465194
    22  H    5.894688   5.912734   4.780345   4.933343   4.274060
    23  H    4.059352   4.088152   2.345627   4.251885   4.933817
    24  H    4.115138   2.528553   4.086772   2.581952   4.923227
    25  H    2.907060   2.983640   3.175548   4.034373   6.269008
    26  H    3.404135   4.133296   4.098611   2.736568   3.991573
    27  H    2.846682   4.723641   4.385582   4.135404   5.705841
    28  H    3.372856   5.425481   4.032712   4.126931   4.363982
    29  H    3.844583   6.963782   4.409378   6.283785   6.346484
    30  H    3.378585   7.424313   4.140968   7.636334   8.309287
    31  H    2.136098   6.531472   3.427855   7.383563   8.740434
    32  H    1.080013   4.864093   2.932484   5.666663   7.430076
    33  H    5.552467   1.005483   3.641981   3.709485   5.783599
                   21         22         23         24         25
    21  H    0.000000
    22  H    2.466566   0.000000
    23  H    4.278507   2.481494   0.000000
    24  H    6.457024   6.463361   4.907129   0.000000
    25  H    7.345467   6.773392   4.771560   1.769168   0.000000
    26  H    5.015176   5.106875   4.178941   2.437550   3.066438
    27  H    6.749120   6.582693   5.258830   2.566080   2.450021
    28  H    4.132738   3.638442   3.332380   4.505028   4.626503
    29  H    5.235579   3.733327   3.620292   6.523132   6.131109
    30  H    7.418100   5.532069   4.460257   7.154381   6.152804
    31  H    8.500939   6.831489   4.978722   6.111414   4.667527
    32  H    7.871958   6.782086   4.776691   3.890323   2.373328
    33  H    6.728361   6.131378   4.245254   3.514389   3.735368
                   26         27         28         29         30
    26  H    0.000000
    27  H    1.765516   0.000000
    28  H    2.306940   3.405323   0.000000
    29  H    4.616308   5.267469   2.454571   0.000000
    30  H    5.819049   5.841256   4.267808   2.470366   0.000000
    31  H    5.494708   4.905197   4.923857   4.269805   2.468552
    32  H    3.771721   2.815381   4.269500   4.924546   4.265501
    33  H    5.050200   5.639234   6.118612   7.421976   7.737329
                   31         32         33
    31  H    0.000000
    32  H    2.451686   0.000000
    33  H    6.858925   5.427744   0.000000
 Stoichiometry    C14H16N2S
 Framework group  C1[X(C14H16N2S)]
 Deg. of freedom    93
 Full point group                 C1      NOp   1
 Largest Abelian subgroup         C1      NOp   1
 Largest concise Abelian subgroup C1      NOp   1
                         Standard orientation:                         
 ---------------------------------------------------------------------
 Center     Atomic      Atomic             Coordinates (Angstroms)
 Number     Number       Type             X           Y           Z
 ---------------------------------------------------------------------
      1          7           0       -0.368468   -1.634693   -1.675165
      2         16           0        0.643293   -1.634105   -0.527490
      3          6           0        1.425646    0.001944   -0.280026
      4          6           0        2.416920    0.123679    0.675252
      5          6           0        3.048709    1.343489    0.847746
      6          6           0        2.694274    2.423940    0.054266
      7          6           0        1.719162    2.284858   -0.919722
      8          6           0        1.081966    1.066446   -1.089368
      9          6           0       -0.040996   -1.983417    1.156225
     10          6           0       -0.614368   -0.770701    1.872345
     11          6           0       -1.566396    0.014514    1.010680
     12          6           0       -1.354899    1.367952    0.782385
     13          6           0       -2.211636    2.090554   -0.030076
     14          6           0       -3.295728    1.468033   -0.623318
     15          6           0       -3.526755    0.123018   -0.386722
     16          6           0       -2.670454   -0.597044    0.426991
     17          7           0        1.717473   -2.713230   -0.637184
     18          1           0       -1.082543   -0.928019   -1.611584
     19          1           0        2.693283   -0.738741    1.262020
     20          1           0        3.819198    1.451689    1.596795
     21          1           0        3.187514    3.375124    0.190186
     22          1           0        1.454150    3.123233   -1.546463
     23          1           0        0.323503    0.934740   -1.846376
     24          1           0        0.789305   -2.427459    1.697429
     25          1           0       -0.793219   -2.748159    0.974433
     26          1           0        0.197672   -0.116030    2.196346
     27          1           0       -1.138922   -1.117023    2.769560
     28          1           0       -0.511092    1.861875    1.243709
     29          1           0       -2.028197    3.141156   -0.200850
     30          1           0       -3.961082    2.028360   -1.263089
     31          1           0       -4.375109   -0.368122   -0.839761
     32          1           0       -2.861942   -1.644690    0.606428
     33          1           0        1.919094   -2.990385   -1.582451
 ---------------------------------------------------------------------
 Rotational constants (GHZ):           0.6020879           0.4267644           0.3172195
 Standard basis: def2SVP (5D, 7F)
 There are   339 symmetry adapted cartesian basis functions of A   symmetry.
 There are   322 symmetry adapted basis functions of A   symmetry.
   322 basis functions,   549 primitive gaussians,   339 cartesian basis functions
    65 alpha electrons       65 beta electrons
       nuclear repulsion energy      1362.8530915192 Hartrees.
 NAtoms=   33 NActive=   33 NUniq=   33 SFac= 1.00D+00 NAtFMM=   60 NAOKFM=F Big=F
 Integral buffers will be    131072 words long.
 Raffenetti 2 integral format.
 Two-electron integral symmetry is turned on.
 Nuclear repulsion after empirical dispersion term =     1362.8073742229 Hartrees.
 One-electron integrals computed using PRISM.
   1 Symmetry operations used in ECPInt.
 ECPInt:  NShTT=   11628 NPrTT=   42474 LenC2=   11221 LenP2D=   29975.
 LDataN:  DoStor=T MaxTD1= 4 Len=   56
 NBasis=   322 RedAO= T EigKep=  2.27D-04  NBF=   322
 NBsUse=   322 1.00D-06 EigRej= -1.00D+00 NBFU=   322
 ExpMin= 1.22D-01 ExpMax= 9.18D+03 ExpMxC= 1.38D+03 IAcc=3 IRadAn=         5 AccDes= 0.00D+00
 Harris functional with IExCor= 1009 and IRadAn=       5 diagonalized for initial guess.
 HarFok:  IExCor= 1009 AccDes= 0.00D+00 IRadAn=         5 IDoV= 1 UseB2=F ITyADJ=14
 ICtDFT=  3500011 ScaDFX=  1.000000  1.000000  1.000000  1.000000
 FoFCou: FMM=F IPFlag=           0 FMFlag=      100000 FMFlg1=           0
         NFxFlg=           0 DoJE=T BraDBF=F KetDBF=T FulRan=T
         wScrn=  0.000000 ICntrl=       500 IOpCl=  0 I1Cent=   200000004 NGrid=           0
         NMat0=    1 NMatS0=      1 NMatT0=    0 NMatD0=    1 NMtDS0=    0 NMtDT0=    0
 Petite list used in FoFCou.
 Requested convergence on RMS density matrix=1.00D-08 within 128 cycles.
 Requested convergence on MAX density matrix=1.00D-06.
 Requested convergence on             energy=1.00D-06.
 No special actions if energy rises.
 Integral accuracy reduced to 1.0D-05 until final iterations.
 Initial convergence to 1.0D-05 achieved.  Increase integral accuracy.
 SCF Done:  E(RPBE1PBE) =  -1049.21637477     A.U. after   14 cycles
            NFock= 14  Conv=0.71D-08     -V/T= 2.0069

 **********************************************************************

            Population analysis using the SCF Density.

 **********************************************************************

 Orbital symmetries:
       Occupied  (A) (A) (A) (A) (A) (A) (A) (A) (A) (A) (A) (A)
                 (A) (A) (A) (A) (A) (A) (A) (A) (A) (A) (A) (A)
                 (A) (A) (A) (A) (A) (A) (A) (A) (A) (A) (A) (A)
                 (A) (A) (A) (A) (A) (A) (A) (A) (A) (A) (A) (A)
                 (A) (A) (A) (A) (A) (A) (A) (A) (A) (A) (A) (A)
                 (A) (A) (A) (A) (A)
       Virtual   (A) (A) (A) (A) (A) (A) (A) (A) (A) (A) (A) (A)
                 (A) (A) (A) (A) (A) (A) (A) (A) (A) (A) (A) (A)
                 (A) (A) (A) (A) (A) (A) (A) (A) (A) (A) (A) (A)
                 (A) (A) (A) (A) (A) (A) (A) (A) (A) (A) (A) (A)
                 (A) (A) (A) (A) (A) (A) (A) (A) (A) (A) (A) (A)
                 (A) (A) (A) (A) (A) (A) (A) (A) (A) (A) (A) (A)
                 (A) (A) (A) (A) (A) (A) (A) (A) (A) (A) (A) (A)
                 (A) (A) (A) (A) (A) (A) (A) (A) (A) (A) (A) (A)
                 (A) (A) (A) (A) (A) (A) (A) (A) (A) (A) (A) (A)
                 (A) (A) (A) (A) (A) (A) (A) (A) (A) (A) (A) (A)
                 (A) (A) (A) (A) (A) (A) (A) (A) (A) (A) (A) (A)
                 (A) (A) (A) (A) (A) (A) (A) (A) (A) (A) (A) (A)
                 (A) (A) (A) (A) (A) (A) (A) (A) (A) (A) (A) (A)
                 (A) (A) (A) (A) (A) (A) (A) (A) (A) (A) (A) (A)
                 (A) (A) (A) (A) (A) (A) (A) (A) (A) (A) (A) (A)
                 (A) (A) (A) (A) (A) (A) (A) (A) (A) (A) (A) (A)
                 (A) (A) (A) (A) (A) (A) (A) (A) (A) (A) (A) (A)
                 (A) (A) (A) (A) (A) (A) (A) (A) (A) (A) (A) (A)
                 (A) (A) (A) (A) (A) (A) (A) (A) (A) (A) (A) (A)
                 (A) (A) (A) (A) (A) (A) (A) (A) (A) (A) (A) (A)
                 (A) (A) (A) (A) (A) (A) (A) (A) (A) (A) (A) (A)
                 (A) (A) (A) (A) (A)
 The electronic state is 1-A.
 Alpha  occ. eigenvalues --  -89.17298 -14.33845 -14.32570 -10.26321 -10.26023
 Alpha  occ. eigenvalues --  -10.25440 -10.25426 -10.25312 -10.25237 -10.25227
 Alpha  occ. eigenvalues --  -10.25153 -10.25047 -10.24372 -10.24318 -10.24295
 Alpha  occ. eigenvalues --  -10.24239 -10.24209  -8.14715  -6.08831  -6.08763
 Alpha  occ. eigenvalues --   -6.08719  -0.99857  -0.89705  -0.89385  -0.84081
 Alpha  occ. eigenvalues --   -0.82914  -0.78675  -0.78204  -0.77315  -0.76117
 Alpha  occ. eigenvalues --   -0.68825  -0.65536  -0.63866  -0.63135  -0.61193
 Alpha  occ. eigenvalues --   -0.59289  -0.55724  -0.54103  -0.52022  -0.50135
 Alpha  occ. eigenvalues --   -0.49497  -0.48856  -0.48333  -0.47118  -0.46590
 Alpha  occ. eigenvalues --   -0.45791  -0.45207  -0.44209  -0.43209  -0.41903
 Alpha  occ. eigenvalues --   -0.40495  -0.39626  -0.38553  -0.38255  -0.37368
 Alpha  occ. eigenvalues --   -0.36036  -0.35799  -0.30076  -0.29374  -0.28740
 Alpha  occ. eigenvalues --   -0.27588  -0.26748  -0.26568  -0.24360  -0.23256
 Alpha virt. eigenvalues --   -0.03555  -0.02034  -0.01008  -0.00735   0.05240
 Alpha virt. eigenvalues --    0.06661   0.07795   0.08078   0.08484   0.09406
 Alpha virt. eigenvalues --    0.10185   0.10335   0.11825   0.12248   0.12798
 Alpha virt. eigenvalues --    0.13329   0.14210   0.14520   0.14964   0.16112
 Alpha virt. eigenvalues --    0.16816   0.17824   0.18551   0.19230   0.19722
 Alpha virt. eigenvalues --    0.20264   0.23915   0.25456   0.28515   0.28871
 Alpha virt. eigenvalues --    0.29293   0.30238   0.30525   0.31486   0.32447
 Alpha virt. eigenvalues --    0.33811   0.35409   0.37363   0.39134   0.40146
 Alpha virt. eigenvalues --    0.40524   0.41288   0.43453   0.43686   0.45372
 Alpha virt. eigenvalues --    0.45712   0.46114   0.46993   0.47688   0.48000
 Alpha virt. eigenvalues --    0.48556   0.49242   0.50481   0.51068   0.51607
 Alpha virt. eigenvalues --    0.52049   0.53624   0.54867   0.55799   0.56227
 Alpha virt. eigenvalues --    0.57690   0.58785   0.59366   0.61028   0.61526
 Alpha virt. eigenvalues --    0.62867   0.63665   0.64503   0.65241   0.65609
 Alpha virt. eigenvalues --    0.66482   0.66682   0.66871   0.67328   0.67492
 Alpha virt. eigenvalues --    0.68811   0.69320   0.69810   0.70410   0.70698
 Alpha virt. eigenvalues --    0.72046   0.72479   0.72860   0.73327   0.73784
 Alpha virt. eigenvalues --    0.74324   0.74703   0.75321   0.76195   0.76391
 Alpha virt. eigenvalues --    0.77559   0.78624   0.79284   0.79770   0.82409
 Alpha virt. eigenvalues --    0.83059   0.83475   0.84836   0.85676   0.87948
 Alpha virt. eigenvalues --    0.88607   0.89562   0.90311   0.91773   0.94228
 Alpha virt. eigenvalues --    0.95070   0.96503   0.98090   0.98858   1.00328
 Alpha virt. eigenvalues --    1.01605   1.03979   1.06334   1.08525   1.10034
 Alpha virt. eigenvalues --    1.11590   1.12893   1.14997   1.15499   1.16954
 Alpha virt. eigenvalues --    1.18749   1.20741   1.21749   1.22837   1.24389
 Alpha virt. eigenvalues --    1.25736   1.25984   1.27343   1.27706   1.29484
 Alpha virt. eigenvalues --    1.30196   1.31377   1.32379   1.32991   1.34081
 Alpha virt. eigenvalues --    1.35439   1.35923   1.41672   1.44888   1.46960
 Alpha virt. eigenvalues --    1.49602   1.51498   1.54802   1.56168   1.56969
 Alpha virt. eigenvalues --    1.57358   1.66259   1.67827   1.69145   1.69496
 Alpha virt. eigenvalues --    1.70364   1.70605   1.71612   1.72848   1.73902
 Alpha virt. eigenvalues --    1.74657   1.75902   1.76665   1.76842   1.77770
 Alpha virt. eigenvalues --    1.78489   1.78639   1.79738   1.79931   1.80111
 Alpha virt. eigenvalues --    1.81388   1.82018   1.82832   1.83644   1.85878
 Alpha virt. eigenvalues --    1.86160   1.87450   1.88853   1.91002   1.92147
 Alpha virt. eigenvalues --    1.93919   1.95612   1.96199   1.96909   1.97919
 Alpha virt. eigenvalues --    1.98608   1.99534   2.00254   2.01899   2.03459
 Alpha virt. eigenvalues --    2.03886   2.06833   2.08320   2.10866   2.12421
 Alpha virt. eigenvalues --    2.12656   2.15428   2.16003   2.17209   2.17921
 Alpha virt. eigenvalues --    2.19267   2.19459   2.20671   2.23037   2.24740
 Alpha virt. eigenvalues --    2.27739   2.28298   2.30101   2.31172   2.31806
 Alpha virt. eigenvalues --    2.32292   2.33322   2.34629   2.35875   2.36387
 Alpha virt. eigenvalues --    2.36712   2.38964   2.41893   2.42647   2.42903
 Alpha virt. eigenvalues --    2.44312   2.49865   2.50273   2.54798   2.55867
 Alpha virt. eigenvalues --    2.60431   2.61023   2.61661   2.63094   2.64919
 Alpha virt. eigenvalues --    2.65497   2.66092   2.67052   2.67136   2.69325
 Alpha virt. eigenvalues --    2.71158   2.75919   2.76191   2.76829   2.77866
 Alpha virt. eigenvalues --    2.83320   2.84944   2.86817   2.87974   2.89840
 Alpha virt. eigenvalues --    2.91131   2.93145   2.93471   2.96380   2.99634
 Alpha virt. eigenvalues --    3.03834   3.05073   3.06833   3.12966   3.16235
 Alpha virt. eigenvalues --    3.17423   3.24513   3.29198   3.29868   3.35757
 Alpha virt. eigenvalues --    3.65925   3.69033
          Condensed to atoms (all electrons):
               1          2          3          4          5          6
     1  N    6.849386   0.360145  -0.068239   0.005594  -0.000017  -0.000022
     2  S    0.360145  14.713995   0.071163  -0.046274   0.001709   0.000025
     3  C   -0.068239   0.071163   6.011576   0.132202   0.127698  -0.204220
     4  C    0.005594  -0.046274   0.132202   5.189413   0.259400   0.109391
     5  C   -0.000017   0.001709   0.127698   0.259400   5.096373   0.246691
     6  C   -0.000022   0.000025  -0.204220   0.109391   0.246691   5.157956
     7  C    0.001179   0.005768   0.110432  -0.147267   0.097813   0.245253
     8  C    0.006397  -0.036064   0.231330   0.072060  -0.156021   0.113121
     9  C   -0.041045   0.242217  -0.125971  -0.007093  -0.000811  -0.000194
    10  C   -0.006021  -0.035692   0.015632  -0.003762  -0.001309   0.000213
    11  C    0.001713  -0.016089  -0.009416  -0.001945   0.000132  -0.000040
    12  C   -0.000635   0.005367   0.002420  -0.000953   0.000491  -0.001394
    13  C    0.000189  -0.000572  -0.000530   0.000099  -0.000071   0.000102
    14  C   -0.000065   0.000104  -0.000008  -0.000006   0.000002  -0.000003
    15  C   -0.002553  -0.000237  -0.000345   0.000017  -0.000002   0.000002
    16  C    0.006152   0.001598   0.002540  -0.000202   0.000022   0.000000
    17  N   -0.063052   0.361814  -0.067021   0.010876   0.000922  -0.000049
    18  H    0.328730  -0.007651  -0.005891  -0.000814  -0.000042   0.000007
    19  H    0.000439  -0.009875  -0.077724   0.449938  -0.056618   0.013588
    20  H    0.000001  -0.000143   0.017607  -0.074105   0.456983  -0.073928
    21  H   -0.000000   0.000019  -0.001761   0.015006  -0.069950   0.451611
    22  H   -0.000003  -0.000142   0.018967  -0.002304   0.014935  -0.076777
    23  H    0.020649  -0.006216  -0.077515   0.017021  -0.002267   0.013632
    24  H    0.003582  -0.001135  -0.002731   0.004059   0.000584   0.000015
    25  H    0.005519  -0.015805   0.009002  -0.000009  -0.000002   0.000004
    26  H   -0.000008  -0.011682   0.008321   0.004074  -0.000303  -0.000207
    27  H   -0.000165   0.005189  -0.000518   0.000011   0.000026  -0.000010
    28  H    0.000000  -0.000063  -0.004528  -0.001039   0.001271   0.001972
    29  H   -0.000001  -0.000006   0.000005  -0.000010  -0.000004   0.000047
    30  H   -0.000004  -0.000000   0.000003  -0.000000   0.000000  -0.000000
    31  H   -0.000002  -0.000013   0.000001  -0.000000  -0.000000   0.000000
    32  H    0.000706  -0.000529   0.000023  -0.000001   0.000000  -0.000000
    33  H    0.003303  -0.013162   0.002349  -0.001763  -0.000035  -0.000001
               7          8          9         10         11         12
     1  N    0.001179   0.006397  -0.041045  -0.006021   0.001713  -0.000635
     2  S    0.005768  -0.036064   0.242217  -0.035692  -0.016089   0.005367
     3  C    0.110432   0.231330  -0.125971   0.015632  -0.009416   0.002420
     4  C   -0.147267   0.072060  -0.007093  -0.003762  -0.001945  -0.000953
     5  C    0.097813  -0.156021  -0.000811  -0.001309   0.000132   0.000491
     6  C    0.245253   0.113121  -0.000194   0.000213  -0.000040  -0.001394
     7  C    5.129893   0.229781  -0.000150   0.000545   0.001137  -0.002534
     8  C    0.229781   5.130043   0.003723   0.002076  -0.001211  -0.013331
     9  C   -0.000150   0.003723   5.238018   0.225579  -0.057869   0.005299
    10  C    0.000545   0.002076   0.225579   4.980574   0.276886  -0.078247
    11  C    0.001137  -0.001211  -0.057869   0.276886   5.620414   0.240981
    12  C   -0.002534  -0.013331   0.005299  -0.078247   0.240981   5.137506
    13  C    0.000984   0.000113  -0.000870   0.014105   0.107061   0.273711
    14  C   -0.000125  -0.000406   0.000205  -0.000809  -0.177213   0.100722
    15  C    0.000037   0.000274  -0.000544   0.015936   0.112837  -0.151838
    16  C   -0.000196  -0.000575   0.000170  -0.135027   0.192289   0.070204
    17  N   -0.000085  -0.002138  -0.098533   0.007492   0.000502  -0.000073
    18  H    0.000665   0.004875  -0.002455  -0.002029   0.004980  -0.002601
    19  H   -0.001548   0.013432   0.004519  -0.002980   0.000153  -0.000014
    20  H    0.014697  -0.002005   0.000053  -0.000035   0.000003  -0.000008
    21  H   -0.070092   0.015081  -0.000001   0.000003   0.000002  -0.000024
    22  H    0.458242  -0.074698   0.000013  -0.000022  -0.000026   0.000193
    23  H   -0.049955   0.427840   0.001502   0.000764  -0.001132   0.000761
    24  H   -0.000014  -0.000729   0.342432  -0.015325   0.010115  -0.000061
    25  H   -0.000010  -0.000034   0.339696   0.005201  -0.016760  -0.000309
    26  H   -0.000193   0.000512  -0.008373   0.354446  -0.012279  -0.014700
    27  H    0.000004  -0.000104  -0.003235   0.344140  -0.008533   0.005043
    28  H   -0.000970   0.002063   0.000724  -0.020345  -0.067893   0.446650
    29  H    0.000549   0.000132   0.000010  -0.000335   0.017851  -0.073180
    30  H   -0.000002  -0.000010  -0.000000   0.000038  -0.001681   0.014993
    31  H    0.000000  -0.000001   0.000010  -0.000299   0.016823  -0.001994
    32  H   -0.000000  -0.000044   0.005346  -0.019295  -0.080329   0.015878
    33  H   -0.000024   0.000424   0.007972  -0.000359  -0.000054   0.000012
              13         14         15         16         17         18
     1  N    0.000189  -0.000065  -0.002553   0.006152  -0.063052   0.328730
     2  S   -0.000572   0.000104  -0.000237   0.001598   0.361814  -0.007651
     3  C   -0.000530  -0.000008  -0.000345   0.002540  -0.067021  -0.005891
     4  C    0.000099  -0.000006   0.000017  -0.000202   0.010876  -0.000814
     5  C   -0.000071   0.000002  -0.000002   0.000022   0.000922  -0.000042
     6  C    0.000102  -0.000003   0.000002   0.000000  -0.000049   0.000007
     7  C    0.000984  -0.000125   0.000037  -0.000196  -0.000085   0.000665
     8  C    0.000113  -0.000406   0.000274  -0.000575  -0.002138   0.004875
     9  C   -0.000870   0.000205  -0.000544   0.000170  -0.098533  -0.002455
    10  C    0.014105  -0.000809   0.015936  -0.135027   0.007492  -0.002029
    11  C    0.107061  -0.177213   0.112837   0.192289   0.000502   0.004980
    12  C    0.273711   0.100722  -0.151838   0.070204  -0.000073  -0.002601
    13  C    5.090155   0.254753   0.096200  -0.148063   0.000002   0.000211
    14  C    0.254753   5.144658   0.257383   0.095208  -0.000000   0.000231
    15  C    0.096200   0.257383   5.072872   0.274820   0.000002   0.002916
    16  C   -0.148063   0.095208   0.274820   5.239426  -0.000074   0.001757
    17  N    0.000002  -0.000000   0.000002  -0.000074   6.913135   0.003718
    18  H    0.000211   0.000231   0.002916   0.001757   0.003718   0.533959
    19  H    0.000003  -0.000000   0.000000  -0.000006   0.012004  -0.000081
    20  H    0.000000  -0.000000   0.000000  -0.000000  -0.000003   0.000000
    21  H   -0.000001  -0.000000   0.000000  -0.000000  -0.000000  -0.000000
    22  H    0.000108   0.000016  -0.000003   0.000001   0.000003  -0.000003
    23  H    0.001381   0.000386   0.000549  -0.001542  -0.000174   0.002740
    24  H    0.000008   0.000000  -0.000018   0.000378   0.013599  -0.000266
    25  H    0.000073  -0.000011  -0.000160   0.008626   0.006019  -0.000435
    26  H    0.000669  -0.000001  -0.000457   0.012859   0.000167   0.000002
    27  H   -0.000843   0.000143   0.000019  -0.008535  -0.000253   0.000002
    28  H   -0.064841   0.015283  -0.002107   0.016764  -0.000001  -0.000084
    29  H    0.455584  -0.076706   0.015029  -0.002057  -0.000000  -0.000008
    30  H   -0.071265   0.452964  -0.071235   0.014963  -0.000000   0.000026
    31  H    0.014945  -0.074028   0.455293  -0.072110  -0.000000   0.000039
    32  H   -0.002139   0.015425  -0.062376   0.457185  -0.000046  -0.000306
    33  H   -0.000001   0.000000  -0.000000   0.000007   0.331735  -0.000101
              19         20         21         22         23         24
     1  N    0.000439   0.000001  -0.000000  -0.000003   0.020649   0.003582
     2  S   -0.009875  -0.000143   0.000019  -0.000142  -0.006216  -0.001135
     3  C   -0.077724   0.017607  -0.001761   0.018967  -0.077515  -0.002731
     4  C    0.449938  -0.074105   0.015006  -0.002304   0.017021   0.004059
     5  C   -0.056618   0.456983  -0.069950   0.014935  -0.002267   0.000584
     6  C    0.013588  -0.073928   0.451611  -0.076777   0.013632   0.000015
     7  C   -0.001548   0.014697  -0.070092   0.458242  -0.049955  -0.000014
     8  C    0.013432  -0.002005   0.015081  -0.074698   0.427840  -0.000729
     9  C    0.004519   0.000053  -0.000001   0.000013   0.001502   0.342432
    10  C   -0.002980  -0.000035   0.000003  -0.000022   0.000764  -0.015325
    11  C    0.000153   0.000003   0.000002  -0.000026  -0.001132   0.010115
    12  C   -0.000014  -0.000008  -0.000024   0.000193   0.000761  -0.000061
    13  C    0.000003   0.000000  -0.000001   0.000108   0.001381   0.000008
    14  C   -0.000000  -0.000000  -0.000000   0.000016   0.000386   0.000000
    15  C    0.000000   0.000000   0.000000  -0.000003   0.000549  -0.000018
    16  C   -0.000006  -0.000000  -0.000000   0.000001  -0.001542   0.000378
    17  N    0.012004  -0.000003  -0.000000   0.000003  -0.000174   0.013599
    18  H   -0.000081   0.000000  -0.000000  -0.000003   0.002740  -0.000266
    19  H    0.640719  -0.011616  -0.000237   0.000032  -0.000172   0.001409
    20  H   -0.011616   0.663102  -0.012275  -0.000262   0.000039  -0.000021
    21  H   -0.000237  -0.012275   0.663317  -0.012280  -0.000246   0.000000
    22  H    0.000032  -0.000262  -0.012280   0.666653  -0.011889   0.000000
    23  H   -0.000172   0.000039  -0.000246  -0.011889   0.651725  -0.000086
    24  H    0.001409  -0.000021   0.000000   0.000000  -0.000086   0.578725
    25  H   -0.000140  -0.000001   0.000000  -0.000000  -0.000094  -0.005550
    26  H    0.001547   0.000102  -0.000007   0.000001  -0.000040  -0.009712
    27  H    0.000012   0.000001  -0.000000   0.000000   0.000008  -0.003281
    28  H   -0.000047   0.000001   0.000031  -0.000088  -0.000128  -0.000027
    29  H    0.000000  -0.000000   0.000001   0.000159  -0.000020  -0.000000
    30  H    0.000000   0.000000   0.000000   0.000000  -0.000004   0.000000
    31  H   -0.000000  -0.000000   0.000000  -0.000000  -0.000001  -0.000001
    32  H    0.000001   0.000000  -0.000000   0.000000  -0.000004  -0.000150
    33  H   -0.000258   0.000000   0.000000  -0.000000   0.000061  -0.000915
              25         26         27         28         29         30
     1  N    0.005519  -0.000008  -0.000165   0.000000  -0.000001  -0.000004
     2  S   -0.015805  -0.011682   0.005189  -0.000063  -0.000006  -0.000000
     3  C    0.009002   0.008321  -0.000518  -0.004528   0.000005   0.000003
     4  C   -0.000009   0.004074   0.000011  -0.001039  -0.000010  -0.000000
     5  C   -0.000002  -0.000303   0.000026   0.001271  -0.000004   0.000000
     6  C    0.000004  -0.000207  -0.000010   0.001972   0.000047  -0.000000
     7  C   -0.000010  -0.000193   0.000004  -0.000970   0.000549  -0.000002
     8  C   -0.000034   0.000512  -0.000104   0.002063   0.000132  -0.000010
     9  C    0.339696  -0.008373  -0.003235   0.000724   0.000010  -0.000000
    10  C    0.005201   0.354446   0.344140  -0.020345  -0.000335   0.000038
    11  C   -0.016760  -0.012279  -0.008533  -0.067893   0.017851  -0.001681
    12  C   -0.000309  -0.014700   0.005043   0.446650  -0.073180   0.014993
    13  C    0.000073   0.000669  -0.000843  -0.064841   0.455584  -0.071265
    14  C   -0.000011  -0.000001   0.000143   0.015283  -0.076706   0.452964
    15  C   -0.000160  -0.000457   0.000019  -0.002107   0.015029  -0.071235
    16  C    0.008626   0.012859  -0.008535   0.016764  -0.002057   0.014963
    17  N    0.006019   0.000167  -0.000253  -0.000001  -0.000000  -0.000000
    18  H   -0.000435   0.000002   0.000002  -0.000084  -0.000008   0.000026
    19  H   -0.000140   0.001547   0.000012  -0.000047   0.000000   0.000000
    20  H   -0.000001   0.000102   0.000001   0.000001  -0.000000   0.000000
    21  H    0.000000  -0.000007  -0.000000   0.000031   0.000001   0.000000
    22  H   -0.000000   0.000001   0.000000  -0.000088   0.000159   0.000000
    23  H   -0.000094  -0.000040   0.000008  -0.000128  -0.000020  -0.000004
    24  H   -0.005550  -0.009712  -0.003281  -0.000027  -0.000000   0.000000
    25  H    0.581127   0.005890  -0.011328  -0.000014   0.000000  -0.000000
    26  H    0.005890   0.646599  -0.020275   0.008802  -0.000009  -0.000001
    27  H   -0.011328  -0.020275   0.633386   0.000255   0.000010  -0.000001
    28  H   -0.000014   0.008802   0.000255   0.672803  -0.013189  -0.000281
    29  H    0.000000  -0.000009   0.000010  -0.013189   0.676471  -0.012554
    30  H   -0.000000  -0.000001  -0.000001  -0.000281  -0.012554   0.669249
    31  H    0.000013   0.000010   0.000001   0.000032  -0.000291  -0.012329
    32  H    0.001769   0.000140   0.002727  -0.000244   0.000035  -0.000283
    33  H   -0.000392  -0.000005   0.000015   0.000000   0.000000  -0.000000
              31         32         33
     1  N   -0.000002   0.000706   0.003303
     2  S   -0.000013  -0.000529  -0.013162
     3  C    0.000001   0.000023   0.002349
     4  C   -0.000000  -0.000001  -0.001763
     5  C   -0.000000   0.000000  -0.000035
     6  C    0.000000  -0.000000  -0.000001
     7  C    0.000000  -0.000000  -0.000024
     8  C   -0.000001  -0.000044   0.000424
     9  C    0.000010   0.005346   0.007972
    10  C   -0.000299  -0.019295  -0.000359
    11  C    0.016823  -0.080329  -0.000054
    12  C   -0.001994   0.015878   0.000012
    13  C    0.014945  -0.002139  -0.000001
    14  C   -0.074028   0.015425   0.000000
    15  C    0.455293  -0.062376  -0.000000
    16  C   -0.072110   0.457185   0.000007
    17  N   -0.000000  -0.000046   0.331735
    18  H    0.000039  -0.000306  -0.000101
    19  H   -0.000000   0.000001  -0.000258
    20  H   -0.000000   0.000000   0.000000
    21  H    0.000000  -0.000000   0.000000
    22  H   -0.000000   0.000000  -0.000000
    23  H   -0.000001  -0.000004   0.000061
    24  H   -0.000001  -0.000150  -0.000915
    25  H    0.000013   0.001769  -0.000392
    26  H    0.000010   0.000140  -0.000005
    27  H    0.000001   0.002727   0.000015
    28  H    0.000032  -0.000244   0.000000
    29  H   -0.000291   0.000035   0.000000
    30  H   -0.012329  -0.000283  -0.000000
    31  H    0.667910  -0.013103   0.000000
    32  H   -0.013103   0.673699   0.000001
    33  H    0.000000   0.000001   0.544641
 Mulliken charges:
               1
     1  N   -0.411854
     2  S    0.432237
     3  C   -0.114852
     4  C    0.018387
     5  C   -0.017603
     6  C    0.003214
     7  C   -0.023815
     8  C    0.034092
     9  C   -0.070344
    10  C    0.078264
    11  C   -0.151408
    12  C    0.021666
    13  C   -0.021258
    14  C   -0.008103
    15  C   -0.012311
    16  C   -0.026583
    17  N   -0.430488
    18  H    0.137908
    19  H    0.023518
    20  H    0.021812
    21  H    0.021801
    22  H    0.019172
    23  H    0.012429
    24  H    0.085114
    25  H    0.088114
    26  H    0.034110
    27  H    0.066087
    28  H    0.009237
    29  H    0.012486
    30  H    0.017414
    31  H    0.019093
    32  H    0.005916
    33  H    0.126549
 Sum of Mulliken charges =  -0.00000
 Mulliken charges with hydrogens summed into heavy atoms:
               1
     1  N   -0.273946
     2  S    0.432237
     3  C   -0.114852
     4  C    0.041905
     5  C    0.004209
     6  C    0.025015
     7  C   -0.004643
     8  C    0.046521
     9  C    0.102885
    10  C    0.178461
    11  C   -0.151408
    12  C    0.030903
    13  C   -0.008773
    14  C    0.009311
    15  C    0.006782
    16  C   -0.020667
    17  N   -0.303940
 Electronic spatial extent (au):  <R**2>=           3811.1215
 Charge=              0.0000 electrons
 Dipole moment (field-independent basis, Debye):
    X=             -0.8678    Y=              3.5568    Z=              2.2227  Tot=              4.2830
 Quadrupole moment (field-independent basis, Debye-Ang):
   XX=           -104.1669   YY=           -108.5437   ZZ=           -107.3060
   XY=              7.5812   XZ=              4.5462   YZ=             -7.7337
 Traceless Quadrupole moment (field-independent basis, Debye-Ang):
   XX=              2.5053   YY=             -1.8715   ZZ=             -0.6338
   XY=              7.5812   XZ=              4.5462   YZ=             -7.7337
 Octapole moment (field-independent basis, Debye-Ang**2):
  XXX=             -9.1912  YYY=             35.8313  ZZZ=              7.0470  XYY=             -5.9221
  XXY=              9.2513  XXZ=             -6.0512  XZZ=             10.4778  YZZ=             -3.3090
  YYZ=              0.6614  XYZ=             15.2755
 Hexadecapole moment (field-independent basis, Debye-Ang**3):
 XXXX=          -2669.5470 YYYY=          -1773.1271 ZZZZ=           -728.3996 XXXY=             61.5002
 XXXZ=            121.5215 YYYX=             64.4460 YYYZ=            -25.0642 ZZZX=              0.2095
 ZZZY=            -19.5327 XXYY=           -724.2608 XXZZ=           -555.5391 YYZZ=           -403.9352
 XXYZ=              3.4131 YYXZ=            -13.1873 ZZXY=            -20.1255
 N-N= 1.362807374223D+03 E-N=-5.179478195831D+03  KE= 1.042050045509D+03
   1 Symmetry operations used in ECPInt.
 ECPInt:  NShTT=   11628 NPrTT=   42474 LenC2=   11221 LenP2D=   29975.
 LDataN:  DoStor=T MaxTD1= 5 Len=  102
 Calling FoFJK, ICntrl=      2127 FMM=F ISym2X=0 I1Cent= 0 IOpClX= 0 NMat=1 NMatS=1 NMatT=0.
 ***** Axes restored to original set *****
 -------------------------------------------------------------------
 Center     Atomic                   Forces (Hartrees/Bohr)
 Number     Number              X              Y              Z
 -------------------------------------------------------------------
      1        7           0.002938029   -0.000155113   -0.006885292
      2       16           0.010038996   -0.001872817    0.003576013
      3        6           0.004552837   -0.010108440   -0.003094545
      4        6           0.000981379    0.001051847    0.001757495
      5        6           0.000085118   -0.001077818    0.000955479
      6        6          -0.001004704    0.000779164   -0.000447866
      7        6           0.000917649    0.000139898    0.000161025
      8        6           0.001447937   -0.000462035   -0.002730605
      9        6          -0.011804772    0.012282074   -0.004176150
     10        6           0.002907409   -0.001198013   -0.008579855
     11        6           0.000629625    0.000505527    0.008838620
     12        6          -0.001616006   -0.001378270    0.000657575
     13        6          -0.001032593    0.000270495   -0.000227555
     14        6          -0.000989081    0.000495407   -0.001148319
     15        6           0.000905036   -0.001304322   -0.000522634
     16        6          -0.001290756   -0.000448143    0.000141911
     17        7           0.003146840   -0.001876550    0.024244448
     18        1          -0.012452394   -0.003183654   -0.001430100
     19        1           0.006655155   -0.001346648    0.007562957
     20        1           0.000488621    0.004636151    0.007736275
     21        1          -0.005488204    0.007165502    0.001202686
     22        1          -0.005646404    0.002433907   -0.006819027
     23        1          -0.000249514   -0.004883721   -0.007674895
     24        1           0.005675645    0.002431476    0.005664633
     25        1           0.005732265   -0.004657255   -0.005321926
     26        1          -0.001801055    0.002804163    0.003135356
     27        1           0.000126399   -0.002789817    0.004792110
     28        1          -0.000672125    0.006881358    0.004621875
     29        1          -0.006710886    0.005773639   -0.002219217
     30        1          -0.005079374   -0.001575779   -0.007507243
     31        1           0.001625362   -0.007408946   -0.005153599
     32        1           0.007097170   -0.005782378    0.001685347
     33        1          -0.000113603    0.003859111   -0.012794977
 -------------------------------------------------------------------
 Cartesian Forces:  Max     0.024244448 RMS     0.005321234

 GradGradGradGradGradGradGradGradGradGradGradGradGradGradGradGradGradGrad
 Berny optimization.
 FormGI is forming the generalized inverse of G from B-inverse, IUseBI=4.
 Internal  Forces:  Max     0.018331525 RMS     0.004791469
 Search for a local minimum.
 Step number   1 out of a maximum of  184
 All quantities printed in internal units (Hartrees-Bohrs-Radians)
 Mixed Optimization -- RFO/linear search
 Second derivative matrix not updated -- first step.
 ITU=  0
     Eigenvalues ---    0.00230   0.00230   0.00493   0.00698   0.01513
     Eigenvalues ---    0.01606   0.02234   0.02259   0.02268   0.02274
     Eigenvalues ---    0.02278   0.02282   0.02283   0.02285   0.02293
     Eigenvalues ---    0.02295   0.02297   0.02300   0.02301   0.02309
     Eigenvalues ---    0.02313   0.02331   0.03471   0.03545   0.03590
     Eigenvalues ---    0.04209   0.04698   0.05534   0.06511   0.08095
     Eigenvalues ---    0.08651   0.09228   0.09371   0.12323   0.12843
     Eigenvalues ---    0.15998   0.15999   0.16000   0.16000   0.16000
     Eigenvalues ---    0.16000   0.16000   0.16000   0.16000   0.16000
     Eigenvalues ---    0.16000   0.16000   0.16666   0.19398   0.21982
     Eigenvalues ---    0.21998   0.21999   0.21999   0.21999   0.22023
     Eigenvalues ---    0.22496   0.23473   0.23475   0.23869   0.24946
     Eigenvalues ---    0.25000   0.30308   0.31846   0.34186   0.34556
     Eigenvalues ---    0.35046   0.35275   0.35861   0.35984   0.35988
     Eigenvalues ---    0.35992   0.35993   0.36007   0.36018   0.36022
     Eigenvalues ---    0.36035   0.36104   0.43393   0.43437   0.43593
     Eigenvalues ---    0.43798   0.46539   0.46737   0.47566   0.47882
     Eigenvalues ---    0.48054   0.48216   0.48326   0.48422   0.48467
     Eigenvalues ---    0.48775   0.67549   0.68511
 RFO step:  Lambda=-1.51528996D-02 EMin= 2.30000000D-03
 Linear search not attempted -- first point.
 Iteration  1 RMS(Cart)=  0.24801026 RMS(Int)=  0.00458391
 Iteration  2 RMS(Cart)=  0.01416284 RMS(Int)=  0.00029746
 Iteration  3 RMS(Cart)=  0.00006409 RMS(Int)=  0.00029665
 Iteration  4 RMS(Cart)=  0.00000001 RMS(Int)=  0.00029665
 Variable       Old X    -DE/DX   Delta X   Delta X   Delta X     New X
                                 (Linear)    (Quad)   (Total)
    R1        2.89123   0.00965   0.00000   0.01397   0.01397   2.90520
    R2        1.90228   0.01277   0.00000   0.02658   0.02658   1.92887
    R3        3.45875  -0.00319   0.00000  -0.01258  -0.01258   3.44617
    R4        3.49735  -0.00558   0.00000  -0.02323  -0.02323   3.47412
    R5        2.88479   0.00618   0.00000   0.00883   0.00883   2.89362
    R6        2.61165   0.01210   0.00000   0.02428   0.02430   2.63595
    R7        2.60913   0.00920   0.00000   0.01832   0.01834   2.62747
    R8        2.61633   0.00876   0.00000   0.01769   0.01769   2.63402
    R9        2.03919   0.01006   0.00000   0.02675   0.02675   2.06594
   R10        2.62026   0.01042   0.00000   0.02098   0.02096   2.64122
   R11        2.04094   0.00903   0.00000   0.02407   0.02407   2.06501
   R12        2.61769   0.00982   0.00000   0.01956   0.01954   2.63724
   R13        2.04100   0.00911   0.00000   0.02428   0.02428   2.06528
   R14        2.61802   0.00910   0.00000   0.01824   0.01824   2.63627
   R15        2.04047   0.00918   0.00000   0.02446   0.02446   2.06493
   R16        2.04027   0.00909   0.00000   0.02422   0.02422   2.06449
   R17        2.87354   0.00566   0.00000   0.01779   0.01779   2.89133
   R18        2.05231   0.00825   0.00000   0.02243   0.02243   2.07474
   R19        2.05600   0.00769   0.00000   0.02104   0.02104   2.07704
   R20        2.84427   0.00542   0.00000   0.01624   0.01624   2.86050
   R21        2.06403   0.00425   0.00000   0.01179   0.01179   2.07582
   R22        2.07017   0.00523   0.00000   0.01465   0.01465   2.08482
   R23        2.62437   0.00954   0.00000   0.01935   0.01936   2.64373
   R24        2.62777   0.01067   0.00000   0.02184   0.02185   2.64961
   R25        2.61592   0.01052   0.00000   0.02108   0.02108   2.63700
   R26        2.04299   0.00826   0.00000   0.02211   0.02211   2.06510
   R27        2.61488   0.00973   0.00000   0.01955   0.01955   2.63443
   R28        2.04106   0.00913   0.00000   0.02433   0.02433   2.06539
   R29        2.61740   0.01037   0.00000   0.02095   0.02094   2.63834
   R30        2.04053   0.00920   0.00000   0.02451   0.02451   2.06504
   R31        2.61430   0.01004   0.00000   0.02010   0.02010   2.63440
   R32        2.04070   0.00917   0.00000   0.02444   0.02444   2.06514
   R33        2.04093   0.00929   0.00000   0.02476   0.02476   2.06569
   R34        1.90009   0.01091   0.00000   0.02262   0.02262   1.92270
    A1        2.00584  -0.00382   0.00000  -0.02183  -0.02183   1.98400
    A2        1.96539  -0.00518   0.00000  -0.03306  -0.03300   1.93238
    A3        2.02401  -0.00195   0.00000  -0.01037  -0.01056   2.01345
    A4        1.99451   0.00780   0.00000   0.05705   0.05713   2.05164
    A5        1.77599   0.00534   0.00000   0.01209   0.01187   1.78786
    A6        1.91858  -0.00239   0.00000  -0.01550  -0.01529   1.90329
    A7        1.76412  -0.00384   0.00000  -0.01372  -0.01374   1.75038
    A8        2.07006   0.00159   0.00000   0.00513   0.00495   2.07502
    A9        2.09846  -0.00275   0.00000  -0.01127  -0.01143   2.08703
   A10        2.11274   0.00111   0.00000   0.00429   0.00417   2.11692
   A11        2.08407  -0.00114   0.00000  -0.00408  -0.00405   2.08002
   A12        2.08191   0.00188   0.00000   0.00952   0.00950   2.09142
   A13        2.11709  -0.00075   0.00000  -0.00549  -0.00551   2.11158
   A14        2.09276   0.00023   0.00000   0.00111   0.00108   2.09384
   A15        2.09465  -0.00033   0.00000  -0.00176  -0.00178   2.09287
   A16        2.09576   0.00009   0.00000   0.00061   0.00060   2.09636
   A17        2.09910   0.00008   0.00000  -0.00017  -0.00019   2.09891
   A18        2.09150  -0.00007   0.00000  -0.00011  -0.00010   2.09140
   A19        2.09253  -0.00001   0.00000   0.00023   0.00024   2.09277
   A20        2.09228   0.00057   0.00000   0.00194   0.00193   2.09422
   A21        2.09779  -0.00012   0.00000  -0.00006  -0.00006   2.09773
   A22        2.09312  -0.00044   0.00000  -0.00188  -0.00187   2.09124
   A23        2.08495  -0.00086   0.00000  -0.00348  -0.00345   2.08149
   A24        2.08497   0.00045   0.00000   0.00186   0.00185   2.08682
   A25        2.11326   0.00041   0.00000   0.00162   0.00160   2.11486
   A26        2.00131   0.01833   0.00000   0.08226   0.08201   2.08331
   A27        1.82126  -0.00756   0.00000  -0.02930  -0.03071   1.79055
   A28        1.80934  -0.00822   0.00000  -0.04488  -0.04509   1.76425
   A29        1.96023  -0.00236   0.00000   0.00640   0.00631   1.96654
   A30        1.95904  -0.00310   0.00000  -0.00993  -0.00892   1.95011
   A31        1.90124   0.00204   0.00000  -0.01145  -0.01250   1.88874
   A32        1.96596   0.01238   0.00000   0.05893   0.05832   2.02428
   A33        1.91493  -0.00223   0.00000   0.00663   0.00510   1.92003
   A34        1.89034  -0.00492   0.00000  -0.03555  -0.03501   1.85533
   A35        1.90433  -0.00231   0.00000   0.01223   0.01080   1.91514
   A36        1.90808  -0.00417   0.00000  -0.02798  -0.02719   1.88089
   A37        1.87814   0.00076   0.00000  -0.01813  -0.01824   1.85991
   A38        2.10158   0.00166   0.00000   0.00648   0.00640   2.10798
   A39        2.10956  -0.00009   0.00000  -0.00011  -0.00019   2.10937
   A40        2.07205  -0.00157   0.00000  -0.00634  -0.00638   2.06567
   A41        2.10709   0.00105   0.00000   0.00404   0.00406   2.11115
   A42        2.08744  -0.00103   0.00000  -0.00495  -0.00497   2.08248
   A43        2.08865  -0.00001   0.00000   0.00090   0.00088   2.08953
   A44        2.09632   0.00008   0.00000   0.00027   0.00027   2.09659
   A45        2.08914   0.00004   0.00000   0.00032   0.00031   2.08945
   A46        2.09772  -0.00012   0.00000  -0.00059  -0.00060   2.09713
   A47        2.08785  -0.00050   0.00000  -0.00196  -0.00197   2.08588
   A48        2.09822   0.00031   0.00000   0.00130   0.00131   2.09953
   A49        2.09710   0.00019   0.00000   0.00065   0.00066   2.09776
   A50        2.09748  -0.00012   0.00000  -0.00041  -0.00041   2.09707
   A51        2.09558   0.00009   0.00000   0.00038   0.00038   2.09596
   A52        2.09012   0.00003   0.00000   0.00003   0.00003   2.09015
   A53        2.10532   0.00106   0.00000   0.00427   0.00429   2.10960
   A54        2.09168  -0.00027   0.00000  -0.00068  -0.00069   2.09099
   A55        2.08618  -0.00079   0.00000  -0.00362  -0.00363   2.08255
   A56        1.98614  -0.01357   0.00000  -0.07746  -0.07746   1.90868
    D1       -0.93837  -0.00104   0.00000   0.00371   0.00333  -0.93504
    D2        1.09730   0.00072   0.00000  -0.01261  -0.01251   1.08479
    D3        3.13945   0.00014   0.00000   0.00542   0.00570  -3.13803
    D4       -3.07731  -0.00181   0.00000  -0.01828  -0.01840  -3.09571
    D5       -0.00155  -0.00273   0.00000  -0.04982  -0.04985  -0.05140
    D6        1.02718  -0.00011   0.00000   0.00436   0.00429   1.03147
    D7       -2.18024  -0.00104   0.00000  -0.02717  -0.02717  -2.20740
    D8       -0.83177   0.00258   0.00000   0.01933   0.01940  -0.81237
    D9        2.24400   0.00165   0.00000  -0.01220  -0.01206   2.23194
   D10       -1.47455   0.00514   0.00000   0.12142   0.12151  -1.35304
   D11        2.65698   0.00239   0.00000   0.08442   0.08498   2.74196
   D12        0.66715   0.00621   0.00000   0.12559   0.12484   0.79198
   D13        0.66445   0.00140   0.00000   0.08309   0.08320   0.74765
   D14       -1.48720  -0.00135   0.00000   0.04609   0.04666  -1.44053
   D15        2.80615   0.00247   0.00000   0.08726   0.08652   2.89267
   D16        2.64183  -0.00072   0.00000   0.06597   0.06614   2.70797
   D17        0.49018  -0.00347   0.00000   0.02897   0.02961   0.51978
   D18       -1.49966   0.00035   0.00000   0.07014   0.06947  -1.43019
   D19        0.48311   0.00099   0.00000   0.02593   0.02581   0.50892
   D20       -1.74638   0.00379   0.00000   0.03809   0.03817  -1.70822
   D21        2.66988   0.00030   0.00000   0.03558   0.03562   2.70550
   D22        3.10700  -0.00055   0.00000  -0.01566  -0.01583   3.09117
   D23       -0.01873  -0.00038   0.00000  -0.01236  -0.01248  -0.03121
   D24        0.03179   0.00054   0.00000   0.01676   0.01680   0.04859
   D25       -3.09393   0.00071   0.00000   0.02006   0.02014  -3.07379
   D26       -3.10094   0.00072   0.00000   0.02370   0.02360  -3.07734
   D27        0.03694   0.00069   0.00000   0.02290   0.02282   0.05976
   D28       -0.02681  -0.00021   0.00000  -0.00860  -0.00862  -0.03543
   D29        3.11107  -0.00025   0.00000  -0.00941  -0.00940   3.10167
   D30       -0.01273  -0.00047   0.00000  -0.01349  -0.01350  -0.02624
   D31        3.13308  -0.00002   0.00000  -0.00153  -0.00152   3.13155
   D32        3.11266  -0.00062   0.00000  -0.01672  -0.01675   3.09591
   D33       -0.02472  -0.00017   0.00000  -0.00475  -0.00477  -0.02948
   D34       -0.01087   0.00013   0.00000   0.00245   0.00249  -0.00838
   D35        3.14101   0.00030   0.00000   0.00779   0.00782  -3.13435
   D36        3.12650  -0.00032   0.00000  -0.00952  -0.00952   3.11698
   D37       -0.00480  -0.00015   0.00000  -0.00419  -0.00419  -0.00899
   D38        0.01589   0.00021   0.00000   0.00579   0.00581   0.02170
   D39       -3.12621   0.00010   0.00000   0.00377   0.00375  -3.12245
   D40       -3.13600   0.00004   0.00000   0.00045   0.00048  -3.13552
   D41        0.00509  -0.00007   0.00000  -0.00157  -0.00158   0.00351
   D42        0.00277  -0.00017   0.00000  -0.00279  -0.00282  -0.00005
   D43       -3.13505  -0.00013   0.00000  -0.00197  -0.00202  -3.13707
   D44       -3.13832  -0.00006   0.00000  -0.00077  -0.00077  -3.13909
   D45        0.00705  -0.00002   0.00000   0.00005   0.00003   0.00708
   D46        0.86178   0.00229   0.00000   0.08057   0.08072   0.94250
   D47       -1.26327  -0.00158   0.00000   0.02015   0.01976  -1.24351
   D48        2.97439   0.00156   0.00000   0.05858   0.05815   3.03253
   D49        2.93698   0.00381   0.00000   0.10624   0.10704   3.04402
   D50        0.81193  -0.00006   0.00000   0.04582   0.04608   0.85801
   D51       -1.23359   0.00308   0.00000   0.08424   0.08446  -1.14913
   D52       -1.19690   0.00237   0.00000   0.08845   0.08862  -1.10828
   D53        2.96124  -0.00150   0.00000   0.02803   0.02766   2.98890
   D54        0.91571   0.00165   0.00000   0.06645   0.06604   0.98175
   D55       -2.16791  -0.00232   0.00000  -0.05517  -0.05564  -2.22355
   D56        0.97195  -0.00166   0.00000  -0.03392  -0.03433   0.93762
   D57       -0.03686   0.00150   0.00000   0.00149   0.00182  -0.03504
   D58        3.10299   0.00216   0.00000   0.02274   0.02313   3.12613
   D59        2.01283  -0.00130   0.00000  -0.02934  -0.02930   1.98354
   D60       -1.13050  -0.00064   0.00000  -0.00809  -0.00798  -1.13848
   D61        3.11945   0.00053   0.00000   0.01595   0.01596   3.13541
   D62       -0.02101   0.00080   0.00000   0.02343   0.02342   0.00241
   D63       -0.02044  -0.00012   0.00000  -0.00486  -0.00484  -0.02528
   D64        3.12228   0.00016   0.00000   0.00262   0.00263   3.12491
   D65       -3.11793  -0.00045   0.00000  -0.01405  -0.01399  -3.13192
   D66        0.02033  -0.00072   0.00000  -0.02121  -0.02116  -0.00083
   D67        0.02196   0.00020   0.00000   0.00686   0.00683   0.02878
   D68       -3.12297  -0.00007   0.00000  -0.00030  -0.00034  -3.12331
   D69        0.00302   0.00001   0.00000   0.00071   0.00072   0.00374
   D70       -3.13543   0.00011   0.00000   0.00315   0.00315  -3.13228
   D71       -3.13971  -0.00027   0.00000  -0.00678  -0.00677   3.13670
   D72        0.00503  -0.00017   0.00000  -0.00434  -0.00435   0.00068
   D73        0.01321   0.00005   0.00000   0.00163   0.00162   0.01483
   D74       -3.13389   0.00002   0.00000   0.00043   0.00042  -3.13347
   D75       -3.13155  -0.00005   0.00000  -0.00082  -0.00081  -3.13236
   D76        0.00454  -0.00008   0.00000  -0.00202  -0.00202   0.00252
   D77       -0.01169   0.00002   0.00000   0.00036   0.00035  -0.01134
   D78        3.13315  -0.00005   0.00000  -0.00181  -0.00181   3.13133
   D79        3.13540   0.00006   0.00000   0.00156   0.00155   3.13696
   D80       -0.00295  -0.00002   0.00000  -0.00061  -0.00061  -0.00356
   D81       -0.00607  -0.00016   0.00000  -0.00471  -0.00471  -0.01078
   D82        3.13885   0.00010   0.00000   0.00241   0.00242   3.14127
   D83        3.13229  -0.00008   0.00000  -0.00255  -0.00255   3.12974
   D84       -0.00598   0.00018   0.00000   0.00458   0.00458  -0.00140
         Item               Value     Threshold  Converged?
 Maximum Force            0.018332     0.000450     NO 
[...]
    10  C    0.013019  -0.003974   0.017638  -0.103813   0.010492  -0.005568
    11  C    0.026069  -0.107364   0.027876   0.375010   0.000066   0.010624
    12  C    0.433643   0.033930  -0.082726  -0.005842   0.000416   0.003641
    13  C    4.909169   0.466085   0.015963  -0.081722  -0.000017   0.000563
    14  C    0.466085   4.895530   0.459406   0.043468   0.000003   0.000054
    15  C    0.015963   0.459406   4.880710   0.432847   0.000007   0.002013
    16  C   -0.081722   0.043468   0.432847   5.114665  -0.000511  -0.010965
    17  N   -0.000017   0.000003   0.000007  -0.000511   6.889886   0.007158
    18  H    0.000563   0.000054   0.002013  -0.010965   0.007158   0.457896
    19  H    0.000002  -0.000001   0.000002  -0.000035   0.018814  -0.000163
    20  H   -0.000000   0.000000   0.000000  -0.000000  -0.000057   0.000002
    21  H    0.000000  -0.000000  -0.000000   0.000000  -0.000000  -0.000001
    22  H    0.000067  -0.000006   0.000001  -0.000002   0.000016  -0.000023
    23  H   -0.001583   0.000378   0.000316  -0.001277   0.000104   0.001908
    24  H   -0.000001   0.000008  -0.000139   0.000225   0.005470  -0.000565
    25  H   -0.000046   0.000007   0.000104   0.001647   0.009257   0.000929
    26  H    0.001247   0.000020  -0.000378   0.005521   0.000167   0.000131
    27  H   -0.001077   0.000378  -0.000018   0.000262  -0.000373  -0.000039
    28  H   -0.048384   0.009541  -0.002397   0.012841  -0.000008  -0.000205
    29  H    0.428156  -0.050749   0.010731  -0.002272  -0.000000  -0.000051
    30  H   -0.050791   0.423468  -0.048725   0.010193   0.000000  -0.000002
    31  H    0.010505  -0.052535   0.425789  -0.052621   0.000000   0.000015
    32  H   -0.002696   0.011168  -0.044598   0.428357  -0.000106  -0.000262
    33  H    0.000001  -0.000001   0.000000   0.000056   0.311379   0.000067
              19         20         21         22         23         24
     1  N    0.001656   0.000002   0.000000  -0.000007   0.020398   0.004444
     2  S    0.004788  -0.000256   0.000024  -0.000135  -0.003516  -0.014715
     3  C   -0.081856   0.014207  -0.004071   0.013865  -0.071989   0.004227
     4  C    0.448805  -0.053844   0.011997  -0.002150   0.015742  -0.000034
     5  C   -0.062361   0.428353  -0.053350   0.010309  -0.003992   0.001118
     6  C    0.012209  -0.054209   0.427364  -0.052438   0.011137  -0.000006
     7  C   -0.003820   0.010562  -0.052061   0.427609  -0.044979  -0.000030
     8  C    0.013058  -0.002124   0.012428  -0.055209   0.418201  -0.002762
     9  C   -0.001380   0.000244  -0.000014   0.000041   0.002791   0.383959
    10  C    0.001043  -0.000119   0.000026  -0.000114   0.001534  -0.049780
    11  C   -0.000269   0.000000  -0.000001   0.000107  -0.006480   0.016847
    12  C   -0.000066   0.000010  -0.000011  -0.000196   0.006646  -0.000192
    13  C    0.000002  -0.000000   0.000000   0.000067  -0.001583  -0.000001
    14  C   -0.000001   0.000000  -0.000000  -0.000006   0.000378   0.000008
    15  C    0.000002   0.000000  -0.000000   0.000001   0.000316  -0.000139
    16  C   -0.000035  -0.000000   0.000000  -0.000002  -0.001277   0.000225
    17  N    0.018814  -0.000057  -0.000000   0.000016   0.000104   0.005470
    18  H   -0.000163   0.000002  -0.000001  -0.000023   0.001908  -0.000565
    19  H    0.509962  -0.007295  -0.000120   0.000055   0.000014   0.000188
    20  H   -0.007295   0.546548  -0.007749  -0.000235   0.000082  -0.000045
    21  H   -0.000120  -0.007749   0.548438  -0.007584  -0.000190   0.000000
    22  H    0.000055  -0.000235  -0.007584   0.547167  -0.007225   0.000001
    23  H    0.000014   0.000082  -0.000190  -0.007225   0.535367  -0.000179
    24  H    0.000188  -0.000045   0.000000   0.000001  -0.000179   0.506118
    25  H   -0.000140  -0.000003   0.000000  -0.000001  -0.000160  -0.009481
    26  H   -0.000031  -0.000020  -0.000005   0.000010  -0.000259  -0.001808
    27  H    0.000056   0.000001   0.000000  -0.000000   0.000013  -0.004149
    28  H   -0.000008   0.000000  -0.000002   0.000063  -0.001075  -0.000015
    29  H    0.000000  -0.000000   0.000000   0.000026   0.000099  -0.000001
    30  H   -0.000000   0.000000  -0.000000  -0.000000   0.000008   0.000000
    31  H    0.000000   0.000000  -0.000000  -0.000000   0.000002  -0.000002
    32  H   -0.000002   0.000000   0.000000   0.000000  -0.000009   0.000151
    33  H   -0.001308   0.000011  -0.000000  -0.000001   0.000109  -0.000717
              25         26         27         28         29         30
     1  N    0.003712   0.000857  -0.000615   0.000173  -0.000001  -0.000002
     2  S   -0.021903  -0.002213   0.003479  -0.000438   0.000002   0.000002
     3  C    0.007478   0.000904  -0.001012  -0.002203  -0.000058  -0.000000
     4  C    0.000405   0.002048   0.000059  -0.000664   0.000003  -0.000000
     5  C    0.000051   0.000566  -0.000053   0.000481  -0.000001  -0.000000
     6  C    0.000011   0.000156   0.000004  -0.000137   0.000010   0.000000
     7  C    0.000010   0.000001  -0.000093   0.000778   0.000127  -0.000001
     8  C   -0.000888  -0.006616   0.001124   0.000061  -0.000320   0.000007
     9  C    0.372437  -0.021943  -0.030740  -0.000013   0.000024  -0.000003
    10  C   -0.009045   0.408833   0.380102  -0.007097  -0.000332   0.000109
    11  C   -0.011583  -0.052953  -0.028878  -0.050372   0.012311  -0.001482
    12  C    0.001018   0.009331  -0.003368   0.418734  -0.056007   0.010135
    13  C   -0.000046   0.001247  -0.001077  -0.048384   0.428156  -0.050791
    14  C    0.000007   0.000020   0.000378   0.009541  -0.050749   0.423468
    15  C    0.000104  -0.000378  -0.000018  -0.002397   0.010731  -0.048725
    16  C    0.001647   0.005521   0.000262   0.012841  -0.002272   0.010193
    17  N    0.009257   0.000167  -0.000373  -0.000008  -0.000000   0.000000
    18  H    0.000929   0.000131  -0.000039  -0.000205  -0.000051  -0.000002
    19  H   -0.000140  -0.000031   0.000056  -0.000008   0.000000  -0.000000
    20  H   -0.000003  -0.000020   0.000001   0.000000  -0.000000   0.000000
    21  H    0.000000  -0.000005   0.000000  -0.000002   0.000000  -0.000000
    22  H   -0.000001   0.000010  -0.000000   0.000063   0.000026  -0.000000
    23  H   -0.000160  -0.000259   0.000013  -0.001075   0.000099   0.000008
    24  H   -0.009481  -0.001808  -0.004149  -0.000015  -0.000001   0.000000
    25  H    0.510777   0.003386  -0.005593  -0.000019  -0.000001   0.000000
    26  H    0.003386   0.515474  -0.017657   0.004288  -0.000070  -0.000003
    27  H   -0.005593  -0.017657   0.570044   0.000393   0.000017  -0.000003
    28  H   -0.000019   0.004288   0.000393   0.542822  -0.007744  -0.000275
    29  H   -0.000001  -0.000070   0.000017  -0.007744   0.555169  -0.007924
    30  H    0.000000  -0.000003  -0.000003  -0.000275  -0.007924   0.553108
    31  H   -0.000004   0.000013  -0.000019   0.000078  -0.000284  -0.007639
    32  H    0.000533   0.000157   0.001611  -0.000216   0.000070  -0.000291
    33  H   -0.000660   0.000001   0.000034  -0.000000   0.000000   0.000000
              31         32         33
     1  N   -0.000141   0.001207  -0.004229
     2  S    0.000009  -0.000883  -0.017597
     3  C   -0.000009  -0.000061   0.004105
     4  C    0.000000   0.000012  -0.007462
     5  C   -0.000000  -0.000001   0.000207
     6  C    0.000000  -0.000000  -0.000086
     7  C    0.000000  -0.000003   0.000021
     8  C    0.000002  -0.000027   0.002733
     9  C   -0.000004   0.006296   0.012778
    10  C   -0.000217  -0.010315  -0.001150
    11  C    0.012797  -0.065620   0.000065
    12  C   -0.001977   0.013095  -0.000018
    13  C    0.010505  -0.002696   0.000001
    14  C   -0.052535   0.011168  -0.000001
    15  C    0.425789  -0.044598   0.000000
    16  C   -0.052621   0.428357   0.000056
    17  N    0.000000  -0.000106   0.311379
    18  H    0.000015  -0.000262   0.000067
    19  H    0.000000  -0.000002  -0.001308
    20  H    0.000000   0.000000   0.000011
    21  H   -0.000000   0.000000  -0.000000
    22  H   -0.000000   0.000000  -0.000001
    23  H    0.000002  -0.000009   0.000109
    24  H   -0.000002   0.000151  -0.000717
    25  H   -0.000004   0.000533  -0.000660
    26  H    0.000013   0.000157   0.000001
    27  H   -0.000019   0.001611   0.000034
    28  H    0.000078  -0.000216  -0.000000
    29  H   -0.000284   0.000070   0.000000
    30  H   -0.007639  -0.000291   0.000000
    31  H    0.553289  -0.008458  -0.000000
    32  H   -0.008458   0.559623   0.000002
    33  H   -0.000000   0.000002   0.480853
 Mulliken charges:
               1
     1  N   -0.536447
     2  S    0.534231
     3  C    0.082935
     4  C   -0.184074
     5  C   -0.114938
     6  C   -0.101152
     7  C   -0.118499
     8  C   -0.192566
     9  C   -0.240818
    10  C   -0.215301
    11  C    0.081765
    12  C   -0.200982
    13  C   -0.113352
    14  C   -0.130625
    15  C   -0.090503
    16  C   -0.188867
    17  N   -0.575527
    18  H    0.231382
    19  H    0.148201
    20  H    0.125934
    21  H    0.124882
    22  H    0.125986
    23  H    0.128063
    24  H    0.161867
    25  H    0.147767
    26  H    0.150845
    27  H    0.136110
    28  H    0.131020
    29  H    0.119070
    30  H    0.120111
    31  H    0.121408
    32  H    0.111268
    33  H    0.220805
 Sum of Mulliken charges =  -0.00000
 Mulliken charges with hydrogens summed into heavy atoms:
               1
     1  N   -0.305065
     2  S    0.534231
     3  C    0.082935
     4  C   -0.035873
     5  C    0.010996
     6  C    0.023730
     7  C    0.007487
     8  C   -0.064503
     9  C    0.068816
    10  C    0.071654
    11  C    0.081765
    12  C   -0.069962
    13  C    0.005718
    14  C   -0.010514
    15  C    0.030905
    16  C   -0.077600
    17  N   -0.354721
 Electronic spatial extent (au):  <R**2>=           4209.8648
 Charge=             -0.0000 electrons
 Dipole moment (field-independent basis, Debye):
    X=             -0.0312    Y=              3.6321    Z=              2.5493  Tot=              4.4376
 Quadrupole moment (field-independent basis, Debye-Ang):
   XX=            -99.6992   YY=           -109.8928   ZZ=           -109.9262
   XY=              6.5529   XZ=              3.9895   YZ=             -8.5357
 Traceless Quadrupole moment (field-independent basis, Debye-Ang):
   XX=              6.8069   YY=             -3.3867   ZZ=             -3.4201
   XY=              6.5529   XZ=              3.9895   YZ=             -8.5357
 Octapole moment (field-independent basis, Debye-Ang**2):
  XXX=             -0.2210  YYY=             44.3040  ZZZ=              9.5702  XYY=             -5.7050
  XXY=              8.5734  XXZ=             -5.1564  XZZ=             11.9713  YZZ=             -5.6156
  YYZ=             -0.5173  XYZ=             15.1923
 Hexadecapole moment (field-independent basis, Debye-Ang**3):
 XXXX=          -3351.9810 YYYY=          -1675.4179 ZZZZ=           -675.0359 XXXY=             73.0012
 XXXZ=            166.3030 YYYX=             76.0575 YYYZ=            -36.9622 ZZZX=             -8.6195
 ZZZY=            -17.0068 XXYY=           -812.9322 XXZZ=           -698.0690 YYZZ=           -371.1894
 XXYZ=             -9.7472 YYXZ=             -8.8578 ZZXY=            -24.6389
 N-N= 1.332480872355D+03 E-N=-5.124514146603D+03  KE= 1.045814472047D+03
 Breneman (CHELPG) radii used.
 Read replacement radii for each type of atom:
 Atom Element Radius
    1     7    1.70
    2    16    2.00
    3     6    1.50
    4     6    1.50
    5     6    1.50
    6     6    1.50
    7     6    1.50
    8     6    1.50
    9     6    1.50
   10     6    1.50
   11     6    1.50
   12     6    1.50
   13     6    1.50
   14     6    1.50
   15     6    1.50
   16     6    1.50
   17     7    1.70
   18     1    1.45
   19     1    1.45
   20     1    1.45
   21     1    1.45
   22     1    1.45
   23     1    1.45
   24     1    1.45
   25     1    1.45
   26     1    1.45
   27     1    1.45
   28     1    1.45
   29     1    1.45
   30     1    1.45
   31     1    1.45
   32     1    1.45
   33     1    1.45
 Generate Potential Derived Charges using the Breneman model, NDens= 1.
 Grid spacing= 0.300 Box extension= 2.800
 NStep X,Y,Z=   51     40     35   Total possible points=       71400
 Number of Points to Fit=   18966

 **********************************************************************

            Electrostatic Properties Using The SCF Density.

 **********************************************************************

       Atomic Center    1 is at  -0.374752 -1.294916 -1.664402
       Atomic Center    2 is at   0.656567 -1.535696 -0.544243
       Atomic Center    3 is at   1.654361 -0.035192 -0.257855
       Atomic Center    4 is at   2.758609 -0.121758  0.589715
       Atomic Center    5 is at   3.544867  1.007899  0.801005
       Atomic Center    6 is at   3.238623  2.204111  0.148555
       Atomic Center    7 is at   2.152799  2.269726 -0.723241
       Atomic Center    8 is at   1.355789  1.143910 -0.931916
       Atomic Center    9 is at  -0.051397 -1.791805  1.106653
       Atomic Center   10 is at  -0.686573 -0.568920  1.748404
       Atomic Center   11 is at  -1.778366  0.088172  0.942205
       Atomic Center   12 is at  -1.682411  1.435583  0.579824
       Atomic Center   13 is at  -2.680850  2.045974 -0.179636
       Atomic Center   14 is at  -3.794227  1.314622 -0.586296
       Atomic Center   15 is at  -3.906289 -0.027677 -0.221848
       Atomic Center   16 is at  -2.908377 -0.632942  0.535966
       Atomic Center   17 is at   1.560893 -2.778180 -0.664535
       Atomic Center   18 is at  -0.965432 -0.484697 -1.465477
       Atomic Center   19 is at   3.005590 -1.079607  1.054730
       Atomic Center   20 is at   4.409858  0.953015  1.466274
       Atomic Center   21 is at   3.860979  3.087288  0.311045
       Atomic Center   22 is at   1.927689  3.200264 -1.249842
       Atomic Center   23 is at   0.511976  1.169962 -1.624435
       Atomic Center   24 is at   0.766157 -2.202767  1.714591
       Atomic Center   25 is at  -0.767733 -2.604047  0.910204
       Atomic Center   26 is at   0.094666  0.171895  1.976600
       Atomic Center   27 is at  -1.093772 -0.892970  2.721719
       Atomic Center   28 is at  -0.806469  2.010956  0.890477
       Atomic Center   29 is at  -2.585021  3.098930 -0.455569
       Atomic Center   30 is at  -4.575216  1.788085 -1.185678
       Atomic Center   31 is at  -4.776226 -0.609186 -0.535701
       Atomic Center   32 is at  -3.004006 -1.688217  0.804721
       Atomic Center   33 is at   1.889552 -2.826323 -1.632419
   18966 points will be used for fitting atomic charges
 Fitting point charges to electrostatic potential
 Charges from ESP fit, RMS=   0.00359 RRMS=   0.21465:
 ESP charges:
               1
     1  N   -0.788200
     2  S    0.697512
     3  C   -0.016097
     4  C   -0.088306
     5  C   -0.089633
     6  C   -0.097821
     7  C   -0.098366
     8  C    0.005273
     9  C    0.021672
    10  C   -0.192468
    11  C    0.161295
    12  C   -0.140675
    13  C   -0.080427
    14  C   -0.125822
    15  C   -0.061621
    16  C   -0.185517
    17  N   -0.799631
    18  H    0.355750
    19  H    0.101688
    20  H    0.097987
    21  H    0.099681
    22  H    0.099194
    23  H    0.034763
    24  H    0.068479
    25  H    0.075522
    26  H    0.048626
    27  H    0.061750
    28  H    0.068089
    29  H    0.098218
    30  H    0.100050
    31  H    0.094204
    32  H    0.114814
    33  H    0.360014
 Sum of ESP charges =   0.00000
 ESP charges with hydrogens summed into heavy atoms:
               1
     1  N   -0.432450
     2  S    0.697512
     3  C   -0.016097
     4  C    0.013382
     5  C    0.008355
     6  C    0.001861
     7  C    0.000828
     8  C    0.040036
     9  C    0.165673
    10  C   -0.082092
    11  C    0.161295
    12  C   -0.072585
    13  C    0.017792
    14  C   -0.025771
    15  C    0.032583
    16  C   -0.070703
    17  N   -0.439618
 Charge=   0.00000 Dipole=    -0.0551     3.6766     2.5838 Tot=     4.4941
 -----------------------------------------------------------------

              Electrostatic Properties (Atomic Units)

 -----------------------------------------------------------------
    Center     Electric         -------- Electric Field --------
               Potential          X             Y             Z
 -----------------------------------------------------------------
    1 Atom    -18.433522
    2 Atom    -59.081588
    3 Atom    -14.734486
    4 Atom    -14.743833
    5 Atom    -14.745693
    6 Atom    -14.744783
    7 Atom    -14.745815
    8 Atom    -14.744479
    9 Atom    -14.729416
   10 Atom    -14.737225
   11 Atom    -14.742967
   12 Atom    -14.756060
   13 Atom    -14.754743
   14 Atom    -14.756344
   15 Atom    -14.755719
   16 Atom    -14.756260
   17 Atom    -18.435095
   18 Atom     -1.053267
   19 Atom     -1.087003
   20 Atom     -1.088318
   21 Atom     -1.087544
   22 Atom     -1.088219
   23 Atom     -1.088010
   24 Atom     -1.083605
   25 Atom     -1.083009
   26 Atom     -1.099694
   27 Atom     -1.092821
   28 Atom     -1.095912
   29 Atom     -1.095455
   30 Atom     -1.097013
   31 Atom     -1.097772
   32 Atom     -1.095530
   33 Atom     -1.059236
 -----------------------------------------------------------------
 Unable to Open any file for archive entry.
 1\1\GINC-NOTCH244\SP\RPBE1PBE\def2TZVP\C14H16N2S1\U1414944\06-Jun-2025
 \0\\#N Guess=Read Geom=Check Integral(Ultrafine) Density Pop=(ChelpG,R
 eadRadii) NMR pbe1pbe EmpiricalDispersion=GD3BJ def2TZVP\\SDI0241_8\\0
 ,1\N,0,1.4208408922,-0.5590721223,-1.4773969696\S,0,1.7349136846,-0.01
 28684233,-0.0704970399\C,0,0.7277134546,1.4670301963,0.282450202\C,0,1
 .0079347662,2.2041566859,1.4328209018\C,0,0.2645448891,3.3496184129,1.
 7053245668\C,0,-0.7325092148,3.7625702905,0.8188979893\C,0,-0.98056714
 93,3.0371454372,-0.3453925605\C,0,-0.2454675954,1.8835363493,-0.619340
 1196\C,0,1.2391712929,-1.0945007442,1.2993842853\C,0,-0.258232417,-1.2
 310327257,1.522724299\C,0,-1.0468182413,-1.7090967922,0.3296912388\C,0
 ,-2.0976081247,-0.9413368713,-0.1825850288\C,0,-2.821140823,-1.3695105
 413,-1.2958711648\C,0,-2.5037207351,-2.577298028,-1.9125959518\C,0,-1.
 4642875271,-3.3571571592,-1.4041231108\C,0,-0.7450295579,-2.9267792756
 ,-0.2933127352\N,0,3.2145893798,0.2367638498,0.2820449569\H,0,0.423155
 5657,-0.7484297503,-1.5944360668\H,0,1.8224498991,1.8872814661,2.08922
 72195\H,0,0.472314383,3.9325705796,2.6057711065\H,0,-1.3099793554,4.66
 53124591,1.0317757118\H,0,-1.745919923,3.3738230565,-1.0487894217\H,0,
 -0.4122455577,1.3117677952,-1.5345157894\H,0,1.7571798024,-0.700885530
 7,2.1846004967\H,0,1.7265773873,-2.0394841137,1.0149424867\H,0,-0.6659
 240762,-0.2687599809,1.8677358431\H,0,-0.3942157649,-1.9378785686,2.35
 94074236\H,0,-2.3448267496,0.0108592647,0.2939019598\H,0,-3.6360940512
 ,-0.7530145834,-1.6829397195\H,0,-3.0647297768,-2.9128810014,-2.787823
 5743\H,0,-1.2084573607,-4.3062299394,-1.8808410494\H,0,0.0739742127,-3
 .542613622,0.0874226907\H,0,3.6459391682,0.7066468906,-0.5181300608\\V
 ersion=ES64L-G16RevC.01\State=1-A\HF=-1050.0899765\RMSD=3.520e-09\Dipo
 le=-1.5322486,0.4191245,0.7243157\Quadrupole=-8.3442353,7.1042789,1.23
 99564,-1.6515026,5.1451656,1.4130893\PG=C01 [X(C14H16N2S1)]\\@
 The archive entry for this job was punched.


 THE 2ND LAW OF THERMODYNAMICS HAS THE SAME
 DEGREE OF TRUTH AS THE STATEMENT THAT IF YOU THROW
 A TUMBLERFULL OF WATER INTO THE SEA, YOU CANNOT GET
 THE SAME TUMBLERFULL OF WATER OUT AGAIN.
          - J.C. MAXWELL, LETTER TO LORD RAYLEIGH, DECEMBER 6,1870
 Job cpu time:       0 days  0 hours 59 minutes 43.3 seconds.
 Elapsed time:       0 days  0 hours  4 minutes  3.4 seconds.
 File lengths (MBytes):  RWF=    238 Int=      0 D2E=      0 Chk=     37 Scr=      2
 Normal termination of Gaussian 16 at Fri Jun  6 23:43:36 2025.
