 Entering Gaussian System, Link 0=g16
 Input=SDI1023_1.com
 Output=SDI1023_1.log
 Initial command:
 /uufs/chpc.utah.edu/sys/installdir/gaussian16/C01/AVX/g16/l1.exe "/scratch/general/vast/u1414944/3351096-notchpeak.peaks/Gau-1980698.inp" -scrdir="/scratch/general/vast/u1414944/3351096-notchpeak.peaks/"
 Entering Link 1 = /uufs/chpc.utah.edu/sys/installdir/gaussian16/C01/AVX/g16/l1.exe PID=   1980699.
  
 Copyright (c) 1988-2019, Gaussian, Inc.  All Rights Reserved.
  
 This is part of the Gaussian(R) 16 program.  It is based on
 the Gaussian(R) 09 system (copyright 2009, Gaussian, Inc.),
 the Gaussian(R) 03 system (copyright 2003, Gaussian, Inc.),
 the Gaussian(R) 98 system (copyright 1998, Gaussian, Inc.),
 the Gaussian(R) 94 system (copyright 1995, Gaussian, Inc.),
 the Gaussian 92(TM) system (copyright 1992, Gaussian, Inc.),
 the Gaussian 90(TM) system (copyright 1990, Gaussian, Inc.),
 the Gaussian 88(TM) system (copyright 1988, Gaussian, Inc.),
 the Gaussian 86(TM) system (copyright 1986, Carnegie Mellon
 University), and the Gaussian 82(TM) system (copyright 1983,
 Carnegie Mellon University). Gaussian is a federally registered
 trademark of Gaussian, Inc.
  
 This software contains proprietary and confidential information,
 including trade secrets, belonging to Gaussian, Inc.
  
 This software is provided under written license and may be
 used, copied, transmitted, or stored only in accord with that
 written license.
  
 The following legend is applicable only to US Government
 contracts under FAR:
  
                    RESTRICTED RIGHTS LEGEND
  
 Use, reproduction and disclosure by the US Government is
 subject to restrictions as set forth in subparagraphs (a)
 and (c) of the Commercial Computer Software - Restricted
 Rights clause in FAR 52.227-19.
  
 Gaussian, Inc.
 340 Quinnipiac St., Bldg. 40, Wallingford CT 06492
  
  
 ---------------------------------------------------------------
 Warning -- This program may not be used in any manner that
 competes with the business of Gaussian, Inc. or will provide
 assistance to any competitor of Gaussian, Inc.  The licensee
 of this program is prohibited from giving any competitor of
 Gaussian, Inc. access to this program.  By using this program,
 the user acknowledges that Gaussian, Inc. is engaged in the
 business of creating and licensing software in the field of
 computational chemistry and represents and warrants to the
 licensee that it is not a competitor of Gaussian, Inc. and that
 it will not use this program in any manner prohibited above.
 ---------------------------------------------------------------
  

 Cite this work as:
 Gaussian 16, Revision C.01,
 M. J. Frisch, G. W. Trucks, H. B. Schlegel, G. E. Scuseria, 
 M. A. Robb, J. R. Cheeseman, G. Scalmani, V. Barone, 
 G. A. Petersson, H. Nakatsuji, X. Li, M. Caricato, A. V. Marenich, 
 J. Bloino, B. G. Janesko, R. Gomperts, B. Mennucci, H. P. Hratchian, 
 J. V. Ortiz, A. F. Izmaylov, J. L. Sonnenberg, D. Williams-Young, 
 F. Ding, F. Lipparini, F. Egidi, J. Goings, B. Peng, A. Petrone, 
 T. Henderson, D. Ranasinghe, V. G. Zakrzewski, J. Gao, N. Rega, 
 G. Zheng, W. Liang, M. Hada, M. Ehara, K. Toyota, R. Fukuda, 
 J. Hasegawa, M. Ishida, T. Nakajima, Y. Honda, O. Kitao, H. Nakai, 
 T. Vreven, K. Throssell, J. A. Montgomery, Jr., J. E. Peralta, 
 F. Ogliaro, M. J. Bearpark, J. J. Heyd, E. N. Brothers, K. N. Kudin, 
 V. N. Staroverov, T. A. Keith, R. Kobayashi, J. Normand, 
 K. Raghavachari, A. P. Rendell, J. C. Burant, S. S. Iyengar, 
 J. Tomasi, M. Cossi, J. M. Millam, M. Klene, C. Adamo, R. Cammi, 
 J. W. Ochterski, R. L. Martin, K. Morokuma, O. Farkas, 
 J. B. Foresman, and D. J. Fox, Gaussian, Inc., Wallingford CT, 2019.
 
 ******************************************
 Gaussian 16:  ES64L-G16RevC.01  3-Jul-2019
                24-Feb-2025 
 ******************************************
 %NProcShared=16
 Will use up to   16 processors via shared memory.
 %Mem=40GB
 %chk=SDI1023_1.chk
 ----------------------------------------------------------------------
 #N OPT FREQ=NORAMAN Integral(Ultrafine) pbe1pbe EmpiricalDispersion=GD
 3BJ def2SVP
 ----------------------------------------------------------------------
 1/18=20,19=15,26=4,38=1/1,3;
 2/9=110,12=2,17=6,18=5,40=1/2;
 3/5=43,7=101,11=2,25=1,30=1,71=1,74=-13,75=-5,124=41/1,2,3;
 4//1;
 5/5=2,38=5/2;
 6/7=2,8=2,9=2,10=2,28=1/1;
 7//1,2,3,16;
 1/18=20,19=15,26=4/3(2);
 2/9=110/2;
 99//99;
 2/9=110/2;
 3/5=43,7=101,11=2,25=1,30=1,71=1,74=-13,75=-5,124=41/1,2,3;
 4/5=5,16=3,69=1/1;
 5/5=2,38=5/2;
 7//1,2,3,16;
 1/18=20,19=15,26=4/3(-5);
 2/9=110/2;
 6/7=2,8=2,9=2,10=2,19=2,28=1/1;
 99/9=1/99;
 ---------
 SDI1023_1
 ---------
 Symbolic Z-matrix:
 Charge =  0 Multiplicity = 1
 N                    -3.18801   1.08116   1.46811 
 S                    -2.7756    1.04716   0.00122 
 C                    -1.00089   0.6583    0.00508 
 C                    -0.17949   1.77437   0.01683 
 C                     1.1944    1.64686   0.02141 
 C                     1.72056   0.3658    0.00688 
 Br                    3.61104   0.13101  -0.00629 
 C                     0.90899  -0.75158  -0.00094 
 C                    -0.48087  -0.62996   0.00738 
 C                    -1.32159  -1.89277   0.01097 
 C                    -0.90916  -2.76954   1.20376 
 C                    -1.07174  -2.66274  -1.29516 
 C                    -2.82257  -1.60312   0.16683 
 C                    -3.34628  -0.53042  -0.75967 
 N                    -3.11091   2.32013  -0.78071 
 H                    -3.79769   1.84811   1.69114 
 H                    -0.64836   2.74721   0.01632 
 H                     1.83887   2.51149   0.03169 
 H                     1.36969  -1.72674  -0.01082 
 H                    -0.9842   -2.20288   2.12889 
 H                    -1.56961  -3.63094   1.27234 
 H                     0.10889  -3.13417   1.10377 
 H                    -1.66787  -3.57231  -1.30966 
 H                    -0.02578  -2.94113  -1.39031 
 H                    -1.33741  -2.06334  -2.16304 
 H                    -3.01433  -1.25152   1.18448 
 H                    -3.37245  -2.53594   0.02033 
 H                    -2.94509  -0.57736  -1.76866 
 H                    -4.43307  -0.50986  -0.79188 
 H                    -2.8763    2.28304  -1.75936 
 

 GradGradGradGradGradGradGradGradGradGradGradGradGradGradGradGradGradGrad
 Berny optimization.
 Initialization pass.
                           ----------------------------
                           !    Initial Parameters    !
                           ! (Angstroms and Degrees)  !
 --------------------------                            --------------------------
 ! Name  Definition              Value          Derivative Info.                !
 --------------------------------------------------------------------------------
 ! R1    R(1,2)                  1.5241         estimate D2E/DX2                !
 ! R2    R(1,16)                 1.0048         estimate D2E/DX2                !
 ! R3    R(2,3)                  1.8168         estimate D2E/DX2                !
 ! R4    R(2,14)                 1.8421         estimate D2E/DX2                !
 ! R5    R(2,15)                 1.5311         estimate D2E/DX2                !
 ! R6    R(3,4)                  1.3858         estimate D2E/DX2                !
 ! R7    R(3,9)                  1.3893         estimate D2E/DX2                !
 ! R8    R(4,5)                  1.3798         estimate D2E/DX2                !
 ! R9    R(4,17)                 1.0799         estimate D2E/DX2                !
 ! R10   R(5,6)                  1.385          estimate D2E/DX2                !
 ! R11   R(5,18)                 1.0784         estimate D2E/DX2                !
 ! R12   R(6,7)                  1.905          estimate D2E/DX2                !
 ! R13   R(6,8)                  1.381          estimate D2E/DX2                !
 ! R14   R(8,9)                  1.3952         estimate D2E/DX2                !
 ! R15   R(8,19)                 1.0785         estimate D2E/DX2                !
 ! R16   R(9,10)                 1.5171         estimate D2E/DX2                !
 ! R17   R(10,11)                1.5367         estimate D2E/DX2                !
 ! R18   R(10,12)                1.5366         estimate D2E/DX2                !
 ! R19   R(10,13)                1.5366         estimate D2E/DX2                !
 ! R20   R(11,20)                1.0875         estimate D2E/DX2                !
 ! R21   R(11,21)                1.0876         estimate D2E/DX2                !
 ! R22   R(11,22)                1.086          estimate D2E/DX2                !
 ! R23   R(12,23)                1.0876         estimate D2E/DX2                !
 ! R24   R(12,24)                1.0866         estimate D2E/DX2                !
 ! R25   R(12,25)                1.0877         estimate D2E/DX2                !
 ! R26   R(13,14)                1.5111         estimate D2E/DX2                !
 ! R27   R(13,26)                1.0936         estimate D2E/DX2                !
 ! R28   R(13,27)                1.0927         estimate D2E/DX2                !
 ! R29   R(14,28)                1.0868         estimate D2E/DX2                !
 ! R30   R(14,29)                1.0875         estimate D2E/DX2                !
 ! R31   R(15,30)                1.0071         estimate D2E/DX2                !
 ! A1    A(2,1,16)             113.2552         estimate D2E/DX2                !
 ! A2    A(1,2,3)              105.4882         estimate D2E/DX2                !
 ! A3    A(1,2,14)             109.4395         estimate D2E/DX2                !
 ! A4    A(1,2,15)             114.4381         estimate D2E/DX2                !
 ! A5    A(3,2,14)              96.9031         estimate D2E/DX2                !
 ! A6    A(3,2,15)             113.1385         estimate D2E/DX2                !
 ! A7    A(14,2,15)            115.6727         estimate D2E/DX2                !
 ! A8    A(2,3,4)              113.9933         estimate D2E/DX2                !
 ! A9    A(2,3,9)              124.3411         estimate D2E/DX2                !
 ! A10   A(4,3,9)              121.6636         estimate D2E/DX2                !
 ! A11   A(3,4,5)              121.0501         estimate D2E/DX2                !
 ! A12   A(3,4,17)             117.9143         estimate D2E/DX2                !
 ! A13   A(5,4,17)             121.0347         estimate D2E/DX2                !
 ! A14   A(4,5,6)              117.6278         estimate D2E/DX2                !
 ! A15   A(4,5,18)             121.3978         estimate D2E/DX2                !
 ! A16   A(6,5,18)             120.9739         estimate D2E/DX2                !
 ! A17   A(5,6,7)              119.4114         estimate D2E/DX2                !
 ! A18   A(5,6,8)              121.6809         estimate D2E/DX2                !
 ! A19   A(7,6,8)              118.9075         estimate D2E/DX2                !
 ! A20   A(6,8,9)              120.9869         estimate D2E/DX2                !
 ! A21   A(6,8,19)             118.7227         estimate D2E/DX2                !
 ! A22   A(9,8,19)             120.2902         estimate D2E/DX2                !
 ! A23   A(3,9,8)              116.9818         estimate D2E/DX2                !
 ! A24   A(3,9,10)             124.3643         estimate D2E/DX2                !
 ! A25   A(8,9,10)             118.6531         estimate D2E/DX2                !
 ! A26   A(9,10,11)            109.1489         estimate D2E/DX2                !
 ! A27   A(9,10,12)            108.9646         estimate D2E/DX2                !
 ! A28   A(9,10,13)            112.6227         estimate D2E/DX2                !
 ! A29   A(11,10,12)           109.2826         estimate D2E/DX2                !
 ! A30   A(11,10,13)           106.916          estimate D2E/DX2                !
 ! A31   A(12,10,13)           109.8461         estimate D2E/DX2                !
 ! A32   A(10,11,20)           110.151          estimate D2E/DX2                !
 ! A33   A(10,11,21)           109.7454         estimate D2E/DX2                !
 ! A34   A(10,11,22)           111.8196         estimate D2E/DX2                !
 ! A35   A(20,11,21)           108.4909         estimate D2E/DX2                !
 ! A36   A(20,11,22)           108.5398         estimate D2E/DX2                !
 ! A37   A(21,11,22)           108.0077         estimate D2E/DX2                !
 ! A38   A(10,12,23)           109.9544         estimate D2E/DX2                !
 ! A39   A(10,12,24)           111.0595         estimate D2E/DX2                !
 ! A40   A(10,12,25)           111.2463         estimate D2E/DX2                !
 ! A41   A(23,12,24)           108.191          estimate D2E/DX2                !
 ! A42   A(23,12,25)           108.4422         estimate D2E/DX2                !
 ! A43   A(24,12,25)           107.845          estimate D2E/DX2                !
 ! A44   A(10,13,14)           114.215          estimate D2E/DX2                !
 ! A45   A(10,13,26)           109.0427         estimate D2E/DX2                !
 ! A46   A(10,13,27)           108.4843         estimate D2E/DX2                !
 ! A47   A(14,13,26)           106.3526         estimate D2E/DX2                !
 ! A48   A(14,13,27)           110.4514         estimate D2E/DX2                !
 ! A49   A(26,13,27)           108.1185         estimate D2E/DX2                !
 ! A50   A(2,14,13)            104.3191         estimate D2E/DX2                !
 ! A51   A(2,14,28)            107.8243         estimate D2E/DX2                !
 ! A52   A(2,14,29)            107.7969         estimate D2E/DX2                !
 ! A53   A(13,14,28)           114.2446         estimate D2E/DX2                !
 ! A54   A(13,14,29)           112.2065         estimate D2E/DX2                !
 ! A55   A(28,14,29)           110.0122         estimate D2E/DX2                !
 ! A56   A(2,15,30)            114.4971         estimate D2E/DX2                !
 ! D1    D(16,1,2,3)           137.2491         estimate D2E/DX2                !
 ! D2    D(16,1,2,14)         -119.4504         estimate D2E/DX2                !
 ! D3    D(16,1,2,15)           12.2326         estimate D2E/DX2                !
 ! D4    D(1,2,3,4)            -91.6712         estimate D2E/DX2                !
 ! D5    D(1,2,3,9)             87.8199         estimate D2E/DX2                !
 ! D6    D(14,2,3,4)           155.9069         estimate D2E/DX2                !
 ! D7    D(14,2,3,9)           -24.602          estimate D2E/DX2                !
 ! D8    D(15,2,3,4)            34.1508         estimate D2E/DX2                !
 ! D9    D(15,2,3,9)          -146.3581         estimate D2E/DX2                !
 ! D10   D(1,2,14,13)          -51.9775         estimate D2E/DX2                !
 ! D11   D(1,2,14,28)         -173.7966         estimate D2E/DX2                !
 ! D12   D(1,2,14,29)           67.4686         estimate D2E/DX2                !
 ! D13   D(3,2,14,13)           57.1687         estimate D2E/DX2                !
 ! D14   D(3,2,14,28)          -64.6504         estimate D2E/DX2                !
 ! D15   D(3,2,14,29)          176.6148         estimate D2E/DX2                !
 ! D16   D(15,2,14,13)         176.9951         estimate D2E/DX2                !
 ! D17   D(15,2,14,28)          55.176          estimate D2E/DX2                !
 ! D18   D(15,2,14,29)         -63.5588         estimate D2E/DX2                !
 ! D19   D(1,2,15,30)         -177.3945         estimate D2E/DX2                !
 ! D20   D(3,2,15,30)           61.7305         estimate D2E/DX2                !
 ! D21   D(14,2,15,30)         -48.7832         estimate D2E/DX2                !
 ! D22   D(2,3,4,5)            179.9873         estimate D2E/DX2                !
 ! D23   D(2,3,4,17)            -0.3707         estimate D2E/DX2                !
 ! D24   D(9,3,4,5)              0.481          estimate D2E/DX2                !
 ! D25   D(9,3,4,17)          -179.877          estimate D2E/DX2                !
 ! D26   D(2,3,9,8)            179.4857         estimate D2E/DX2                !
 ! D27   D(2,3,9,10)            -0.182          estimate D2E/DX2                !
 ! D28   D(4,3,9,8)             -1.0605         estimate D2E/DX2                !
 ! D29   D(4,3,9,10)           179.2717         estimate D2E/DX2                !
 ! D30   D(3,4,5,6)              0.3263         estimate D2E/DX2                !
 ! D31   D(3,4,5,18)          -179.9289         estimate D2E/DX2                !
 ! D32   D(17,4,5,6)          -179.3045         estimate D2E/DX2                !
 ! D33   D(17,4,5,18)            0.4403         estimate D2E/DX2                !
 ! D34   D(4,5,6,7)            179.3548         estimate D2E/DX2                !
 ! D35   D(4,5,6,8)             -0.5201         estimate D2E/DX2                !
 ! D36   D(18,5,6,7)            -0.3911         estimate D2E/DX2                !
 ! D37   D(18,5,6,8)           179.734          estimate D2E/DX2                !
 ! D38   D(5,6,8,9)             -0.0863         estimate D2E/DX2                !
 ! D39   D(5,6,8,19)          -179.9143         estimate D2E/DX2                !
 ! D40   D(7,6,8,9)           -179.9618         estimate D2E/DX2                !
 ! D41   D(7,6,8,19)             0.2102         estimate D2E/DX2                !
 ! D42   D(6,8,9,3)              0.8635         estimate D2E/DX2                !
 ! D43   D(6,8,9,10)          -179.4491         estimate D2E/DX2                !
 ! D44   D(19,8,9,3)          -179.3112         estimate D2E/DX2                !
 ! D45   D(19,8,9,10)            0.3762         estimate D2E/DX2                !
 ! D46   D(3,9,10,11)         -124.8547         estimate D2E/DX2                !
 ! D47   D(3,9,10,12)          115.8732         estimate D2E/DX2                !
 ! D48   D(3,9,10,13)           -6.2746         estimate D2E/DX2                !
 ! D49   D(8,9,10,11)           55.4827         estimate D2E/DX2                !
 ! D50   D(8,9,10,12)          -63.7894         estimate D2E/DX2                !
 ! D51   D(8,9,10,13)          174.0628         estimate D2E/DX2                !
 ! D52   D(9,10,11,20)          55.1714         estimate D2E/DX2                !
 ! D53   D(9,10,11,21)         174.5552         estimate D2E/DX2                !
 ! D54   D(9,10,11,22)         -65.6091         estimate D2E/DX2                !
 ! D55   D(12,10,11,20)        174.2459         estimate D2E/DX2                !
 ! D56   D(12,10,11,21)        -66.3703         estimate D2E/DX2                !
 ! D57   D(12,10,11,22)         53.4654         estimate D2E/DX2                !
 ! D58   D(13,10,11,20)        -66.9158         estimate D2E/DX2                !
 ! D59   D(13,10,11,21)         52.4679         estimate D2E/DX2                !
 ! D60   D(13,10,11,22)        172.3037         estimate D2E/DX2                !
 ! D61   D(9,10,12,23)        -179.9779         estimate D2E/DX2                !
 ! D62   D(9,10,12,24)          60.3064         estimate D2E/DX2                !
 ! D63   D(9,10,12,25)         -59.8283         estimate D2E/DX2                !
 ! D64   D(11,10,12,23)         60.8334         estimate D2E/DX2                !
 ! D65   D(11,10,12,24)        -58.8824         estimate D2E/DX2                !
 ! D66   D(11,10,12,25)       -179.0171         estimate D2E/DX2                !
 ! D67   D(13,10,12,23)        -56.1672         estimate D2E/DX2                !
 ! D68   D(13,10,12,24)       -175.8829         estimate D2E/DX2                !
 ! D69   D(13,10,12,25)         63.9824         estimate D2E/DX2                !
 ! D70   D(9,10,13,14)          48.4773         estimate D2E/DX2                !
 ! D71   D(9,10,13,26)         -70.3265         estimate D2E/DX2                !
 ! D72   D(9,10,13,27)         172.1401         estimate D2E/DX2                !
 ! D73   D(11,10,13,14)        168.3567         estimate D2E/DX2                !
 ! D74   D(11,10,13,26)         49.5529         estimate D2E/DX2                !
 ! D75   D(11,10,13,27)        -67.9805         estimate D2E/DX2                !
 ! D76   D(12,10,13,14)        -73.1715         estimate D2E/DX2                !
 ! D77   D(12,10,13,26)        168.0246         estimate D2E/DX2                !
 ! D78   D(12,10,13,27)         50.4912         estimate D2E/DX2                !
 ! D79   D(10,13,14,2)         -76.8709         estimate D2E/DX2                !
 ! D80   D(10,13,14,28)         40.6082         estimate D2E/DX2                !
 ! D81   D(10,13,14,29)        166.7112         estimate D2E/DX2                !
 ! D82   D(26,13,14,2)          43.4466         estimate D2E/DX2                !
 ! D83   D(26,13,14,28)        160.9257         estimate D2E/DX2                !
 ! D84   D(26,13,14,29)        -72.9713         estimate D2E/DX2                !
 ! D85   D(27,13,14,2)         160.5319         estimate D2E/DX2                !
 ! D86   D(27,13,14,28)        -81.989          estimate D2E/DX2                !
 ! D87   D(27,13,14,29)         44.114          estimate D2E/DX2                !
 --------------------------------------------------------------------------------
 Trust Radius=3.00D-01 FncErr=1.00D-07 GrdErr=1.00D-06 EigMax=2.50D+02 EigMin=1.00D-04
 Number of steps in this run=    180 maximum allowed number of steps=    180.
 GradGradGradGradGradGradGradGradGradGradGradGradGradGradGradGradGradGrad

                          Input orientation:                          
 ---------------------------------------------------------------------
 Center     Atomic      Atomic             Coordinates (Angstroms)
 Number     Number       Type             X           Y           Z
 ---------------------------------------------------------------------
      1          7           0       -3.188012    1.081157    1.468108
      2         16           0       -2.775603    1.047164    0.001216
      3          6           0       -1.000892    0.658300    0.005080
      4          6           0       -0.179492    1.774371    0.016826
      5          6           0        1.194396    1.646858    0.021413
      6          6           0        1.720561    0.365803    0.006876
      7         35           0        3.611036    0.131006   -0.006286
      8          6           0        0.908994   -0.751583   -0.000936
      9          6           0       -0.480872   -0.629962    0.007379
     10          6           0       -1.321587   -1.892766    0.010965
     11          6           0       -0.909160   -2.769541    1.203759
     12          6           0       -1.071744   -2.662736   -1.295158
     13          6           0       -2.822569   -1.603119    0.166833
     14          6           0       -3.346275   -0.530419   -0.759673
     15          7           0       -3.110906    2.320131   -0.780705
     16          1           0       -3.797693    1.848107    1.691140
     17          1           0       -0.648361    2.747206    0.016315
     18          1           0        1.838875    2.511493    0.031688
     19          1           0        1.369690   -1.726739   -0.010819
     20          1           0       -0.984199   -2.202882    2.128891
     21          1           0       -1.569610   -3.630936    1.272337
     22          1           0        0.108892   -3.134166    1.103774
     23          1           0       -1.667866   -3.572310   -1.309662
     24          1           0       -0.025781   -2.941128   -1.390311
     25          1           0       -1.337413   -2.063343   -2.163041
     26          1           0       -3.014328   -1.251521    1.184479
     27          1           0       -3.372446   -2.535944    0.020332
     28          1           0       -2.945091   -0.577357   -1.768662
     29          1           0       -4.433071   -0.509859   -0.791883
     30          1           0       -2.876299    2.283042   -1.759356
 ---------------------------------------------------------------------
                    Distance matrix (angstroms):
                    1          2          3          4          5
     1  N    0.000000
     2  S    1.524142   0.000000
     3  C    2.665099   1.816818   0.000000
     4  C    3.411445   2.696083   1.385803   0.000000
     5  C    4.649564   4.015088   2.407655   1.379800   0.000000
     6  C    5.171172   4.547502   2.737127   2.365240   1.384977
     7  Br   7.021658   6.452019   4.641987   4.131499   2.852845
     8  C    4.722551   4.100213   2.373914   2.750556   2.415465
     9  C    3.519981   2.842284   1.389260   2.423166   2.826770
    10  C    3.801450   3.279854   2.571151   3.840873   4.342720
    11  C    4.482290   4.415536   3.632539   4.752721   5.032640
    12  C    5.111846   4.283349   3.567201   4.712254   5.043942
    13  C    3.005363   2.655868   2.908382   4.291363   5.169091
    14  C    2.754130   1.842115   2.738379   3.992934   5.095912
    15  N    2.568689   1.531102   2.798446   3.086599   4.430836
    16  H    1.004822   2.131202   3.475707   3.987498   5.267774
    17  H    3.366489   2.723147   2.118475   1.079929   2.146286
    18  H    5.420217   4.841342   3.391063   2.148808   1.078449
    19  H    5.553752   4.987799   3.362785   3.828642   3.378302
    20  H    4.009780   4.277725   3.563315   4.574594   4.899820
    21  H    4.986118   4.995477   4.508539   5.720671   6.087664
    22  H    5.363885   5.198025   4.101408   5.035708   5.020758
    23  H    5.628642   4.927984   4.480118   5.706297   6.099510
    24  H    5.860805   5.040272   3.981688   4.923372   4.952919
    25  H    5.147605   4.053104   3.495902   4.562964   4.994746
    26  H    2.356268   2.596354   3.015347   4.307636   5.240866
    27  H    3.900447   3.632526   3.978403   5.364119   6.192889
    28  H    3.645046   2.408374   2.907390   4.045631   5.028603
    29  H    3.031347   2.408429   3.712088   4.895370   6.081222
    30  H    3.458065   2.153403   3.044696   3.268996   4.488477
                    6          7          8          9         10
     6  C    0.000000
     7  Br   1.905045   0.000000
     8  C    1.381033   2.842538   0.000000
     9  C    2.416165   4.162086   1.395201   0.000000
    10  C    3.788907   5.331671   2.505580   1.517066   0.000000
    11  C    4.263607   5.505411   2.971386   2.488484   1.536746
    12  C    4.320221   5.603090   3.041520   2.485540   1.536631
    13  C    4.954016   6.665465   3.831165   2.540867   1.536599
    14  C    5.202272   7.029171   4.328037   2.967965   2.559147
    15  N    5.270934   7.111715   5.118892   4.030037   4.645094
    16  H    5.956937   7.792237   5.636880   4.469584   4.790430
    17  H    3.359012   4.998747   3.829775   3.381331   4.688561
    18  H    2.149092   2.967948   3.393141   3.905195   5.420926
    19  H    2.121829   2.911163   1.078550   2.151239   2.696481
    20  H    4.291482   5.578727   3.197908   2.688537   2.166936
    21  H    5.329216   6.528872   4.006917   3.433849   2.161900
    22  H    4.006301   4.915139   2.745405   2.796595   2.186682
    23  H    5.359426   6.578764   4.038499   3.435254   2.164448
    24  H    3.992197   4.957819   2.756497   2.739002   2.177556
    25  H    4.467717   5.826997   3.382566   2.738424   2.180745
    26  H    5.140200   6.872026   4.128874   2.861870   2.157244
    27  H    5.861658   7.475449   4.638439   3.463255   2.149369
    28  H    5.080393   6.825726   4.243722   3.038004   2.744656
    29  H    6.266737   8.107745   5.405709   4.033996   3.498332
    30  H    5.284553   7.056205   5.160371   4.164735   4.794636
                   11         12         13         14         15
    11  C    0.000000
    12  C    2.506478   0.000000
    13  C    2.469188   2.515073   0.000000
    14  C    3.848150   3.163386   1.511081   0.000000
    15  N    5.889867   5.408494   4.046338   2.860328   0.000000
    16  H    5.468440   6.057762   3.896838   3.444946   2.608544
    17  H    5.649118   5.582714   4.865713   4.315522   2.623311
    18  H    6.067517   6.083163   6.219112   6.063436   5.019654
    19  H    2.784923   2.913112   4.197842   4.922630   6.086511
    20  H    1.087475   3.455900   2.754813   4.089051   5.783275
    21  H    1.087612   2.788784   2.627563   4.110816   6.481186
    22  H    1.085993   2.714963   3.437358   4.710638   6.608155
    23  H    2.745426   1.087610   2.718656   3.517478   6.089583
    24  H    2.745724   1.086552   3.469436   4.151494   6.129474
    25  H    3.466621   1.087691   2.801036   2.890472   4.926558
    26  H    2.595474   3.451632   1.093617   2.099977   4.077741
    27  H    2.742780   2.653265   1.092698   2.152027   4.928643
    28  H    4.217342   2.842963   2.193932   1.086836   3.065777
    29  H    4.637532   4.023268   2.169809   1.087468   3.123634
    30  H    6.178857   5.285132   4.337665   3.022550   1.007061
                   16         17         18         19         20
    16  H    0.000000
    17  H    3.678547   0.000000
    18  H    5.913101   2.498427   0.000000
    19  H    6.509842   4.908101   4.264335   0.000000
    20  H    4.951554   5.392508   5.881610   3.216499   0.000000
    21  H    5.929559   6.565592   7.133471   3.729871   1.765143
    22  H    6.358416   6.028809   6.001305   2.193804   1.764371
    23  H    6.551481   6.537117   7.149063   3.784160   3.763826
    24  H    6.830771   5.892652   5.935494   2.307613   3.721338
    25  H    6.017237   5.325952   5.986214   3.474732   4.308702
    26  H    3.236983   4.790848   6.248421   4.568827   2.432781
    27  H    4.710875   5.944100   7.254971   4.810783   3.203229
    28  H    4.310457   4.417447   5.972318   4.798794   4.656001
    29  H    3.482688   5.058230   7.010288   5.980209   4.826175
    30  H    3.597785   2.886549   5.049048   6.096241   6.230732
                   21         22         23         24         25
    21  H    0.000000
    22  H    1.758569   0.000000
    23  H    2.584533   3.028781   0.000000
    24  H    3.154194   2.505167   1.761061   0.000000
    25  H    3.783264   3.729684   1.764776   1.757269   0.000000
    26  H    2.785058   3.647653   3.663300   4.291355   3.831056
    27  H    2.452905   3.694784   2.397610   3.654347   3.021891
    28  H    4.523712   4.910700   3.288119   3.775305   2.224481
    29  H    4.711851   5.577628   4.158493   5.068865   3.725116
    30  H    6.773015   6.815792   5.995639   5.962684   4.628412
                   26         27         28         29         30
    26  H    0.000000
    27  H    1.770093   0.000000
    28  H    3.029907   2.686855   0.000000
    29  H    2.543404   2.426858   1.781218   0.000000
    30  H    4.601994   5.161015   2.861242   3.340634   0.000000
 Stoichiometry    C11H15BrN2S
 Framework group  C1[X(C11H15BrN2S)]
 Deg. of freedom    84
 Full point group                 C1      NOp   1
 Largest Abelian subgroup         C1      NOp   1
 Largest concise Abelian subgroup C1      NOp   1
                         Standard orientation:                         
 ---------------------------------------------------------------------
 Center     Atomic      Atomic             Coordinates (Angstroms)
 Number     Number       Type             X           Y           Z
 ---------------------------------------------------------------------
      1          7           0        2.973153   -1.160652    1.482769
      2         16           0        2.564892   -1.124512    0.014768
      3          6           0        0.793686   -0.719967    0.013595
      4          6           0       -0.037581   -1.828718    0.024303
      5          6           0       -1.410295   -1.689058    0.025164
      6          6           0       -1.925069   -0.403416    0.007970
      7         35           0       -3.813352   -0.151926   -0.010379
      8          6           0       -1.103633    0.706741    0.001168
      9          6           0        0.285076    0.572844    0.013246
     10          6           0        1.136916    1.828168    0.017774
     11          6           0        0.729147    2.709773    1.208608
     12          6           0        0.897304    2.598983   -1.289767
     13          6           0        2.634865    1.525420    0.177863
     14          6           0        3.151480    0.447186   -0.746197
     15          7           0        2.890963   -2.401191   -0.765000
     16          1           0        3.575442   -1.932735    1.708164
     17          1           0        0.422665   -2.805662    0.025992
     18          1           0       -2.062421   -2.547949    0.034613
     19          1           0       -1.555658    1.685923   -0.010895
     20          1           0        0.796755    2.143418    2.134499
     21          1           0        1.397009    3.565365    1.278056
     22          1           0       -0.285376    3.083284    1.105593
     23          1           0        1.501483    3.503236   -1.303617
     24          1           0       -0.145904    2.886516   -1.387937
     25          1           0        1.159925    1.996379   -2.156352
     26          1           0        2.820849    1.173179    1.196358
     27          1           0        3.193351    2.453196    0.031872
     28          1           0        2.753362    0.496639   -1.756280
     29          1           0        4.238132    0.416984   -0.775539
     30          1           0        2.659249   -2.363029   -1.744299
 ---------------------------------------------------------------------
 Rotational constants (GHZ):           0.7543370           0.2404367           0.1981236
 Standard basis: def2SVP (5D, 7F)
 There are   324 symmetry adapted cartesian basis functions of A   symmetry.
 There are   307 symmetry adapted basis functions of A   symmetry.
   307 basis functions,   547 primitive gaussians,   324 cartesian basis functions
    73 alpha electrons       73 beta electrons
       nuclear repulsion energy      1506.9853084771 Hartrees.
 NAtoms=   30 NActive=   30 NUniq=   30 SFac= 1.00D+00 NAtFMM=   60 NAOKFM=F Big=F
 Integral buffers will be    131072 words long.
 Raffenetti 2 integral format.
 Two-electron integral symmetry is turned on.
 Nuclear repulsion after empirical dispersion term =     1506.9452078390 Hartrees.
 One-electron integrals computed using PRISM.
   1 Symmetry operations used in ECPInt.
 ECPInt:  NShTT=   10296 NPrTT=   39337 LenC2=    9826 LenP2D=   27372.
 LDataN:  DoStor=T MaxTD1= 4 Len=   56
 NBasis=   307 RedAO= T EigKep=  2.22D-04  NBF=   307
 NBsUse=   307 1.00D-06 EigRej= -1.00D+00 NBFU=   307
 ExpMin= 1.22D-01 ExpMax= 1.13D+05 ExpMxC= 1.70D+04 IAcc=3 IRadAn=         5 AccDes= 0.00D+00
 Harris functional with IExCor= 1009 and IRadAn=       5 diagonalized for initial guess.
 HarFok:  IExCor= 1009 AccDes= 0.00D+00 IRadAn=         5 IDoV= 1 UseB2=F ITyADJ=14
 ICtDFT=  3500011 ScaDFX=  1.000000  1.000000  1.000000  1.000000
 FoFCou: FMM=F IPFlag=           0 FMFlag=      100000 FMFlg1=           0
         NFxFlg=           0 DoJE=T BraDBF=F KetDBF=T FulRan=T
         wScrn=  0.000000 ICntrl=       500 IOpCl=  0 I1Cent=   200000004 NGrid=           0
         NMat0=    1 NMatS0=      1 NMatT0=    0 NMatD0=    1 NMtDS0=    0 NMtDT0=    0
 Petite list used in FoFCou.
 Requested convergence on RMS density matrix=1.00D-08 within 128 cycles.
 Requested convergence on MAX density matrix=1.00D-06.
 Requested convergence on             energy=1.00D-06.
 No special actions if energy rises.
 Integral accuracy reduced to 1.0D-05 until final iterations.
 Initial convergence to 1.0D-05 achieved.  Increase integral accuracy.
 SCF Done:  E(RPBE1PBE) =  -3508.06847886     A.U. after   15 cycles
            NFock= 15  Conv=0.46D-08     -V/T= 2.0025

 **********************************************************************

            Population analysis using the SCF Density.

 **********************************************************************

 Orbital symmetries:
       Occupied  (A) (A) (A) (A) (A) (A) (A) (A) (A) (A) (A) (A)
                 (A) (A) (A) (A) (A) (A) (A) (A) (A) (A) (A) (A)
                 (A) (A) (A) (A) (A) (A) (A) (A) (A) (A) (A) (A)
                 (A) (A) (A) (A) (A) (A) (A) (A) (A) (A) (A) (A)
                 (A) (A) (A) (A) (A) (A) (A) (A) (A) (A) (A) (A)
                 (A) (A) (A) (A) (A) (A) (A) (A) (A) (A) (A) (A)
                 (A)
       Virtual   (A) (A) (A) (A) (A) (A) (A) (A) (A) (A) (A) (A)
                 (A) (A) (A) (A) (A) (A) (A) (A) (A) (A) (A) (A)
                 (A) (A) (A) (A) (A) (A) (A) (A) (A) (A) (A) (A)
                 (A) (A) (A) (A) (A) (A) (A) (A) (A) (A) (A) (A)
                 (A) (A) (A) (A) (A) (A) (A) (A) (A) (A) (A) (A)
                 (A) (A) (A) (A) (A) (A) (A) (A) (A) (A) (A) (A)
                 (A) (A) (A) (A) (A) (A) (A) (A) (A) (A) (A) (A)
                 (A) (A) (A) (A) (A) (A) (A) (A) (A) (A) (A) (A)
                 (A) (A) (A) (A) (A) (A) (A) (A) (A) (A) (A) (A)
                 (A) (A) (A) (A) (A) (A) (A) (A) (A) (A) (A) (A)
                 (A) (A) (A) (A) (A) (A) (A) (A) (A) (A) (A) (A)
                 (A) (A) (A) (A) (A) (A) (A) (A) (A) (A) (A) (A)
                 (A) (A) (A) (A) (A) (A) (A) (A) (A) (A) (A) (A)
                 (A) (A) (A) (A) (A) (A) (A) (A) (A) (A) (A) (A)
                 (A) (A) (A) (A) (A) (A) (A) (A) (A) (A) (A) (A)
                 (A) (A) (A) (A) (A) (A) (A) (A) (A) (A) (A) (A)
                 (A) (A) (A) (A) (A) (A) (A) (A) (A) (A) (A) (A)
                 (A) (A) (A) (A) (A) (A) (A) (A) (A) (A) (A) (A)
                 (A) (A) (A) (A) (A) (A) (A) (A) (A) (A) (A) (A)
                 (A) (A) (A) (A) (A) (A)
 The electronic state is 1-A.
 Alpha  occ. eigenvalues -- -483.20012 -89.18220 -62.63383 -56.42376 -56.42025
 Alpha  occ. eigenvalues --  -56.42013 -14.35138 -14.33597 -10.30425 -10.27218
 Alpha  occ. eigenvalues --  -10.26983 -10.26777 -10.26713 -10.25935 -10.25895
 Alpha  occ. eigenvalues --  -10.25871 -10.24596 -10.23897 -10.23384  -8.77992
 Alpha  occ. eigenvalues --   -8.15684  -6.59472  -6.58191  -6.58159  -6.09824
 Alpha  occ. eigenvalues --   -6.09710  -6.09677  -2.68027  -2.67659  -2.67635
 Alpha  occ. eigenvalues --   -2.66606  -2.66606  -1.01175  -0.91966  -0.87560
 Alpha  occ. eigenvalues --   -0.85131  -0.83395  -0.80418  -0.77732  -0.76051
 Alpha  occ. eigenvalues --   -0.71860  -0.68638  -0.66087  -0.65020  -0.61590
 Alpha  occ. eigenvalues --   -0.57001  -0.54759  -0.53261  -0.51817  -0.49931
 Alpha  occ. eigenvalues --   -0.48691  -0.48525  -0.47087  -0.46037  -0.45431
 Alpha  occ. eigenvalues --   -0.43668  -0.42462  -0.42135  -0.41137  -0.40776
 Alpha  occ. eigenvalues --   -0.39357  -0.38809  -0.36107  -0.35786  -0.34881
 Alpha  occ. eigenvalues --   -0.33907  -0.30849  -0.30732  -0.28410  -0.28267
 Alpha  occ. eigenvalues --   -0.27036  -0.25476  -0.23840
 Alpha virt. eigenvalues --   -0.03489  -0.02782   0.00544   0.05321   0.05987
 Alpha virt. eigenvalues --    0.07409   0.07856   0.08900   0.09933   0.10151
 Alpha virt. eigenvalues --    0.11083   0.11872   0.12410   0.12988   0.13939
 Alpha virt. eigenvalues --    0.15174   0.15487   0.16796   0.17051   0.17845
 Alpha virt. eigenvalues --    0.18191   0.19608   0.19760   0.20648   0.21312
 Alpha virt. eigenvalues --    0.23651   0.24620   0.25845   0.26767   0.28511
 Alpha virt. eigenvalues --    0.30604   0.32174   0.33341   0.34087   0.37900
 Alpha virt. eigenvalues --    0.38610   0.40134   0.42012   0.42399   0.43379
 Alpha virt. eigenvalues --    0.45706   0.45918   0.46724   0.48080   0.48549
 Alpha virt. eigenvalues --    0.49322   0.49864   0.51116   0.51966   0.52884
 Alpha virt. eigenvalues --    0.53677   0.54762   0.55947   0.56664   0.58064
 Alpha virt. eigenvalues --    0.58556   0.59013   0.60477   0.61823   0.62802
 Alpha virt. eigenvalues --    0.63600   0.63873   0.64357   0.64802   0.65741
 Alpha virt. eigenvalues --    0.65928   0.66435   0.67162   0.67452   0.67933
 Alpha virt. eigenvalues --    0.68120   0.69415   0.69736   0.70760   0.71176
 Alpha virt. eigenvalues --    0.71777   0.72150   0.72954   0.73341   0.73471
 Alpha virt. eigenvalues --    0.73824   0.73900   0.75277   0.75998   0.78398
 Alpha virt. eigenvalues --    0.78603   0.79487   0.80604   0.82093   0.82638
 Alpha virt. eigenvalues --    0.83320   0.85322   0.86282   0.88361   0.90112
 Alpha virt. eigenvalues --    0.90988   0.92164   0.95993   0.96249   0.98031
 Alpha virt. eigenvalues --    0.98214   1.01457   1.03775   1.05907   1.06452
 Alpha virt. eigenvalues --    1.08708   1.10645   1.12363   1.15149   1.15945
 Alpha virt. eigenvalues --    1.18262   1.19559   1.19853   1.22693   1.24912
 Alpha virt. eigenvalues --    1.26094   1.27241   1.27500   1.28492   1.29727
 Alpha virt. eigenvalues --    1.31557   1.35061   1.36502   1.38321   1.40903
 Alpha virt. eigenvalues --    1.42501   1.46616   1.46861   1.48778   1.53620
 Alpha virt. eigenvalues --    1.54105   1.54728   1.57325   1.57743   1.59599
 Alpha virt. eigenvalues --    1.63693   1.66002   1.66889   1.70202   1.70956
 Alpha virt. eigenvalues --    1.71972   1.72677   1.74662   1.75694   1.76564
 Alpha virt. eigenvalues --    1.77693   1.78527   1.80360   1.80857   1.81722
 Alpha virt. eigenvalues --    1.82640   1.83548   1.84390   1.85438   1.85714
 Alpha virt. eigenvalues --    1.86559   1.88273   1.89622   1.90907   1.93140
 Alpha virt. eigenvalues --    1.94144   1.95251   1.95764   1.96696   1.99268
 Alpha virt. eigenvalues --    2.00729   2.02550   2.03817   2.05372   2.10785
 Alpha virt. eigenvalues --    2.12266   2.13411   2.14737   2.15681   2.16367
 Alpha virt. eigenvalues --    2.18307   2.19335   2.22125   2.23853   2.25502
 Alpha virt. eigenvalues --    2.26697   2.28248   2.30332   2.31570   2.34510
 Alpha virt. eigenvalues --    2.35747   2.35898   2.37937   2.40054   2.41973
 Alpha virt. eigenvalues --    2.42956   2.44666   2.46719   2.47742   2.50402
 Alpha virt. eigenvalues --    2.53155   2.56756   2.58235   2.59272   2.61218
 Alpha virt. eigenvalues --    2.62939   2.63113   2.63811   2.66382   2.67225
 Alpha virt. eigenvalues --    2.67418   2.69134   2.77952   2.78825   2.81688
 Alpha virt. eigenvalues --    2.84533   2.86627   2.87132   2.88516   2.90560
 Alpha virt. eigenvalues --    2.92707   2.94189   2.96202   2.96799   2.97958
 Alpha virt. eigenvalues --    3.01392   3.04417   3.08420   3.10121   3.13012
 Alpha virt. eigenvalues --    3.21631   3.26725   3.34257   3.44841   3.48680
 Alpha virt. eigenvalues --    3.52672   3.53025   3.65436   3.85548
          Condensed to atoms (all electrons):
               1          2          3          4          5          6
     1  N    6.898949   0.371487  -0.073077  -0.006885  -0.000283  -0.000053
     2  S    0.371487  14.655781   0.092967  -0.011028   0.001407   0.001192
     3  C   -0.073077   0.092967   5.961209   0.210852   0.109366  -0.208529
     4  C   -0.006885  -0.011028   0.210852   5.031244   0.291555   0.124225
     5  C   -0.000283   0.001407   0.109366   0.291555   5.087980   0.227665
     6  C   -0.000053   0.001192  -0.208529   0.124225   0.227665   5.353858
     7  Br  -0.000000   0.000005   0.001257   0.003084  -0.063183   0.236352
     8  C   -0.000065   0.000014   0.053188  -0.110688   0.057417   0.310117
     9  C   -0.006109  -0.036587   0.246592   0.049826  -0.141736   0.107987
    10  C   -0.000661  -0.007063  -0.075055   0.010839  -0.000950   0.014920
    11  C   -0.000264  -0.000561   0.006945  -0.000329  -0.000033   0.000377
    12  C   -0.000071   0.000855   0.000470  -0.000464   0.000048   0.000159
    13  C   -0.024508  -0.073955  -0.008896  -0.002657  -0.000214  -0.000430
    14  C   -0.071106   0.264107  -0.135232   0.015605   0.000208  -0.000281
    15  N   -0.062715   0.368809  -0.050412  -0.000688   0.001470  -0.000056
    16  H    0.334347  -0.011861   0.004567   0.001356  -0.000012   0.000009
    17  H    0.000077  -0.005790  -0.084519   0.442442  -0.056703   0.014785
    18  H    0.000006  -0.000187   0.015722  -0.062995   0.451545  -0.070987
    19  H    0.000008  -0.000114   0.018851  -0.002148   0.015297  -0.060894
    20  H    0.000304   0.000215   0.001989  -0.000097  -0.000030  -0.000263
    21  H    0.000008  -0.000000  -0.000149   0.000011   0.000003  -0.000016
    22  H   -0.000001  -0.000015  -0.000825   0.000038  -0.000029   0.000627
    23  H    0.000003  -0.000012  -0.000057   0.000008   0.000002  -0.000006
    24  H    0.000002  -0.000022  -0.000892   0.000048  -0.000023   0.000102
    25  H   -0.000012   0.000102   0.001914   0.000006  -0.000057  -0.000036
    26  H    0.047457  -0.003050   0.000196  -0.000978   0.000040   0.000004
    27  H    0.000249   0.003817   0.000439   0.000092   0.000004   0.000002
    28  H    0.004813  -0.014140   0.006487  -0.001134  -0.000003   0.000039
    29  H    0.002140  -0.001837   0.007388  -0.000306  -0.000004   0.000004
    30  H    0.004978  -0.013400  -0.000444   0.000265  -0.000119  -0.000006
               7          8          9         10         11         12
     1  N   -0.000000  -0.000065  -0.006109  -0.000661  -0.000264  -0.000071
     2  S    0.000005   0.000014  -0.036587  -0.007063  -0.000561   0.000855
     3  C    0.001257   0.053188   0.246592  -0.075055   0.006945   0.000470
     4  C    0.003084  -0.110688   0.049826   0.010839  -0.000329  -0.000464
     5  C   -0.063183   0.057417  -0.141736  -0.000950  -0.000033   0.000048
     6  C    0.236352   0.310117   0.107987   0.014920   0.000377   0.000159
     7  Br  34.912901  -0.069195   0.003320  -0.000201   0.000004   0.000011
     8  C   -0.069195   5.041750   0.361414  -0.073960  -0.013130  -0.012594
     9  C    0.003320   0.361414   5.346437   0.239646  -0.060854  -0.067112
    10  C   -0.000201  -0.073960   0.239646   5.416446   0.397565   0.387205
    11  C    0.000004  -0.013130  -0.060854   0.397565   4.571671  -0.065481
    12  C    0.000011  -0.012594  -0.067112   0.387205  -0.065481   4.604292
    13  C    0.000001   0.015632  -0.063275   0.351181  -0.060937  -0.062873
    14  C   -0.000000  -0.001970  -0.016463  -0.066495   0.011079  -0.012681
    15  N    0.000000  -0.000003   0.002709  -0.000371  -0.000001   0.000008
    16  H    0.000000   0.000002  -0.000177   0.000001  -0.000005   0.000003
    17  H   -0.000165  -0.001837   0.015807  -0.000420   0.000000   0.000005
    18  H   -0.000162   0.014089  -0.001151   0.000028  -0.000000  -0.000000
    19  H    0.003244   0.438201  -0.061174  -0.022648   0.001578  -0.000437
    20  H    0.000004  -0.002667  -0.002974  -0.019839   0.393796   0.008820
    21  H   -0.000000   0.000478   0.011010  -0.026664   0.389987  -0.005426
    22  H   -0.000052   0.007823  -0.019655  -0.010925   0.390121  -0.005960
    23  H   -0.000000   0.000396   0.011003  -0.027677  -0.004163   0.390640
    24  H   -0.000031   0.007752  -0.014819  -0.010266  -0.007879   0.388819
    25  H    0.000001  -0.002693  -0.001234  -0.022166   0.008827   0.388403
    26  H    0.000000   0.000133  -0.003512  -0.018662  -0.005298   0.007426
    27  H   -0.000000  -0.000625   0.009907  -0.015029  -0.007708  -0.009459
    28  H   -0.000000  -0.000195  -0.005073  -0.001460   0.000401   0.004185
    29  H    0.000000   0.000064   0.000373   0.007320  -0.000252  -0.000386
    30  H   -0.000000  -0.000022  -0.000048   0.000133   0.000003  -0.000000
              13         14         15         16         17         18
     1  N   -0.024508  -0.071106  -0.062715   0.334347   0.000077   0.000006
     2  S   -0.073955   0.264107   0.368809  -0.011861  -0.005790  -0.000187
     3  C   -0.008896  -0.135232  -0.050412   0.004567  -0.084519   0.015722
     4  C   -0.002657   0.015605  -0.000688   0.001356   0.442442  -0.062995
     5  C   -0.000214   0.000208   0.001470  -0.000012  -0.056703   0.451545
     6  C   -0.000430  -0.000281  -0.000056   0.000009   0.014785  -0.070987
     7  Br   0.000001  -0.000000   0.000000   0.000000  -0.000165  -0.000162
     8  C    0.015632  -0.001970  -0.000003   0.000002  -0.001837   0.014089
     9  C   -0.063275  -0.016463   0.002709  -0.000177   0.015807  -0.001151
    10  C    0.351181  -0.066495  -0.000371   0.000001  -0.000420   0.000028
    11  C   -0.060937   0.011079  -0.000001  -0.000005   0.000000  -0.000000
    12  C   -0.062873  -0.012681   0.000008   0.000003   0.000005  -0.000000
    13  C    4.999416   0.225958   0.005409  -0.000320  -0.000278   0.000001
    14  C    0.225958   5.239327  -0.051499   0.003232   0.002262   0.000002
    15  N    0.005409  -0.051499   6.844867   0.004396   0.026657   0.000000
    16  H   -0.000320   0.003232   0.004396   0.532529   0.000156  -0.000002
    17  H   -0.000278   0.002262   0.026657   0.000156   0.631593  -0.010807
    18  H    0.000001   0.000002   0.000000  -0.000002  -0.010807   0.640611
    19  H    0.000772   0.000052   0.000001  -0.000000   0.000031  -0.000303
    20  H   -0.006991  -0.000017   0.000001   0.000001   0.000002  -0.000001
    21  H   -0.006215   0.000756  -0.000000  -0.000000  -0.000000   0.000000
    22  H    0.008194  -0.000593  -0.000000   0.000000   0.000001   0.000000
    23  H   -0.005057  -0.001248  -0.000000  -0.000000  -0.000000   0.000000
    24  H    0.008405   0.000081  -0.000000  -0.000000   0.000001   0.000000
    25  H   -0.007576   0.002987  -0.000017   0.000001   0.000003  -0.000001
    26  H    0.379336  -0.052334   0.001087  -0.001201  -0.000033  -0.000000
    27  H    0.344125   0.001325  -0.000095   0.000006   0.000006   0.000000
    28  H   -0.024475   0.337548   0.002020  -0.000242  -0.000191   0.000000
    29  H    0.002669   0.333416   0.004752   0.000615  -0.000053  -0.000000
    30  H    0.000225  -0.003267   0.314907  -0.000402  -0.001449   0.000004
              19         20         21         22         23         24
     1  N    0.000008   0.000304   0.000008  -0.000001   0.000003   0.000002
     2  S   -0.000114   0.000215  -0.000000  -0.000015  -0.000012  -0.000022
     3  C    0.018851   0.001989  -0.000149  -0.000825  -0.000057  -0.000892
     4  C   -0.002148  -0.000097   0.000011   0.000038   0.000008   0.000048
     5  C    0.015297  -0.000030   0.000003  -0.000029   0.000002  -0.000023
     6  C   -0.060894  -0.000263  -0.000016   0.000627  -0.000006   0.000102
     7  Br   0.003244   0.000004  -0.000000  -0.000052  -0.000000  -0.000031
     8  C    0.438201  -0.002667   0.000478   0.007823   0.000396   0.007752
     9  C   -0.061174  -0.002974   0.011010  -0.019655   0.011003  -0.014819
    10  C   -0.022648  -0.019839  -0.026664  -0.010925  -0.027677  -0.010266
    11  C    0.001578   0.393796   0.389987   0.390121  -0.004163  -0.007879
    12  C   -0.000437   0.008820  -0.005426  -0.005960   0.390640   0.388819
    13  C    0.000772  -0.006991  -0.006215   0.008194  -0.005057   0.008405
    14  C    0.000052  -0.000017   0.000756  -0.000593  -0.001248   0.000081
    15  N    0.000001   0.000001  -0.000000  -0.000000  -0.000000  -0.000000
    16  H   -0.000000   0.000001  -0.000000   0.000000  -0.000000  -0.000000
    17  H    0.000031   0.000002  -0.000000   0.000001  -0.000000   0.000001
    18  H   -0.000303  -0.000001   0.000000   0.000000   0.000000   0.000000
    19  H    0.656431   0.000057  -0.000245   0.000762  -0.000249   0.001894
    20  H    0.000057   0.605810  -0.019619  -0.020944  -0.000111   0.000125
    21  H   -0.000245  -0.019619   0.634627  -0.021087   0.003937  -0.000690
    22  H    0.000762  -0.020944  -0.021087   0.634685  -0.000747   0.003828
    23  H   -0.000249  -0.000111   0.003937  -0.000747   0.632448  -0.019328
    24  H    0.001894   0.000125  -0.000690   0.003828  -0.019328   0.625058
    25  H    0.000002  -0.000481  -0.000110   0.000155  -0.022258  -0.018870
    26  H   -0.000040   0.006021  -0.001464   0.000148   0.000162  -0.000353
    27  H   -0.000002  -0.000689   0.005980  -0.000156   0.005259   0.000325
    28  H   -0.000020  -0.000023  -0.000028  -0.000002   0.000145  -0.000519
    29  H   -0.000002  -0.000019  -0.000045   0.000013  -0.000039   0.000019
    30  H    0.000000  -0.000000  -0.000000   0.000000  -0.000000  -0.000001
              25         26         27         28         29         30
     1  N   -0.000012   0.047457   0.000249   0.004813   0.002140   0.004978
     2  S    0.000102  -0.003050   0.003817  -0.014140  -0.001837  -0.013400
     3  C    0.001914   0.000196   0.000439   0.006487   0.007388  -0.000444
     4  C    0.000006  -0.000978   0.000092  -0.001134  -0.000306   0.000265
     5  C   -0.000057   0.000040   0.000004  -0.000003  -0.000004  -0.000119
     6  C   -0.000036   0.000004   0.000002   0.000039   0.000004  -0.000006
     7  Br   0.000001   0.000000  -0.000000  -0.000000   0.000000  -0.000000
     8  C   -0.002693   0.000133  -0.000625  -0.000195   0.000064  -0.000022
     9  C   -0.001234  -0.003512   0.009907  -0.005073   0.000373  -0.000048
    10  C   -0.022166  -0.018662  -0.015029  -0.001460   0.007320   0.000133
    11  C    0.008827  -0.005298  -0.007708   0.000401  -0.000252   0.000003
    12  C    0.388403   0.007426  -0.009459   0.004185  -0.000386  -0.000000
    13  C   -0.007576   0.379336   0.344125  -0.024475   0.002669   0.000225
    14  C    0.002987  -0.052334   0.001325   0.337548   0.333416  -0.003267
    15  N   -0.000017   0.001087  -0.000095   0.002020   0.004752   0.314907
    16  H    0.000001  -0.001201   0.000006  -0.000242   0.000615  -0.000402
    17  H    0.000003  -0.000033   0.000006  -0.000191  -0.000053  -0.001449
    18  H   -0.000001  -0.000000   0.000000   0.000000  -0.000000   0.000004
    19  H    0.000002  -0.000040  -0.000002  -0.000020  -0.000002   0.000000
    20  H   -0.000481   0.006021  -0.000689  -0.000023  -0.000019  -0.000000
    21  H   -0.000110  -0.001464   0.005980  -0.000028  -0.000045  -0.000000
    22  H    0.000155   0.000148  -0.000156  -0.000002   0.000013   0.000000
    23  H   -0.022258   0.000162   0.005259   0.000145  -0.000039  -0.000000
    24  H   -0.018870  -0.000353   0.000325  -0.000519   0.000019  -0.000001
    25  H    0.634166  -0.000146  -0.000466   0.004791  -0.000174  -0.000025
    26  H   -0.000146   0.578749  -0.015059   0.008805  -0.000649  -0.000170
    27  H   -0.000466  -0.015059   0.653672  -0.004062  -0.012472  -0.000021
    28  H    0.004791   0.008805  -0.004062   0.632577  -0.012370   0.002880
    29  H   -0.000174  -0.000649  -0.012472  -0.012370   0.592081  -0.000241
    30  H   -0.000025  -0.000170  -0.000021   0.002880  -0.000241   0.578453
 Mulliken charges:
               1
     1  N   -0.419017
     2  S    0.418863
     3  C   -0.102311
     4  C    0.018901
     5  C    0.019372
     6  C   -0.050871
     7  Br  -0.027194
     8  C   -0.018827
     9  C    0.095921
    10  C   -0.424771
    11  C    0.054543
    12  C    0.061595
    13  C    0.007332
    14  C   -0.024758
    15  N   -0.411236
    16  H    0.133004
    17  H    0.028418
    18  H    0.024585
    19  H    0.011095
    20  H    0.057621
    21  H    0.034965
    22  H    0.034596
    23  H    0.036949
    24  H    0.037231
    25  H    0.034965
    26  H    0.073384
    27  H    0.040635
    28  H    0.059246
    29  H    0.077996
    30  H    0.117769
 Sum of Mulliken charges =  -0.00000
 Mulliken charges with hydrogens summed into heavy atoms:
               1
     1  N   -0.286013
     2  S    0.418863
     3  C   -0.102311
     4  C    0.047319
     5  C    0.043957
     6  C   -0.050871
     7  Br  -0.027194
     8  C   -0.007732
     9  C    0.095921
    10  C   -0.424771
    11  C    0.181724
    12  C    0.170740
    13  C    0.121351
    14  C    0.112484
    15  N   -0.293467
 Electronic spatial extent (au):  <R**2>=           5122.1438
 Charge=              0.0000 electrons
 Dipole moment (field-independent basis, Debye):
    X=              0.1725    Y=              2.6988    Z=             -2.2770  Tot=              3.5352
 Quadrupole moment (field-independent basis, Debye-Ang):
   XX=           -112.7708   YY=           -107.4471   ZZ=           -111.7824
   XY=              8.7870   XZ=             -5.4137   YZ=              0.3344
 Traceless Quadrupole moment (field-independent basis, Debye-Ang):
   XX=             -2.1041   YY=              3.2197   ZZ=             -1.1157
   XY=              8.7870   XZ=             -5.4137   YZ=              0.3344
 Octapole moment (field-independent basis, Debye-Ang**2):
  XXX=           -101.9257  YYY=              7.5169  ZZZ=            -12.8177  XYY=            -54.0492
  XXY=             21.9627  XXZ=             -9.6564  XZZ=            -31.0858  YZZ=             -6.7935
  YYZ=              5.0189  XYZ=             -3.7356
 Hexadecapole moment (field-independent basis, Debye-Ang**3):
 XXXX=          -3819.6985 YYYY=          -1679.1231 ZZZZ=           -440.8912 XXXY=             66.1207
 XXXZ=             -6.5537 YYYX=             86.8853 YYYZ=            -14.1374 ZZZX=            -27.4011
 ZZZY=             16.3915 XXYY=           -963.5953 XXZZ=           -731.1653 YYZZ=           -341.2900
 XXYZ=            -30.2242 YYXZ=             24.1138 ZZXY=            -20.5049
 N-N= 1.506945207839D+03 E-N=-1.135396168927D+04  KE= 3.499403464435D+03
   1 Symmetry operations used in ECPInt.
 ECPInt:  NShTT=   10296 NPrTT=   39337 LenC2=    9826 LenP2D=   27372.
 LDataN:  DoStor=T MaxTD1= 5 Len=  102
 Calling FoFJK, ICntrl=      2127 FMM=F ISym2X=0 I1Cent= 0 IOpClX= 0 NMat=1 NMatS=1 NMatT=0.
 ***** Axes restored to original set *****
 -------------------------------------------------------------------
 Center     Atomic                   Forces (Hartrees/Bohr)
 Number     Number              X              Y              Z
 -------------------------------------------------------------------
      1        7           0.008247747   -0.015792028    0.010796555
      2       16          -0.002391890   -0.002307418   -0.000188060
      3        6          -0.009386873    0.000969036   -0.003397487
      4        6          -0.000464887    0.002255824    0.000815631
      5        6          -0.002102641   -0.000651250    0.000307233
      6        6           0.014985306   -0.003282151   -0.000190753
      7       35          -0.005916829    0.001010003    0.000087308
      8        6           0.000452367    0.001698390   -0.000167555
      9        6          -0.002593784   -0.005214272    0.000336516
     10        6          -0.001443732   -0.008131816    0.000762794
     11        6          -0.003186176    0.006703441   -0.007499875
     12        6          -0.002514617    0.005875887    0.008328470
     13        6           0.006996050    0.000930177   -0.005980551
     14        6           0.009363347    0.006300796    0.013222192
     15        7          -0.004141397    0.008092210    0.002731897
     16        1          -0.007959441    0.009550713   -0.003450114
     17        1          -0.003682643    0.009590904   -0.000663498
     18        1           0.005069117    0.007178098    0.000012688
     19        1           0.003385008   -0.008065413    0.000100876
     20        1          -0.000593254    0.003651615    0.007728619
     21        1          -0.005108221   -0.007492437    0.000723251
     22        1           0.008477336   -0.003286512   -0.000267565
     23        1          -0.004607202   -0.007834885   -0.000417166
     24        1           0.008362847   -0.002254982   -0.001594932
     25        1          -0.001751807    0.004022317   -0.007571638
     26        1          -0.002946546   -0.000816516    0.006230592
     27        1          -0.003060549   -0.004870036   -0.000301624
     28        1           0.003060871    0.000339320   -0.009234118
     29        1          -0.007669612    0.005155181    0.000762544
     30        1           0.003122103   -0.003324197   -0.012022229
 -------------------------------------------------------------------
 Cartesian Forces:  Max     0.015792028 RMS     0.005737576

 GradGradGradGradGradGradGradGradGradGradGradGradGradGradGradGradGradGrad
 Berny optimization.
 FormGI is forming the generalized inverse of G from B-inverse, IUseBI=4.
 Internal  Forces:  Max     0.012532637 RMS     0.003810188
 Search for a local minimum.
 Step number   1 out of a maximum of  180
 All quantities printed in internal units (Hartrees-Bohrs-Radians)
 Mixed Optimization -- RFO/linear search
 Second derivative matrix not updated -- first step.
 ITU=  0
     Eigenvalues ---    0.00280   0.00281   0.00421   0.00816   0.01191
     Eigenvalues ---    0.01256   0.01659   0.02234   0.02267   0.02306
     Eigenvalues ---    0.02316   0.02318   0.02332   0.03029   0.03530
     Eigenvalues ---    0.03622   0.03748   0.04661   0.04896   0.05188
     Eigenvalues ---    0.05437   0.05440   0.05453   0.05570   0.05649
     Eigenvalues ---    0.06030   0.06815   0.07053   0.07611   0.08415
     Eigenvalues ---    0.08574   0.09694   0.11031   0.12429   0.13584
     Eigenvalues ---    0.15933   0.16000   0.16000   0.16000   0.16000
     Eigenvalues ---    0.16000   0.16000   0.16000   0.16000   0.16000
     Eigenvalues ---    0.16000   0.16000   0.18007   0.18433   0.21638
     Eigenvalues ---    0.22455   0.22909   0.23550   0.24638   0.24839
     Eigenvalues ---    0.25000   0.28091   0.28809   0.28819   0.29516
     Eigenvalues ---    0.30223   0.34398   0.34503   0.35081   0.35090
     Eigenvalues ---    0.35090   0.35106   0.35107   0.35181   0.35214
     Eigenvalues ---    0.35280   0.36003   0.36170   0.36182   0.42061
     Eigenvalues ---    0.43241   0.46468   0.46745   0.46851   0.47634
     Eigenvalues ---    0.48451   0.48852   0.67234   0.69206
 RFO step:  Lambda=-9.10432912D-03 EMin= 2.79867613D-03
 Linear search not attempted -- first point.
 Iteration  1 RMS(Cart)=  0.04010620 RMS(Int)=  0.00096555
 Iteration  2 RMS(Cart)=  0.00122792 RMS(Int)=  0.00017781
 Iteration  3 RMS(Cart)=  0.00000162 RMS(Int)=  0.00017780
 Iteration  4 RMS(Cart)=  0.00000000 RMS(Int)=  0.00017780
 Variable       Old X    -DE/DX   Delta X   Delta X   Delta X     New X
                                 (Linear)    (Quad)   (Total)
    R1        2.88021   0.00685   0.00000   0.00977   0.00977   2.88999
    R2        1.89884   0.01135   0.00000   0.02377   0.02377   1.92261
    R3        3.43329  -0.00213   0.00000  -0.00789  -0.00790   3.42539
    R4        3.48109  -0.00797   0.00000  -0.03648  -0.03645   3.44464
    R5        2.89336   0.00893   0.00000   0.01311   0.01311   2.90647
    R6        2.61879   0.00926   0.00000   0.01947   0.01947   2.63826
    R7        2.62532   0.01219   0.00000   0.02756   0.02747   2.65279
    R8        2.60744   0.00746   0.00000   0.01444   0.01444   2.62188
    R9        2.04077   0.01024   0.00000   0.02774   0.02774   2.06851
   R10        2.61723   0.01010   0.00000   0.01951   0.01952   2.63675
   R11        2.03797   0.00878   0.00000   0.02368   0.02368   2.06165
   R12        3.60001  -0.00600   0.00000  -0.03170  -0.03170   3.56831
   R13        2.60978   0.00839   0.00000   0.01628   0.01628   2.62606
   R14        2.63655   0.00855   0.00000   0.01855   0.01854   2.65509
   R15        2.03816   0.00874   0.00000   0.02356   0.02356   2.06173
   R16        2.86684   0.00700   0.00000   0.02408   0.02399   2.89083
   R17        2.90403   0.00066   0.00000   0.00223   0.00223   2.90626
   R18        2.90381   0.00108   0.00000   0.00363   0.00363   2.90744
   R19        2.90375   0.00026   0.00000   0.00046   0.00045   2.90420
   R20        2.05503   0.00852   0.00000   0.02365   0.02365   2.07868
   R21        2.05529   0.00908   0.00000   0.02523   0.02523   2.08051
   R22        2.05223   0.00908   0.00000   0.02508   0.02508   2.07731
   R23        2.05528   0.00908   0.00000   0.02523   0.02523   2.08052
   R24        2.05329   0.00877   0.00000   0.02427   0.02427   2.07756
   R25        2.05544   0.00869   0.00000   0.02413   0.02413   2.07957
   R26        2.85553   0.00467   0.00000   0.01388   0.01404   2.86957
   R27        2.06664   0.00605   0.00000   0.01714   0.01714   2.08378
   R28        2.06490   0.00574   0.00000   0.01620   0.01620   2.08110
   R29        2.05382   0.00969   0.00000   0.02684   0.02684   2.08066
   R30        2.05502   0.00774   0.00000   0.02149   0.02149   2.07651
   R31        1.90307   0.01253   0.00000   0.02645   0.02645   1.92952
    A1        1.97668  -0.01124   0.00000  -0.06644  -0.06644   1.91024
    A2        1.84112   0.00061   0.00000   0.01172   0.01159   1.85271
    A3        1.91008  -0.00155   0.00000  -0.00184  -0.00168   1.90840
    A4        1.99732   0.00451   0.00000   0.04103   0.04109   2.03841
    A5        1.69128  -0.00046   0.00000  -0.01204  -0.01232   1.67895
    A6        1.97464  -0.00073   0.00000  -0.00912  -0.01008   1.96456
    A7        2.01887  -0.00298   0.00000  -0.03499  -0.03513   1.98374
    A8        1.98956  -0.00178   0.00000  -0.01462  -0.01456   1.97500
    A9        2.17016   0.00002   0.00000   0.00803   0.00793   2.17809
   A10        2.12343   0.00176   0.00000   0.00652   0.00655   2.12998
   A11        2.11272  -0.00226   0.00000  -0.00753  -0.00756   2.10517
   A12        2.05799   0.00199   0.00000   0.00883   0.00883   2.06682
   A13        2.11245   0.00027   0.00000  -0.00132  -0.00132   2.11113
   A14        2.05299   0.00156   0.00000   0.00560   0.00559   2.05858
   A15        2.11879  -0.00101   0.00000  -0.00416  -0.00416   2.11463
   A16        2.11139  -0.00055   0.00000  -0.00145  -0.00145   2.10995
   A17        2.08412  -0.00062   0.00000  -0.00182  -0.00181   2.08231
   A18        2.12373   0.00025   0.00000  -0.00017  -0.00018   2.12355
   A19        2.07533   0.00037   0.00000   0.00198   0.00199   2.07732
   A20        2.11162  -0.00012   0.00000   0.00151   0.00149   2.11311
   A21        2.07210   0.00045   0.00000   0.00156   0.00157   2.07367
   A22        2.09946  -0.00033   0.00000  -0.00308  -0.00307   2.09639
   A23        2.04172  -0.00121   0.00000  -0.00593  -0.00589   2.03582
   A24        2.17057  -0.00074   0.00000   0.00708   0.00688   2.17744
   A25        2.07089   0.00194   0.00000  -0.00123  -0.00115   2.06973
   A26        1.90501   0.00227   0.00000   0.01056   0.01055   1.91555
   A27        1.90179  -0.00068   0.00000  -0.00054  -0.00057   1.90123
   A28        1.96564  -0.00197   0.00000  -0.01163  -0.01167   1.95396
   A29        1.90734  -0.00051   0.00000   0.00299   0.00296   1.91030
   A30        1.86604  -0.00038   0.00000   0.00071   0.00085   1.86688
   A31        1.91718   0.00131   0.00000  -0.00159  -0.00170   1.91548
   A32        1.92250   0.00108   0.00000   0.00708   0.00707   1.92957
   A33        1.91542   0.00023   0.00000   0.00070   0.00070   1.91612
   A34        1.95162   0.00057   0.00000   0.00335   0.00334   1.95496
   A35        1.89352  -0.00064   0.00000  -0.00372  -0.00373   1.88980
   A36        1.89438  -0.00073   0.00000  -0.00311  -0.00313   1.89124
   A37        1.88509  -0.00059   0.00000  -0.00478  -0.00478   1.88031
   A38        1.91907   0.00029   0.00000   0.00191   0.00190   1.92097
   A39        1.93835   0.00067   0.00000   0.00346   0.00345   1.94180
   A40        1.94161   0.00126   0.00000   0.00775   0.00773   1.94935
   A41        1.88829  -0.00057   0.00000  -0.00394  -0.00394   1.88435
   A42        1.89267  -0.00068   0.00000  -0.00306  -0.00308   1.88960
   A43        1.88225  -0.00107   0.00000  -0.00671  -0.00672   1.87553
   A44        1.99343  -0.00055   0.00000  -0.00042  -0.00051   1.99292
   A45        1.90315   0.00068   0.00000   0.00630   0.00630   1.90946
   A46        1.89341   0.00002   0.00000   0.00051   0.00052   1.89393
   A47        1.85620  -0.00044   0.00000   0.00983   0.00986   1.86606
   A48        1.92774   0.00134   0.00000  -0.00046  -0.00046   1.92728
   A49        1.88702  -0.00112   0.00000  -0.01669  -0.01668   1.87034
   A50        1.82071   0.00597   0.00000   0.04794   0.04815   1.86887
   A51        1.88189  -0.00164   0.00000  -0.01648  -0.01692   1.86497
   A52        1.88141  -0.00526   0.00000  -0.04424  -0.04499   1.83642
   A53        1.99394  -0.00145   0.00000  -0.00469  -0.00455   1.98939
   A54        1.95837   0.00109   0.00000   0.01831   0.01897   1.97734
   A55        1.92008   0.00103   0.00000  -0.00321  -0.00397   1.91611
   A56        1.99835  -0.00524   0.00000  -0.03097  -0.03097   1.96738
    D1        2.39545   0.00203   0.00000   0.03160   0.03188   2.42733
    D2       -2.08480   0.00121   0.00000   0.02243   0.02235  -2.06245
    D3        0.21350  -0.00045   0.00000   0.00755   0.00735   0.22085
    D4       -1.59996  -0.00135   0.00000   0.00704   0.00717  -1.59279
    D5        1.53275  -0.00091   0.00000  -0.00037  -0.00027   1.53247
    D6        2.72109   0.00031   0.00000   0.01033   0.01053   2.73162
    D7       -0.42939   0.00075   0.00000   0.00292   0.00309  -0.42630
    D8        0.59604   0.00433   0.00000   0.06162   0.06159   0.65763
    D9       -2.55443   0.00477   0.00000   0.05421   0.05414  -2.50029
   D10       -0.90718   0.00027   0.00000  -0.01923  -0.01897  -0.92615
   D11       -3.03332  -0.00043   0.00000  -0.03128  -0.03096  -3.06428
   D12        1.17755   0.00209   0.00000   0.00546   0.00496   1.18250
   D13        0.99778   0.00035   0.00000  -0.01193  -0.01186   0.98592
   D14       -1.12836  -0.00034   0.00000  -0.02397  -0.02385  -1.15222
   D15        3.08251   0.00218   0.00000   0.01277   0.01206   3.09457
   D16        3.08915  -0.00203   0.00000  -0.04476  -0.04437   3.04478
   D17        0.96300  -0.00273   0.00000  -0.05681  -0.05636   0.90664
   D18       -1.10931  -0.00021   0.00000  -0.02007  -0.02045  -1.12976
   D19       -3.09612   0.00196   0.00000   0.02292   0.02318  -3.07294
   D20        1.07740  -0.00175   0.00000  -0.01721  -0.01705   1.06035
   D21       -0.85143   0.00122   0.00000   0.02658   0.02616  -0.82527
   D22        3.14137   0.00001   0.00000  -0.01057  -0.01063   3.13074
   D23       -0.00647  -0.00010   0.00000  -0.01598  -0.01603  -0.02250
   D24        0.00839  -0.00040   0.00000  -0.00339  -0.00343   0.00497
   D25       -3.13945  -0.00051   0.00000  -0.00880  -0.00883   3.13491
   D26        3.13262  -0.00032   0.00000   0.00901   0.00921  -3.14136
   D27       -0.00318   0.00103   0.00000   0.02420   0.02442   0.02124
   D28       -0.01851   0.00013   0.00000   0.00095   0.00104  -0.01747
   D29        3.12888   0.00148   0.00000   0.01614   0.01625  -3.13806
   D30        0.00570   0.00029   0.00000   0.00222   0.00220   0.00790
   D31       -3.14035   0.00006   0.00000  -0.00109  -0.00108  -3.14143
   D32       -3.12945   0.00040   0.00000   0.00776   0.00771  -3.12174
   D33        0.00768   0.00017   0.00000   0.00446   0.00443   0.01212
   D34        3.13033  -0.00017   0.00000  -0.00060  -0.00059   3.12974
   D35       -0.00908   0.00007   0.00000   0.00134   0.00135  -0.00773
   D36       -0.00683   0.00006   0.00000   0.00270   0.00269  -0.00414
   D37        3.13695   0.00030   0.00000   0.00464   0.00463   3.14158
   D38       -0.00151  -0.00035   0.00000  -0.00388  -0.00386  -0.00537
   D39       -3.14010  -0.00037   0.00000  -0.00211  -0.00211   3.14097
   D40       -3.14093  -0.00012   0.00000  -0.00194  -0.00193   3.14033
   D41        0.00367  -0.00013   0.00000  -0.00017  -0.00018   0.00349
   D42        0.01507   0.00022   0.00000   0.00254   0.00248   0.01755
   D43       -3.13198  -0.00106   0.00000  -0.01171  -0.01172   3.13949
   D44       -3.12957   0.00023   0.00000   0.00075   0.00072  -3.12885
   D45        0.00657  -0.00104   0.00000  -0.01350  -0.01349  -0.00692
   D46       -2.17913  -0.00178   0.00000  -0.02314  -0.02306  -2.20218
   D47        2.02237  -0.00210   0.00000  -0.03266  -0.03259   1.98978
   D48       -0.10951  -0.00197   0.00000  -0.02248  -0.02235  -0.13186
   D49        0.96836  -0.00040   0.00000  -0.00770  -0.00756   0.96079
   D50       -1.11333  -0.00072   0.00000  -0.01722  -0.01709  -1.13043
   D51        3.03797  -0.00059   0.00000  -0.00705  -0.00685   3.03112
   D52        0.96292  -0.00030   0.00000   0.00820   0.00819   0.97111
   D53        3.04656  -0.00028   0.00000   0.00843   0.00842   3.05499
   D54       -1.14509  -0.00050   0.00000   0.00506   0.00504  -1.14005
   D55        3.04117  -0.00008   0.00000   0.01558   0.01562   3.05679
   D56       -1.15838  -0.00006   0.00000   0.01582   0.01586  -1.14252
   D57        0.93315  -0.00028   0.00000   0.01245   0.01248   0.94562
   D58       -1.16790   0.00099   0.00000   0.01570   0.01568  -1.15222
   D59        0.91574   0.00101   0.00000   0.01594   0.01591   0.93165
   D60        3.00727   0.00080   0.00000   0.01256   0.01253   3.01980
   D61       -3.14121   0.00117   0.00000  -0.00104  -0.00102   3.14096
   D62        1.05255   0.00126   0.00000   0.00042   0.00045   1.05300
   D63       -1.04420   0.00132   0.00000   0.00139   0.00141  -1.04279
   D64        1.06174  -0.00088   0.00000  -0.01529  -0.01526   1.04648
   D65       -1.02769  -0.00079   0.00000  -0.01382  -0.01379  -1.04148
   D66       -3.12444  -0.00073   0.00000  -0.01286  -0.01282  -3.13726
   D67       -0.98030  -0.00089   0.00000  -0.01697  -0.01703  -0.99733
   D68       -3.06974  -0.00079   0.00000  -0.01550  -0.01556  -3.08529
   D69        1.11670  -0.00073   0.00000  -0.01454  -0.01459   1.10211
   D70        0.84609  -0.00280   0.00000  -0.02631  -0.02625   0.81984
   D71       -1.22743  -0.00236   0.00000  -0.04297  -0.04297  -1.27040
   D72        3.00441  -0.00142   0.00000  -0.02681  -0.02682   2.97759
   D73        2.93838  -0.00141   0.00000  -0.01968  -0.01960   2.91878
   D74        0.86486  -0.00097   0.00000  -0.03634  -0.03632   0.82854
   D75       -1.18648  -0.00003   0.00000  -0.02018  -0.02016  -1.20665
   D76       -1.27708  -0.00152   0.00000  -0.01657  -0.01650  -1.29359
   D77        2.93258  -0.00108   0.00000  -0.03323  -0.03322   2.89936
   D78        0.88124  -0.00014   0.00000  -0.01707  -0.01707   0.86417
   D79       -1.34165  -0.00071   0.00000   0.01678   0.01687  -1.32478
   D80        0.70875   0.00037   0.00000   0.02502   0.02505   0.73379
   D81        2.90966   0.00151   0.00000   0.03235   0.03206   2.94172
   D82        0.75829  -0.00050   0.00000   0.03123   0.03138   0.78967
   D83        2.80868   0.00058   0.00000   0.03947   0.03956   2.84824
   D84       -1.27359   0.00172   0.00000   0.04680   0.04657  -1.22702
   D85        2.80181  -0.00138   0.00000   0.01676   0.01691   2.81872
   D86       -1.43098  -0.00030   0.00000   0.02500   0.02509  -1.40589
   D87        0.76993   0.00084   0.00000   0.03233   0.03210   0.80204
         Item               Value     Threshold  Converged?
 Maximum Force            0.012533     0.000450     NO 
 RMS     Force            0.003810     0.000300     NO 
 Maximum Displacement     0.207766     0.001800     NO 
 RMS     Displacement     0.040150     0.001200     NO 
 Predicted change in Energy=-4.856413D-03
 GradGradGradGradGradGradGradGradGradGradGradGradGradGradGradGradGradGrad

                          Input orientation:                          
 ---------------------------------------------------------------------
 Center     Atomic      Atomic             Coordinates (Angstroms)
 Number     Number       Type             X           Y           Z
 ---------------------------------------------------------------------
      1          7           0       -3.190646    1.126287    1.490602
      2         16           0       -2.773501    1.070366    0.020341
      3          6           0       -1.006135    0.667866    0.012576
      4          6           0       -0.185728    1.797483    0.015288
      5          6           0        1.195596    1.667573    0.023058
      6          6           0        1.731285    0.379204    0.018287
      7         35           0        3.606522    0.157920    0.009041
      8          6           0        0.919334   -0.748559    0.015287
      9          6           0       -0.480974   -0.633952    0.023416
     10          6           0       -1.320132   -1.912989    0.016753
     11          6           0       -0.905917   -2.812541    1.193380
     12          6           0       -1.081995   -2.659364   -1.307393
     13          6           0       -2.819013   -1.617654    0.184093
     14          6           0       -3.336819   -0.502967   -0.707660
     15          7           0       -3.102094    2.301601   -0.840848
     16          1           0       -3.822016    1.911093    1.633977
     17          1           0       -0.658388    2.784663   -0.000075
     18          1           0        1.845027    2.544199    0.025385
     19          1           0        1.387906   -1.733821    0.010992
     20          1           0       -0.987057   -2.266062    2.144568
     21          1           0       -1.568064   -3.690775    1.242165
     22          1           0        0.126145   -3.176652    1.090185
     23          1           0       -1.677672   -3.584943   -1.331657
     24          1           0       -0.023985   -2.933821   -1.425547
     25          1           0       -1.362910   -2.045521   -2.176472
     26          1           0       -3.018652   -1.314518    1.225328
     27          1           0       -3.380966   -2.547253    0.002835
     28          1           0       -2.947481   -0.535928   -1.737037
     29          1           0       -4.433432   -0.435706   -0.726741
     30          1           0       -2.855065    2.173097   -1.823205
 ---------------------------------------------------------------------
                    Distance matrix (angstroms):
                    1          2          3          4          5
     1  N    0.000000
     2  S    1.529315   0.000000
     3  C    2.677088   1.812636   0.000000
     4  C    3.414174   2.687990   1.396105   0.000000
     5  C    4.656801   4.013776   2.418087   1.387442   0.000000
     6  C    5.191460   4.557500   2.752604   2.384631   1.395306
     7  Br   7.023835   6.444950   4.640761   4.131509   2.844611
     8  C    4.752214   4.116496   2.390334   2.775516   2.431886
     9  C    3.548718   2.856640   1.403795   2.449309   2.847438
    10  C    3.861121   3.318539   2.599889   3.880010   4.375997
    11  C    4.563189   4.465519   3.676625   4.812369   5.085020
    12  C    5.158134   4.305225   3.580297   4.734582   5.067534
    13  C    3.061747   2.693389   2.922250   4.315767   5.189965
    14  C    2.740107   1.822825   2.705859   3.967883   5.078186
    15  N    2.612444   1.538037   2.791141   3.080957   4.429274
    16  H    1.017401   2.100006   3.479043   3.981915   5.275490
    17  H    3.374116   2.722670   2.145208   1.094608   2.164644
    18  H    5.432802   4.847990   3.413197   2.163713   1.090981
    19  H    5.597554   5.018054   3.391097   3.866064   3.406848
    20  H    4.097745   4.339985   3.626801   4.657076   4.973757
    21  H    5.089065   5.061067   4.563486   5.791119   6.151092
    22  H    5.447635   5.252587   4.150135   5.098499   5.074347
    23  H    5.696484   4.969974   4.510466   5.745491   6.138390
    24  H    5.917444   5.067933   4.000620   4.948475   4.975807
    25  H    5.181546   4.065035   3.504524   4.578018   5.017066
    26  H    2.461195   2.683238   3.074221   4.378836   5.300774
    27  H    3.967943   3.668309   3.997113   5.393184   6.221743
    28  H    3.638646   2.387222   2.877341   4.017802   5.011830
    29  H    2.983446   2.362574   3.675707   4.855999   6.055736
    30  H    3.491382   2.149728   3.009045   3.262898   4.480189
                    6          7          8          9         10
     6  C    0.000000
     7  Br   1.888270   0.000000
     8  C    1.389648   2.835970   0.000000
     9  C    2.433229   4.163519   1.405013   0.000000
    10  C    3.816452   5.344217   2.524106   1.529761   0.000000
    11  C    4.303826   5.530679   2.996576   2.509112   1.537927
    12  C    4.347973   5.626036   3.066916   2.496913   1.538554
    13  C    4.971936   6.668644   3.841752   2.541636   1.536837
[...]
     2  S    0.000023   0.010826  -0.073893  -0.019354  -0.002485   0.002553
     3  C    0.002276   0.176401   0.083421  -0.263988   0.010427  -0.002558
     4  C    0.016088  -0.322098   0.057224   0.006975   0.001496  -0.002234
     5  C   -0.067003   0.157796  -0.206288   0.002432  -0.000970   0.000356
     6  C    0.299784   0.283000   0.130092   0.011275   0.004528   0.002964
     7  Br  34.879929  -0.061230   0.016222  -0.002029   0.000033  -0.000008
     8  C   -0.061230   5.711191   0.035399  -0.062319  -0.010790  -0.002647
     9  C    0.016222   0.035399   5.871430   0.208895  -0.052669  -0.070064
    10  C   -0.002029  -0.062319   0.208895   5.363039   0.307076   0.369663
    11  C    0.000033  -0.010790  -0.052669   0.307076   5.048222  -0.071313
    12  C   -0.000008  -0.002647  -0.070064   0.369663  -0.071313   5.024013
    13  C    0.000044   0.032592  -0.054656   0.159808  -0.045144  -0.052193
    14  C   -0.000008  -0.017878  -0.051310   0.031983   0.010745  -0.005860
    15  N   -0.000001  -0.001887   0.015050   0.003622  -0.000103   0.000311
    16  H    0.000000   0.000134   0.001465   0.000217  -0.000015   0.000012
    17  H   -0.000368  -0.009139   0.023625   0.000314   0.000023  -0.000024
    18  H   -0.005033   0.017237  -0.002456   0.000233  -0.000008   0.000000
    19  H   -0.000168   0.439799  -0.101798   0.008023  -0.003055  -0.002747
    20  H    0.000015  -0.002856  -0.010932  -0.024405   0.410526   0.011827
    21  H   -0.000004  -0.001021   0.020661  -0.037868   0.396482  -0.006801
    22  H    0.000140   0.006767  -0.026654  -0.025033   0.402888  -0.007677
    23  H   -0.000003  -0.000867   0.017525  -0.037638  -0.005226   0.396919
    24  H    0.000156   0.006317  -0.015942  -0.023542  -0.011268   0.400909
    25  H    0.000006  -0.001737  -0.009525  -0.028300   0.013010   0.399713
    26  H   -0.000001   0.000963  -0.012809   0.015303  -0.012236   0.008860
    27  H   -0.000001  -0.002715   0.013944  -0.038287  -0.008649  -0.011586
    28  H   -0.000001   0.002166   0.003966   0.019672  -0.000905   0.000495
    29  H    0.000000   0.000490   0.002003   0.004110  -0.000166   0.000232
    30  H   -0.000000   0.000506  -0.000956  -0.000442   0.000014   0.000052
              13         14         15         16         17         18
     1  N   -0.053350  -0.025150  -0.086880   0.298259   0.000330  -0.000057
     2  S   -0.018863   0.263541   0.427980  -0.007630  -0.011264  -0.000353
     3  C    0.060955  -0.050498  -0.054150   0.012251  -0.100173   0.014016
     4  C   -0.010139   0.057265   0.010314  -0.002289   0.481648  -0.068610
     5  C    0.002020  -0.005239  -0.005790   0.000106  -0.094587   0.451192
     6  C   -0.002558   0.002510   0.000935  -0.000022   0.020244  -0.068460
     7  Br   0.000044  -0.000008  -0.000001   0.000000  -0.000368  -0.005033
     8  C    0.032592  -0.017878  -0.001887   0.000134  -0.009139   0.017237
     9  C   -0.054656  -0.051310   0.015050   0.001465   0.023625  -0.002456
    10  C    0.159808   0.031983   0.003622   0.000217   0.000314   0.000233
    11  C   -0.045144   0.010745  -0.000103  -0.000015   0.000023  -0.000008
    12  C   -0.052193  -0.005860   0.000311   0.000012  -0.000024   0.000000
    13  C    5.339925   0.172155   0.005277   0.000315  -0.000828  -0.000018
    14  C    0.172155   5.234887  -0.055700  -0.004365   0.003442  -0.000018
    15  N    0.005277  -0.055700   6.980155  -0.001825   0.029158  -0.000033
    16  H    0.000315  -0.004365  -0.001825   0.478782  -0.000126  -0.000002
    17  H   -0.000828   0.003442   0.029158  -0.000126   0.518972  -0.007897
    18  H   -0.000018  -0.000018  -0.000033  -0.000002  -0.007897   0.530525
    19  H    0.001159  -0.000063   0.000007  -0.000002   0.000027  -0.000085
    20  H   -0.012759  -0.000154   0.000010  -0.000007  -0.000000  -0.000001
    21  H   -0.012840   0.000920   0.000001  -0.000001  -0.000000   0.000000
    22  H    0.014118  -0.000833  -0.000000  -0.000000   0.000001  -0.000002
    23  H   -0.011126  -0.000038  -0.000006  -0.000001  -0.000000   0.000000
    24  H    0.013376  -0.000400  -0.000004  -0.000000   0.000003  -0.000001
    25  H   -0.009069   0.003289  -0.000079  -0.000002   0.000013  -0.000002
    26  H    0.371090  -0.035641   0.002017  -0.000718  -0.000059   0.000001
    27  H    0.365098  -0.004081  -0.000441  -0.000105   0.000020  -0.000000
    28  H   -0.057830   0.376292   0.001539   0.000011  -0.000239   0.000006
    29  H   -0.011802   0.367855   0.007926   0.001794  -0.000111  -0.000000
    30  H    0.001750  -0.005794   0.271180   0.000054  -0.002349   0.000012
              19         20         21         22         23         24
     1  N    0.000025   0.000585   0.000017   0.000012   0.000003   0.000006
     2  S    0.000017   0.000284   0.000048   0.000017  -0.000057  -0.000007
     3  C    0.015558   0.003128  -0.000137   0.000197   0.000217  -0.000215
     4  C   -0.004056   0.000054   0.000060   0.000070   0.000065   0.000080
     5  C    0.015681  -0.000073  -0.000004  -0.000020  -0.000005  -0.000023
     6  C   -0.041247   0.000208  -0.000147   0.001153  -0.000101  -0.000102
     7  Br  -0.000168   0.000015  -0.000004   0.000140  -0.000003   0.000156
     8  C    0.439799  -0.002856  -0.001021   0.006767  -0.000867   0.006317
     9  C   -0.101798  -0.010932   0.020661  -0.026654   0.017525  -0.015942
    10  C    0.008023  -0.024405  -0.037868  -0.025033  -0.037638  -0.023542
    11  C   -0.003055   0.410526   0.396482   0.402888  -0.005226  -0.011268
    12  C   -0.002747   0.011827  -0.006801  -0.007677   0.396919   0.400909
    13  C    0.001159  -0.012759  -0.012840   0.014118  -0.011126   0.013376
    14  C   -0.000063  -0.000154   0.000920  -0.000833  -0.000038  -0.000400
    15  N    0.000007   0.000010   0.000001  -0.000000  -0.000006  -0.000004
    16  H   -0.000002  -0.000007  -0.000001  -0.000000  -0.000001  -0.000000
    17  H    0.000027  -0.000000  -0.000000   0.000001  -0.000000   0.000003
    18  H   -0.000085  -0.000001   0.000000  -0.000002   0.000000  -0.000001
    19  H    0.535394  -0.000346  -0.000108   0.004335  -0.000115   0.002322
    20  H   -0.000346   0.511816  -0.020017  -0.019533  -0.000156  -0.000071
    21  H   -0.000108  -0.020017   0.549222  -0.022066   0.002186  -0.000005
    22  H    0.004335  -0.019533  -0.022066   0.542213  -0.000082   0.002442
    23  H   -0.000115  -0.000156   0.002186  -0.000082   0.546017  -0.019455
    24  H    0.002322  -0.000071  -0.000005   0.002442  -0.019455   0.533288
    25  H    0.000021  -0.000409  -0.000069  -0.000071  -0.022332  -0.019925
    26  H   -0.000075   0.004704  -0.001314   0.000433   0.000249  -0.000290
    27  H   -0.000043  -0.000150   0.005900  -0.000182   0.004669   0.000239
    28  H   -0.000019  -0.000009  -0.000008   0.000011   0.000132  -0.000054
    29  H   -0.000003  -0.000021  -0.000061   0.000012  -0.000119   0.000010
    30  H    0.000004  -0.000002  -0.000000  -0.000000  -0.000001  -0.000006
              25         26         27         28         29         30
     1  N   -0.000057   0.027676   0.000232   0.005547   0.001419   0.008665
     2  S   -0.001009   0.004953   0.002617  -0.006066  -0.020105   0.017228
     3  C    0.004008  -0.008607   0.003078  -0.013996   0.006894  -0.002422
     4  C    0.000177  -0.002089   0.001077  -0.006443  -0.001761  -0.006320
     5  C   -0.000101   0.000206  -0.000095   0.000641   0.000094   0.000516
     6  C   -0.000059   0.000068   0.000075  -0.000212  -0.000033  -0.000251
     7  Br   0.000006  -0.000001  -0.000001  -0.000001   0.000000  -0.000000
     8  C   -0.001737   0.000963  -0.002715   0.002166   0.000490   0.000506
     9  C   -0.009525  -0.012809   0.013944   0.003966   0.002003  -0.000956
    10  C   -0.028300   0.015303  -0.038287   0.019672   0.004110  -0.000442
    11  C    0.013010  -0.012236  -0.008649  -0.000905  -0.000166   0.000014
    12  C    0.399713   0.008860  -0.011586   0.000495   0.000232   0.000052
    13  C   -0.009069   0.371090   0.365098  -0.057830  -0.011802   0.001750
    14  C    0.003289  -0.035641  -0.004081   0.376292   0.367855  -0.005794
    15  N   -0.000079   0.002017  -0.000441   0.001539   0.007926   0.271180
    16  H   -0.000002  -0.000718  -0.000105   0.000011   0.001794   0.000054
    17  H    0.000013  -0.000059   0.000020  -0.000239  -0.000111  -0.002349
    18  H   -0.000002   0.000001  -0.000000   0.000006  -0.000000   0.000012
    19  H    0.000021  -0.000075  -0.000043  -0.000019  -0.000003   0.000004
    20  H   -0.000409   0.004704  -0.000150  -0.000009  -0.000021  -0.000002
    21  H   -0.000069  -0.001314   0.005900  -0.000008  -0.000061  -0.000000
    22  H   -0.000071   0.000433  -0.000182   0.000011   0.000012  -0.000000
    23  H   -0.022332   0.000249   0.004669   0.000132  -0.000119  -0.000001
    24  H   -0.019925  -0.000290   0.000239  -0.000054   0.000010  -0.000006
    25  H    0.550006  -0.000436   0.000271  -0.000474   0.000125  -0.000040
    26  H   -0.000436   0.508981  -0.021153   0.006245   0.000026  -0.000252
    27  H    0.000271  -0.021153   0.582812  -0.002270  -0.011616  -0.000070
    28  H   -0.000474   0.006245  -0.002270   0.551592  -0.012321   0.002131
    29  H    0.000125   0.000026  -0.011616  -0.012321   0.518500  -0.000393
    30  H   -0.000040  -0.000252  -0.000070   0.002131  -0.000393   0.507753
 Mulliken charges:
               1
     1  N   -0.553488
     2  S    0.474628
     3  C    0.028093
     4  C   -0.134696
     5  C   -0.218590
     6  C    0.181458
     7  Br  -0.078857
     8  C   -0.383398
     9  C    0.209376
    10  C    0.050215
    11  C   -0.378911
    12  C   -0.383108
    13  C   -0.186507
    14  C   -0.261856
    15  N   -0.548583
    16  H    0.223709
    17  H    0.149347
    18  H    0.139812
    19  H    0.131557
    20  H    0.148744
    21  H    0.126975
    22  H    0.127344
    23  H    0.129346
    24  H    0.132158
    25  H    0.123059
    26  H    0.143905
    27  H    0.121411
    28  H    0.130402
    29  H    0.147022
    30  H    0.209433
 Sum of Mulliken charges =  -0.00000
 Mulliken charges with hydrogens summed into heavy atoms:
               1
     1  N   -0.329779
     2  S    0.474628
     3  C    0.028093
     4  C    0.014651
     5  C   -0.078778
     6  C    0.181458
     7  Br  -0.078857
     8  C   -0.251842
     9  C    0.209376
    10  C    0.050215
    11  C    0.024152
    12  C    0.001456
    13  C    0.078809
    14  C    0.015568
    15  N   -0.339150
 Electronic spatial extent (au):  <R**2>=           5136.0764
 Charge=              0.0000 electrons
 Dipole moment (field-independent basis, Debye):
    X=              0.6541    Y=              3.6744    Z=             -2.0781  Tot=              4.2717
 Quadrupole moment (field-independent basis, Debye-Ang):
   XX=           -109.8193   YY=           -110.6806   ZZ=           -113.2730
   XY=             10.9082   XZ=             -4.2527   YZ=              0.6708
 Traceless Quadrupole moment (field-independent basis, Debye-Ang):
   XX=              1.4384   YY=              0.5770   ZZ=             -2.0154
   XY=             10.9082   XZ=             -4.2527   YZ=              0.6708
 Octapole moment (field-independent basis, Debye-Ang**2):
  XXX=            -80.2674  YYY=             15.0630  ZZZ=            -16.1715  XYY=            -61.3303
  XXY=             23.7095  XXZ=             -3.6489  XZZ=            -31.6891  YZZ=             -0.6326
  YYZ=              4.6088  XYZ=             -2.8414
 Hexadecapole moment (field-independent basis, Debye-Ang**3):
 XXXX=          -3785.2481 YYYY=          -1738.0760 ZZZZ=           -462.6097 XXXY=             62.5304
 XXXZ=             24.3089 YYYX=            113.3450 YYYZ=            -18.6930 ZZZX=            -36.8021
 ZZZY=             24.0474 XXYY=           -990.3201 XXZZ=           -735.5965 YYZZ=           -372.1144
 XXYZ=            -28.7516 YYXZ=             22.9543 ZZXY=             -6.9317
 N-N= 1.503440977261D+03 E-N=-1.135161187995D+04  KE= 3.502251348194D+03
 Breneman (CHELPG) radii used.
 Read replacement radii for each type of atom:
 Rad(35) =   1.850000000000D+00
 Atom Element Radius
    1     7    1.70
    2    16    2.00
    3     6    1.50
    4     6    1.50
    5     6    1.50
    6     6    1.50
    7    35    1.85
    8     6    1.50
    9     6    1.50
   10     6    1.50
   11     6    1.50
   12     6    1.50
   13     6    1.50
   14     6    1.50
   15     7    1.70
   16     1    1.45
   17     1    1.45
   18     1    1.45
   19     1    1.45
   20     1    1.45
   21     1    1.45
   22     1    1.45
   23     1    1.45
   24     1    1.45
   25     1    1.45
   26     1    1.45
   27     1    1.45
   28     1    1.45
   29     1    1.45
   30     1    1.45
 Generate Potential Derived Charges using the Breneman model, NDens= 1.
 Grid spacing= 0.300 Box extension= 2.800
 NStep X,Y,Z=   47     42     34   Total possible points=       67116
 Number of Points to Fit=   16698

 **********************************************************************

            Electrostatic Properties Using The SCF Density.

 **********************************************************************

       Atomic Center    1 is at   2.835170 -1.337436  1.533482
       Atomic Center    2 is at   2.540977 -1.146965  0.032859
       Atomic Center    3 is at   0.793713 -0.723454  0.028236
       Atomic Center    4 is at  -0.040742 -1.842022  0.015613
       Atomic Center    5 is at  -1.418400 -1.691032  0.010024
       Atomic Center    6 is at  -1.939259 -0.396376  0.005931
       Atomic Center    7 is at  -3.809083 -0.149760 -0.013359
       Atomic Center    8 is at  -1.107659  0.716928  0.011098
       Atomic Center    9 is at   0.289337  0.583544  0.030971
       Atomic Center   10 is at   1.147742  1.850819  0.018255
       Atomic Center   11 is at   0.709278  2.791012  1.148025
       Atomic Center   12 is at   0.959988  2.555431 -1.333947
       Atomic Center   13 is at   2.637895  1.542909  0.240685
       Atomic Center   14 is at   3.183094  0.423520 -0.616337
       Atomic Center   15 is at   2.914423 -2.323290 -0.896708
       Atomic Center   16 is at   3.744391 -1.805484  1.599855
       Atomic Center   17 is at   0.418672 -2.834048 -0.005549
       Atomic Center   18 is at  -2.080878 -2.557533  0.002770
       Atomic Center   19 is at  -1.560345  1.709316  0.004770
       Atomic Center   20 is at   0.769182  2.285533  2.123227
       Atomic Center   21 is at   1.368591  3.672617  1.176823
       Atomic Center   22 is at  -0.319490  3.154014  1.012427
       Atomic Center   23 is at   1.546536  3.487134 -1.362637
       Atomic Center   24 is at  -0.094832  2.814821 -1.505870
       Atomic Center   25 is at   1.280281  1.921911 -2.174829
       Atomic Center   26 is at   2.799944  1.255814  1.293459
       Atomic Center   27 is at   3.214387  2.465732  0.066782
       Atomic Center   28 is at   2.902524  0.492730 -1.679068
       Atomic Center   29 is at   4.275847  0.318993 -0.543248
       Atomic Center   30 is at   2.860397 -2.031125 -1.875834
   16698 points will be used for fitting atomic charges
 Fitting point charges to electrostatic potential
 Charges from ESP fit, RMS=   0.00401 RRMS=   0.23842:
 ESP charges:
               1
     1  N   -0.728402
     2  S    0.727283
     3  C   -0.028341
     4  C   -0.108014
     5  C   -0.068035
     6  C    0.051614
     7  Br  -0.080838
     8  C   -0.105855
     9  C   -0.001553
    10  C    0.354150
    11  C   -0.331003
    12  C   -0.425161
    13  C    0.205781
    14  C   -0.400975
    15  N   -0.748280
    16  H    0.339823
    17  H    0.138572
    18  H    0.091049
    19  H    0.081673
    20  H    0.067067
    21  H    0.064324
    22  H    0.097025
    23  H    0.115684
    24  H    0.102695
    25  H    0.067450
    26  H   -0.032109
    27  H   -0.014566
    28  H    0.124945
    29  H    0.143913
    30  H    0.300083
 Sum of ESP charges =  -0.00000
 ESP charges with hydrogens summed into heavy atoms:
               1
     1  N   -0.388578
     2  S    0.727283
     3  C   -0.028341
     4  C    0.030558
     5  C    0.023014
     6  C    0.051614
     7  Br  -0.080838
     8  C   -0.024182
     9  C   -0.001553
    10  C    0.354150
    11  C   -0.102587
    12  C   -0.139332
    13  C    0.159105
    14  C   -0.132117
    15  N   -0.448196
 Charge=  -0.00000 Dipole=     0.5402     3.6531    -2.0525 Tot=     4.2249
 -----------------------------------------------------------------

              Electrostatic Properties (Atomic Units)

 -----------------------------------------------------------------
    Center     Electric         -------- Electric Field --------
               Potential          X             Y             Z
 -----------------------------------------------------------------
    1 Atom    -18.426986
    2 Atom    -59.075046
    3 Atom    -14.725662
    4 Atom    -14.740086
    5 Atom    -14.740932
    6 Atom    -14.690456
    7 Atom   -175.795580
    8 Atom    -14.739550
    9 Atom    -14.721758
   10 Atom    -14.716063
   11 Atom    -14.759450
   12 Atom    -14.755226
   13 Atom    -14.743737
   14 Atom    -14.725995
   15 Atom    -18.422311
   16 Atom     -1.051295
   17 Atom     -1.085522
   18 Atom     -1.081229
   19 Atom     -1.077979
   20 Atom     -1.106945
   21 Atom     -1.103828
   22 Atom     -1.104387
   23 Atom     -1.100694
   24 Atom     -1.101374
   25 Atom     -1.100391
   26 Atom     -1.104321
   27 Atom     -1.096711
   28 Atom     -1.072497
   29 Atom     -1.073975
   30 Atom     -1.044342
 -----------------------------------------------------------------
 Unable to Open any file for archive entry.
 1\1\GINC-NOTCH095\SP\RPBE1PBE\def2TZVP\C11H15Br1N2S1\U1414944\24-Feb-2
 025\0\\#N Guess=Read Geom=Check Integral(Ultrafine) Density Pop=(Chelp
 G,ReadRadii) NMR pbe1pbe EmpiricalDispersion=GD3BJ def2TZVP\\SDI1023_1
 \\0,1\N,0,-3.0538594505,1.2872252254,1.489180498\S,0,-2.728899549,1.09
 27185221,-0.0045622504\C,0,-0.9794412243,0.6795471052,0.0270574243\C,0
 ,-0.1514519296,1.8029810611,0.0265012461\C,0,1.226905576,1.6601309714,
 0.0487622431\C,0,1.7553017385,0.3685761179,0.0601127913\Br,0,3.6265507
 614,0.1329649357,0.0787903487\C,0,0.9302833018,-0.7496051647,0.0532498
 454\C,0,-0.4675874692,-0.6244206447,0.0449571356\C,0,-1.3181517625,-1.
 8967963157,0.020296048\C,0,-0.8966582833,-2.8300157013,1.1622405215\C,
 0,-1.0995418636,-2.6054893451,-1.3251203471\C,0,-2.8141911698,-1.59686
 17196,0.2119829546\C,0,-3.3488446445,-0.4840320048,-0.6600918403\N,0,-
 3.0907327721,2.2632202251,-0.9459961644\H,0,-3.9669367075,1.75013319,1
 .5356974419\H,0,-0.6161463956,2.7921794403,-0.0076815358\H,0,1.8843221
 063,2.5305062001,0.0511735739\H,0,1.388798589,-1.7393114786,0.05981628
 7\H,0,-0.9788157618,-2.3211462171,2.1340533907\H,0,-1.5512487223,-3.71
 53919876,1.1814922498\H,0,0.1366972119,-3.1874382677,1.0484607809\H,0,
 -1.6799517742,-3.5407533424,-1.3617066684\H,0,-0.0400263121,-2.8592894
 177,-1.4751143925\H,0,-1.4068175674,-1.9771224714,-2.1746809797\H,0,-2
 .9987311458,-1.3066761048,1.2601981792\H,0,-3.3817231514,-2.5237450819
 ,0.0303769801\H,0,-3.0468857069,-0.5556736209,-1.7167828096\H,0,-4.443
 4230662,-0.3856965268,-0.6090470105\H,0,-3.0156212891,1.9676098572,-1.
 9226945664\\Version=ES64L-G16RevC.01\State=1-A\HF=-3509.1358099\RMSD=3
 .103e-09\Dipole=-0.2326468,-1.4502394,-0.816772\Quadrupole=0.8482612,0
 .5213378,-1.369599,8.1334114,3.1798026,-0.3267522\PG=C01 [X(C11H15Br1N
 2S1)]\\@
 The archive entry for this job was punched.


     "IF I COULD JUST GET IT ON PAPER"
 LIFE AND INK, THEY RUN OUT AT THE SAME TIME,
 OR SO SAID MY OLD FRIEND THE SQUID.
     -- JIMMY BUFFETT, 1981
 Job cpu time:       0 days  1 hours 15 minutes 43.8 seconds.
 Elapsed time:       0 days  0 hours  5 minutes  6.5 seconds.
 File lengths (MBytes):  RWF=    204 Int=      0 D2E=      0 Chk=     32 Scr=      2
 Normal termination of Gaussian 16 at Mon Feb 24 20:21:46 2025.
