 Entering Gaussian System, Link 0=g16
 Input=SDI2635_2.com
 Output=SDI2635_2.log
 Initial command:
 /uufs/chpc.utah.edu/sys/installdir/gaussian16/C01/AVX/g16/l1.exe "/scratch/general/vast/u1414944/3119896-notchpeak.peaks/Gau-1274365.inp" -scrdir="/scratch/general/vast/u1414944/3119896-notchpeak.peaks/"
 Entering Link 1 = /uufs/chpc.utah.edu/sys/installdir/gaussian16/C01/AVX/g16/l1.exe PID=   1274366.
  
 Copyright (c) 1988-2019, Gaussian, Inc.  All Rights Reserved.
  
 This is part of the Gaussian(R) 16 program.  It is based on
 the Gaussian(R) 09 system (copyright 2009, Gaussian, Inc.),
 the Gaussian(R) 03 system (copyright 2003, Gaussian, Inc.),
 the Gaussian(R) 98 system (copyright 1998, Gaussian, Inc.),
 the Gaussian(R) 94 system (copyright 1995, Gaussian, Inc.),
 the Gaussian 92(TM) system (copyright 1992, Gaussian, Inc.),
 the Gaussian 90(TM) system (copyright 1990, Gaussian, Inc.),
 the Gaussian 88(TM) system (copyright 1988, Gaussian, Inc.),
 the Gaussian 86(TM) system (copyright 1986, Carnegie Mellon
 University), and the Gaussian 82(TM) system (copyright 1983,
 Carnegie Mellon University). Gaussian is a federally registered
 trademark of Gaussian, Inc.
  
 This software contains proprietary and confidential information,
 including trade secrets, belonging to Gaussian, Inc.
  
 This software is provided under written license and may be
 used, copied, transmitted, or stored only in accord with that
 written license.
  
 The following legend is applicable only to US Government
 contracts under FAR:
  
                    RESTRICTED RIGHTS LEGEND
  
 Use, reproduction and disclosure by the US Government is
 subject to restrictions as set forth in subparagraphs (a)
 and (c) of the Commercial Computer Software - Restricted
 Rights clause in FAR 52.227-19.
  
 Gaussian, Inc.
 340 Quinnipiac St., Bldg. 40, Wallingford CT 06492
  
  
 ---------------------------------------------------------------
 Warning -- This program may not be used in any manner that
 competes with the business of Gaussian, Inc. or will provide
 assistance to any competitor of Gaussian, Inc.  The licensee
 of this program is prohibited from giving any competitor of
 Gaussian, Inc. access to this program.  By using this program,
 the user acknowledges that Gaussian, Inc. is engaged in the
 business of creating and licensing software in the field of
 computational chemistry and represents and warrants to the
 licensee that it is not a competitor of Gaussian, Inc. and that
 it will not use this program in any manner prohibited above.
 ---------------------------------------------------------------
  

 Cite this work as:
 Gaussian 16, Revision C.01,
 M. J. Frisch, G. W. Trucks, H. B. Schlegel, G. E. Scuseria, 
 M. A. Robb, J. R. Cheeseman, G. Scalmani, V. Barone, 
 G. A. Petersson, H. Nakatsuji, X. Li, M. Caricato, A. V. Marenich, 
 J. Bloino, B. G. Janesko, R. Gomperts, B. Mennucci, H. P. Hratchian, 
 J. V. Ortiz, A. F. Izmaylov, J. L. Sonnenberg, D. Williams-Young, 
 F. Ding, F. Lipparini, F. Egidi, J. Goings, B. Peng, A. Petrone, 
 T. Henderson, D. Ranasinghe, V. G. Zakrzewski, J. Gao, N. Rega, 
 G. Zheng, W. Liang, M. Hada, M. Ehara, K. Toyota, R. Fukuda, 
 J. Hasegawa, M. Ishida, T. Nakajima, Y. Honda, O. Kitao, H. Nakai, 
 T. Vreven, K. Throssell, J. A. Montgomery, Jr., J. E. Peralta, 
 F. Ogliaro, M. J. Bearpark, J. J. Heyd, E. N. Brothers, K. N. Kudin, 
 V. N. Staroverov, T. A. Keith, R. Kobayashi, J. Normand, 
 K. Raghavachari, A. P. Rendell, J. C. Burant, S. S. Iyengar, 
 J. Tomasi, M. Cossi, J. M. Millam, M. Klene, C. Adamo, R. Cammi, 
 J. W. Ochterski, R. L. Martin, K. Morokuma, O. Farkas, 
 J. B. Foresman, and D. J. Fox, Gaussian, Inc., Wallingford CT, 2019.
 
 ******************************************
 Gaussian 16:  ES64L-G16RevC.01  3-Jul-2019
                10-Feb-2025 
 ******************************************
 %NProcShared=16
 Will use up to   16 processors via shared memory.
 %Mem=40GB
 %chk=SDI2635_2.chk
 ----------------------------------------------------------------------
 #N OPT FREQ=NORAMAN Integral(Ultrafine) pbe1pbe EmpiricalDispersion=GD
 3BJ def2SVP
 ----------------------------------------------------------------------
 1/18=20,19=15,26=4,38=1/1,3;
 2/9=110,12=2,17=6,18=5,40=1/2;
 3/5=43,7=101,11=2,25=1,30=1,71=1,74=-13,75=-5,124=41/1,2,3;
 4//1;
 5/5=2,38=5/2;
 6/7=2,8=2,9=2,10=2,28=1/1;
 7//1,2,3,16;
 1/18=20,19=15,26=4/3(2);
 2/9=110/2;
 99//99;
 2/9=110/2;
 3/5=43,7=101,11=2,25=1,30=1,71=1,74=-13,75=-5,124=41/1,2,3;
 4/5=5,16=3,69=1/1;
 5/5=2,38=5/2;
 7//1,2,3,16;
 1/18=20,19=15,26=4/3(-5);
 2/9=110/2;
 6/7=2,8=2,9=2,10=2,19=2,28=1/1;
 99/9=1/99;
 ---------
 SDI2635_2
 ---------
 Symbolic Z-matrix:
 Charge =  0 Multiplicity = 1
 N                    -1.75167   1.10815  -0.67899 
 S                    -1.42192  -0.11157   0.19155 
 C                     0.3613   -0.02864   0.19921 
 C                     1.20911  -0.51662   1.14534 
 C                     2.56143  -0.26057   0.83397 
 C                     2.70076   0.41511  -0.33794 
 S                     1.18995   0.76017  -1.08377 
 C                    -1.63692  -1.72189  -0.64756 
 N                    -2.02186  -0.41292   1.57123 
 H                    -2.7167    1.39138  -0.65781 
 H                     0.86527  -1.03044   2.02455 
 H                     3.38541  -0.5635    1.45447 
 H                     3.60853   0.73746  -0.80819 
 H                    -1.15309  -1.67497  -1.61606 
 H                    -2.6994   -1.9047   -0.75403 
 H                    -1.19075  -2.47593  -0.01266 
 H                    -2.19625   0.40368   2.13368 
 

 GradGradGradGradGradGradGradGradGradGradGradGradGradGradGradGradGradGrad
 Berny optimization.
 Initialization pass.
                           ----------------------------
                           !    Initial Parameters    !
                           ! (Angstroms and Degrees)  !
 --------------------------                            --------------------------
 ! Name  Definition              Value          Derivative Info.                !
 --------------------------------------------------------------------------------
 ! R1    R(1,2)                  1.5344         estimate D2E/DX2                !
 ! R2    R(1,10)                 1.006          estimate D2E/DX2                !
 ! R3    R(2,3)                  1.7852         estimate D2E/DX2                !
 ! R4    R(2,8)                  1.8285         estimate D2E/DX2                !
 ! R5    R(2,9)                  1.5344         estimate D2E/DX2                !
 ! R6    R(3,4)                  1.3609         estimate D2E/DX2                !
 ! R7    R(3,7)                  1.719          estimate D2E/DX2                !
 ! R8    R(4,5)                  1.4111         estimate D2E/DX2                !
 ! R9    R(4,11)                 1.0748         estimate D2E/DX2                !
 ! R10   R(5,6)                  1.3599         estimate D2E/DX2                !
 ! R11   R(5,12)                 1.075          estimate D2E/DX2                !
 ! R12   R(6,7)                  1.7199         estimate D2E/DX2                !
 ! R13   R(6,13)                 1.072          estimate D2E/DX2                !
 ! R14   R(8,14)                 1.0836         estimate D2E/DX2                !
 ! R15   R(8,15)                 1.0833         estimate D2E/DX2                !
 ! R16   R(8,16)                 1.082          estimate D2E/DX2                !
 ! R17   R(9,17)                 1.0068         estimate D2E/DX2                !
 ! A1    A(2,1,10)             114.7101         estimate D2E/DX2                !
 ! A2    A(1,2,3)              100.38           estimate D2E/DX2                !
 ! A3    A(1,2,8)              114.4845         estimate D2E/DX2                !
 ! A4    A(1,2,9)              125.6093         estimate D2E/DX2                !
 ! A5    A(3,2,8)               99.2265         estimate D2E/DX2                !
 ! A6    A(3,2,9)              113.3187         estimate D2E/DX2                !
 ! A7    A(8,2,9)              101.1691         estimate D2E/DX2                !
 ! A8    A(2,3,4)              127.4899         estimate D2E/DX2                !
 ! A9    A(2,3,7)              119.9769         estimate D2E/DX2                !
 ! A10   A(4,3,7)              112.5265         estimate D2E/DX2                !
 ! A11   A(3,4,5)              112.2439         estimate D2E/DX2                !
 ! A12   A(3,4,11)             122.739          estimate D2E/DX2                !
 ! A13   A(5,4,11)             125.0163         estimate D2E/DX2                !
 ! A14   A(4,5,6)              112.2404         estimate D2E/DX2                !
 ! A15   A(4,5,12)             123.7817         estimate D2E/DX2                !
 ! A16   A(6,5,12)             123.9777         estimate D2E/DX2                !
 ! A17   A(5,6,7)              112.5441         estimate D2E/DX2                !
 ! A18   A(5,6,13)             127.8952         estimate D2E/DX2                !
 ! A19   A(7,6,13)             119.5598         estimate D2E/DX2                !
 ! A20   A(3,7,6)               90.4432         estimate D2E/DX2                !
 ! A21   A(2,8,14)             108.6332         estimate D2E/DX2                !
 ! A22   A(2,8,15)             108.0007         estimate D2E/DX2                !
 ! A23   A(2,8,16)             107.2159         estimate D2E/DX2                !
 ! A24   A(14,8,15)            110.9381         estimate D2E/DX2                !
 ! A25   A(14,8,16)            111.7459         estimate D2E/DX2                !
 ! A26   A(15,8,16)            110.1505         estimate D2E/DX2                !
 ! A27   A(2,9,17)             114.2536         estimate D2E/DX2                !
 ! D1    D(10,1,2,3)          -166.751          estimate D2E/DX2                !
 ! D2    D(10,1,2,8)            88.0289         estimate D2E/DX2                !
 ! D3    D(10,1,2,9)           -37.9825         estimate D2E/DX2                !
 ! D4    D(1,2,3,4)            154.3731         estimate D2E/DX2                !
 ! D5    D(1,2,3,7)            -24.6094         estimate D2E/DX2                !
 ! D6    D(8,2,3,4)            -88.4577         estimate D2E/DX2                !
 ! D7    D(8,2,3,7)             92.5598         estimate D2E/DX2                !
 ! D8    D(9,2,3,4)             18.0246         estimate D2E/DX2                !
 ! D9    D(9,2,3,7)           -160.958          estimate D2E/DX2                !
 ! D10   D(1,2,8,14)            47.9177         estimate D2E/DX2                !
 ! D11   D(1,2,8,15)           -72.4866         estimate D2E/DX2                !
 ! D12   D(1,2,8,16)           168.8352         estimate D2E/DX2                !
 ! D13   D(3,2,8,14)           -58.0174         estimate D2E/DX2                !
 ! D14   D(3,2,8,15)          -178.4217         estimate D2E/DX2                !
 ! D15   D(3,2,8,16)            62.9001         estimate D2E/DX2                !
 ! D16   D(9,2,8,14)          -174.1754         estimate D2E/DX2                !
 ! D17   D(9,2,8,15)            65.4203         estimate D2E/DX2                !
 ! D18   D(9,2,8,16)           -53.2579         estimate D2E/DX2                !
 ! D19   D(1,2,9,17)           -35.3996         estimate D2E/DX2                !
 ! D20   D(3,2,9,17)            87.9701         estimate D2E/DX2                !
 ! D21   D(8,2,9,17)          -166.7771         estimate D2E/DX2                !
 ! D22   D(2,3,4,5)           -179.401          estimate D2E/DX2                !
 ! D23   D(2,3,4,11)             0.2761         estimate D2E/DX2                !
 ! D24   D(7,3,4,5)             -0.3552         estimate D2E/DX2                !
 ! D25   D(7,3,4,11)           179.3219         estimate D2E/DX2                !
 ! D26   D(2,3,7,6)            179.5448         estimate D2E/DX2                !
 ! D27   D(4,3,7,6)              0.4188         estimate D2E/DX2                !
 ! D28   D(3,4,5,6)              0.0652         estimate D2E/DX2                !
 ! D29   D(3,4,5,12)           179.9211         estimate D2E/DX2                !
 ! D30   D(11,4,5,6)          -179.6031         estimate D2E/DX2                !
 ! D31   D(11,4,5,12)            0.2528         estimate D2E/DX2                !
 ! D32   D(4,5,6,7)              0.2536         estimate D2E/DX2                !
 ! D33   D(4,5,6,13)           179.9026         estimate D2E/DX2                !
 ! D34   D(12,5,6,7)          -179.602          estimate D2E/DX2                !
 ! D35   D(12,5,6,13)            0.047          estimate D2E/DX2                !
 ! D36   D(5,6,7,3)             -0.3812         estimate D2E/DX2                !
 ! D37   D(13,6,7,3)           179.9372         estimate D2E/DX2                !
 --------------------------------------------------------------------------------
 Trust Radius=3.00D-01 FncErr=1.00D-07 GrdErr=1.00D-06 EigMax=2.50D+02 EigMin=1.00D-04
 Number of steps in this run=     91 maximum allowed number of steps=    102.
 GradGradGradGradGradGradGradGradGradGradGradGradGradGradGradGradGradGrad

                          Input orientation:                          
 ---------------------------------------------------------------------
 Center     Atomic      Atomic             Coordinates (Angstroms)
 Number     Number       Type             X           Y           Z
 ---------------------------------------------------------------------
      1          7           0       -1.751670    1.108154   -0.678991
      2         16           0       -1.421922   -0.111574    0.191548
      3          6           0        0.361298   -0.028637    0.199207
      4          6           0        1.209112   -0.516617    1.145339
      5          6           0        2.561429   -0.260570    0.833971
      6          6           0        2.700762    0.415108   -0.337935
      7         16           0        1.189949    0.760169   -1.083768
      8          6           0       -1.636919   -1.721889   -0.647557
      9          7           0       -2.021862   -0.412916    1.571227
     10          1           0       -2.716702    1.391376   -0.657810
     11          1           0        0.865269   -1.030437    2.024554
     12          1           0        3.385406   -0.563504    1.454467
     13          1           0        3.608530    0.737456   -0.808188
     14          1           0       -1.153086   -1.674968   -1.616058
     15          1           0       -2.699400   -1.904700   -0.754028
     16          1           0       -1.190747   -2.475929   -0.012660
     17          1           0       -2.196251    0.403682    2.133676
 ---------------------------------------------------------------------
                    Distance matrix (angstroms):
                    1          2          3          4          5
     1  N    0.000000
     2  S    1.534375   0.000000
     3  C    2.555026   1.785164   0.000000
     4  C    3.838527   2.827741   1.360911   0.000000
     5  C    4.771298   4.037572   2.301586   1.411124   0.000000
     6  C    4.518936   4.189781   2.441009   2.300703   1.359897
     7  S    2.989658   3.034507   1.718983   2.568943   2.569161
     8  C    2.832543   1.828507   2.752632   3.573101   4.685777
     9  N    2.729495   1.534357   2.776610   3.260572   4.644708
    10  H    1.005957   2.157944   3.496426   4.722690   5.728263
    11  H    4.327944   3.071720   2.142308   1.074830   2.210688
    12  H    5.808239   4.990953   3.317679   2.198639   1.075046
    13  H    5.374556   5.198632   3.485149   3.338589   2.188417
    14  H    2.997026   2.404977   2.880790   3.814062   4.669132
    15  H    3.159290   2.396114   3.714315   4.561889   5.735959
    16  H    3.688399   2.384391   2.905679   3.307444   4.438854
    17  H    2.933434   2.153355   3.235758   3.663368   4.976543
                    6          7          8          9         10
     6  C    0.000000
     7  S    1.719852   0.000000
     8  C    4.845420   3.787093   0.000000
     9  N    5.160785   4.329071   2.604726   0.000000
    10  H    5.514012   3.980173   3.295217   2.950742   0.000000
    11  H    3.322648   3.601854   3.725483   2.987032   5.088297
    12  H    2.153863   3.607601   5.566338   5.410625   6.746776
    13  H    1.071956   2.434337   5.795595   6.219831   6.360722
    14  H    4.566636   3.420970   1.083647   3.536430   3.572897
    15  H    5.892061   4.726234   1.083338   2.844519   3.297525
    16  H    4.858779   4.157801   1.082007   2.730472   4.207233
    17  H    5.485411   4.684590   3.544879   1.006774   3.006461
                   11         12         13         14         15
    11  H    0.000000
    12  H    2.625666   0.000000
    13  H    4.321500   2.619522   0.000000
    14  H    4.212272   5.591189   5.398652   0.000000
    15  H    4.603446   6.610682   6.839145   1.785205   0.000000
    16  H    3.235257   5.172138   5.830246   1.792719   1.775377
    17  H    3.382530   5.705407   6.516246   4.412424   3.731035
                   16         17
    16  H    0.000000
    17  H    3.729606   0.000000
 Stoichiometry    C5H8N2S2
 Framework group  C1[X(C5H8N2S2)]
 Deg. of freedom    45
 Full point group                 C1      NOp   1
 Largest Abelian subgroup         C1      NOp   1
 Largest concise Abelian subgroup C1      NOp   1
                         Standard orientation:                         
 ---------------------------------------------------------------------
 Center     Atomic      Atomic             Coordinates (Angstroms)
 Number     Number       Type             X           Y           Z
 ---------------------------------------------------------------------
      1          7           0       -1.492264   -1.433783   -0.716864
      2         16           0       -1.415271   -0.009717   -0.150810
      3          6           0        0.354582    0.210266   -0.073108
      4          6           0        1.046211    1.381627   -0.113620
      5          6           0        2.441159    1.181093   -0.041662
      6          6           0        2.767800   -0.135814    0.049891
      7         16           0        1.386086   -1.159882    0.043490
      8          6           0       -1.805291    0.119666    1.630925
      9          7           0       -2.155571    1.213870   -0.706727
     10          1           0       -2.402833   -1.706873   -1.045856
     11          1           0        0.564191    2.338703   -0.196821
     12          1           0        3.161478    1.978924   -0.059780
     13          1           0        3.746357   -0.568403    0.116100
     14          1           0       -1.248466   -0.642326    2.163470
     15          1           0       -2.872122   -0.025104    1.751481
     16          1           0       -1.526070    1.115659    1.948373
     17          1           0       -2.247493    1.221362   -1.709268
 ---------------------------------------------------------------------
 Rotational constants (GHZ):           2.3892119           0.9197292           0.7953746
 Standard basis: def2SVP (5D, 7F)
 There are   183 symmetry adapted cartesian basis functions of A   symmetry.
 There are   174 symmetry adapted basis functions of A   symmetry.
   174 basis functions,   305 primitive gaussians,   183 cartesian basis functions
    42 alpha electrons       42 beta electrons
       nuclear repulsion energy       642.6894321699 Hartrees.
 NAtoms=   17 NActive=   17 NUniq=   17 SFac= 1.00D+00 NAtFMM=   60 NAOKFM=F Big=F
 Integral buffers will be    131072 words long.
 Raffenetti 2 integral format.
 Two-electron integral symmetry is turned on.
 Nuclear repulsion after empirical dispersion term =      642.6697997753 Hartrees.
 One-electron integrals computed using PRISM.
   1 Symmetry operations used in ECPInt.
 ECPInt:  NShTT=    3403 NPrTT=   13041 LenC2=    3344 LenP2D=    9761.
 LDataN:  DoStor=T MaxTD1= 4 Len=   56
 NBasis=   174 RedAO= T EigKep=  7.80D-04  NBF=   174
 NBsUse=   174 1.00D-06 EigRej= -1.00D+00 NBFU=   174
 ExpMin= 1.22D-01 ExpMax= 9.18D+03 ExpMxC= 1.38D+03 IAcc=3 IRadAn=         5 AccDes= 0.00D+00
 Harris functional with IExCor= 1009 and IRadAn=       5 diagonalized for initial guess.
 HarFok:  IExCor= 1009 AccDes= 0.00D+00 IRadAn=         5 IDoV= 1 UseB2=F ITyADJ=14
 ICtDFT=  3500011 ScaDFX=  1.000000  1.000000  1.000000  1.000000
 FoFCou: FMM=F IPFlag=           0 FMFlag=      100000 FMFlg1=           0
         NFxFlg=           0 DoJE=T BraDBF=F KetDBF=T FulRan=T
         wScrn=  0.000000 ICntrl=       500 IOpCl=  0 I1Cent=   200000004 NGrid=           0
         NMat0=    1 NMatS0=      1 NMatT0=    0 NMatD0=    1 NMtDS0=    0 NMtDT0=    0
 Petite list used in FoFCou.
 Requested convergence on RMS density matrix=1.00D-08 within 128 cycles.
 Requested convergence on MAX density matrix=1.00D-06.
 Requested convergence on             energy=1.00D-06.
 No special actions if energy rises.
 Integral accuracy reduced to 1.0D-05 until final iterations.
 Initial convergence to 1.0D-05 achieved.  Increase integral accuracy.
 SCF Done:  E(RPBE1PBE) =  -1099.99179357     A.U. after   15 cycles
            NFock= 15  Conv=0.59D-08     -V/T= 2.0040

 **********************************************************************

            Population analysis using the SCF Density.

 **********************************************************************

 Orbital symmetries:
       Occupied  (A) (A) (A) (A) (A) (A) (A) (A) (A) (A) (A) (A)
                 (A) (A) (A) (A) (A) (A) (A) (A) (A) (A) (A) (A)
                 (A) (A) (A) (A) (A) (A) (A) (A) (A) (A) (A) (A)
                 (A) (A) (A) (A) (A) (A)
       Virtual   (A) (A) (A) (A) (A) (A) (A) (A) (A) (A) (A) (A)
                 (A) (A) (A) (A) (A) (A) (A) (A) (A) (A) (A) (A)
                 (A) (A) (A) (A) (A) (A) (A) (A) (A) (A) (A) (A)
                 (A) (A) (A) (A) (A) (A) (A) (A) (A) (A) (A) (A)
                 (A) (A) (A) (A) (A) (A) (A) (A) (A) (A) (A) (A)
                 (A) (A) (A) (A) (A) (A) (A) (A) (A) (A) (A) (A)
                 (A) (A) (A) (A) (A) (A) (A) (A) (A) (A) (A) (A)
                 (A) (A) (A) (A) (A) (A) (A) (A) (A) (A) (A) (A)
                 (A) (A) (A) (A) (A) (A) (A) (A) (A) (A) (A) (A)
                 (A) (A) (A) (A) (A) (A) (A) (A) (A) (A) (A) (A)
                 (A) (A) (A) (A) (A) (A) (A) (A) (A) (A) (A) (A)
 The electronic state is 1-A.
 Alpha  occ. eigenvalues --  -89.18870 -89.04563 -14.34629 -14.34583 -10.27622
 Alpha  occ. eigenvalues --  -10.26892 -10.25749 -10.25330 -10.24781  -8.16197
 Alpha  occ. eigenvalues --   -8.04645  -6.10346  -6.10249  -6.10196  -5.98776
 Alpha  occ. eigenvalues --   -5.98376  -5.98107  -1.00927  -0.91907  -0.85562
 Alpha  occ. eigenvalues --   -0.77682  -0.76843  -0.75026  -0.65763  -0.58883
 Alpha  occ. eigenvalues --   -0.56856  -0.54973  -0.52221  -0.47507  -0.46917
 Alpha  occ. eigenvalues --   -0.43981  -0.43192  -0.42146  -0.41728  -0.40645
 Alpha  occ. eigenvalues --   -0.37192  -0.34626  -0.27948  -0.27446  -0.26420
 Alpha  occ. eigenvalues --   -0.25842  -0.24424
 Alpha virt. eigenvalues --   -0.03316   0.04422   0.04716   0.06639   0.07261
 Alpha virt. eigenvalues --    0.08625   0.09318   0.10153   0.11459   0.12521
 Alpha virt. eigenvalues --    0.12823   0.14004   0.14654   0.16161   0.18220
 Alpha virt. eigenvalues --    0.23016   0.27090   0.31691   0.33371   0.38289
 Alpha virt. eigenvalues --    0.39387   0.39648   0.41705   0.42908   0.44473
 Alpha virt. eigenvalues --    0.46331   0.48462   0.50023   0.52036   0.53630
 Alpha virt. eigenvalues --    0.54526   0.54988   0.58830   0.60341   0.61585
 Alpha virt. eigenvalues --    0.62109   0.63543   0.65006   0.66203   0.66789
 Alpha virt. eigenvalues --    0.67936   0.68416   0.69420   0.69989   0.70859
 Alpha virt. eigenvalues --    0.71667   0.72575   0.75133   0.75467   0.77463
 Alpha virt. eigenvalues --    0.78760   0.81564   0.82303   0.83556   0.85036
 Alpha virt. eigenvalues --    0.87056   0.87477   0.90851   0.92832   0.95679
 Alpha virt. eigenvalues --    0.95789   1.01168   1.02688   1.08340   1.10931
 Alpha virt. eigenvalues --    1.12920   1.14564   1.16611   1.17540   1.20275
 Alpha virt. eigenvalues --    1.21032   1.25524   1.26554   1.27882   1.32083
 Alpha virt. eigenvalues --    1.35912   1.41196   1.44961   1.47018   1.50080
 Alpha virt. eigenvalues --    1.52384   1.54975   1.64528   1.66859   1.68701
 Alpha virt. eigenvalues --    1.71142   1.75550   1.76075   1.77564   1.78401
 Alpha virt. eigenvalues --    1.80777   1.83055   1.87670   1.90102   1.94605
 Alpha virt. eigenvalues --    1.96026   1.99067   2.00413   2.03666   2.05052
 Alpha virt. eigenvalues --    2.13297   2.15003   2.16003   2.17392   2.21748
 Alpha virt. eigenvalues --    2.22232   2.31466   2.34293   2.35924   2.40474
 Alpha virt. eigenvalues --    2.42240   2.43542   2.44487   2.46769   2.53022
 Alpha virt. eigenvalues --    2.55273   2.57640   2.58854   2.60913   2.70494
 Alpha virt. eigenvalues --    2.72805   2.73914   2.75164   2.84600   2.90091
 Alpha virt. eigenvalues --    2.94584   2.95134   2.96848   3.07493   3.27810
 Alpha virt. eigenvalues --    3.31359   3.44033
          Condensed to atoms (all electrons):
               1          2          3          4          5          6
     1  N    6.902882   0.371979  -0.103930   0.004676  -0.000238   0.000674
     2  S    0.371979  14.572311   0.108538  -0.029414   0.004061   0.003206
     3  C   -0.103930   0.108538   5.846824   0.426053   0.006862  -0.144837
     4  C    0.004676  -0.029414   0.426053   4.904007   0.360329   0.009024
     5  C   -0.000238   0.004061   0.006862   0.360329   4.862312   0.445954
     6  C    0.000674   0.003206  -0.144837   0.009024   0.445954   5.113915
     7  S    0.006698  -0.025554   0.297335  -0.104748  -0.057252   0.311623
     8  C   -0.049023   0.293067  -0.131354  -0.007018  -0.000411  -0.000305
     9  N   -0.038040   0.354865  -0.056469   0.005507   0.000841  -0.000100
    10  H    0.334942  -0.016524   0.011559  -0.000236  -0.000004   0.000017
    11  H    0.000334  -0.004781  -0.060573   0.432804  -0.044927   0.010129
    12  H    0.000004  -0.000131   0.012808  -0.057088   0.448937  -0.063502
    13  H   -0.000007  -0.000046   0.003689   0.008997  -0.027430   0.416695
    14  H    0.004093  -0.014302   0.005966  -0.000491  -0.000025   0.000042
    15  H    0.000490  -0.008854   0.008156   0.000159  -0.000002   0.000006
    16  H    0.003572  -0.006520   0.001940   0.002678   0.000129  -0.000006
    17  H   -0.000896  -0.010340  -0.002833  -0.001155  -0.000041  -0.000019
               7          8          9         10         11         12
     1  N    0.006698  -0.049023  -0.038040   0.334942   0.000334   0.000004
     2  S   -0.025554   0.293067   0.354865  -0.016524  -0.004781  -0.000131
     3  C    0.297335  -0.131354  -0.056469   0.011559  -0.060573   0.012808
     4  C   -0.104748  -0.007018   0.005507  -0.000236   0.432804  -0.057088
     5  C   -0.057252  -0.000411   0.000841  -0.000004  -0.044927   0.448937
     6  C    0.311623  -0.000305  -0.000100   0.000017   0.010129  -0.063502
     7  S   15.406565   0.000947   0.001664  -0.000723   0.007252   0.006868
     8  C    0.000947   4.955507  -0.097421  -0.005018   0.000011   0.000012
     9  N    0.001664  -0.097421   6.900785  -0.000399   0.013028   0.000002
    10  H   -0.000723  -0.005018  -0.000399   0.548406  -0.000029  -0.000000
    11  H    0.007252   0.000011   0.013028  -0.000029   0.623223  -0.005902
    12  H    0.006868   0.000012   0.000002  -0.000000  -0.005902   0.638976
    13  H   -0.039284   0.000006   0.000001  -0.000000  -0.000208  -0.007902
    14  H    0.003348   0.361297   0.005992  -0.000167  -0.000045  -0.000002
    15  H   -0.000179   0.363749   0.006823   0.001585  -0.000057  -0.000000
    16  H   -0.000102   0.353962   0.006563  -0.000062   0.000815  -0.000004
    17  H   -0.000035   0.009156   0.326790   0.001188  -0.000156   0.000001
              13         14         15         16         17
     1  N   -0.000007   0.004093   0.000490   0.003572  -0.000896
     2  S   -0.000046  -0.014302  -0.008854  -0.006520  -0.010340
     3  C    0.003689   0.005966   0.008156   0.001940  -0.002833
     4  C    0.008997  -0.000491   0.000159   0.002678  -0.001155
     5  C   -0.027430  -0.000025  -0.000002   0.000129  -0.000041
     6  C    0.416695   0.000042   0.000006  -0.000006  -0.000019
     7  S   -0.039284   0.003348  -0.000179  -0.000102  -0.000035
     8  C    0.000006   0.361297   0.363749   0.353962   0.009156
     9  N    0.000001   0.005992   0.006823   0.006563   0.326790
    10  H   -0.000000  -0.000167   0.001585  -0.000062   0.001188
    11  H   -0.000208  -0.000045  -0.000057   0.000815  -0.000156
    12  H   -0.007902  -0.000002  -0.000000  -0.000004   0.000001
    13  H    0.583822  -0.000005  -0.000000   0.000000   0.000000
    14  H   -0.000005   0.586460  -0.010349  -0.013746  -0.000403
    15  H   -0.000000  -0.010349   0.560579  -0.006678  -0.000495
    16  H    0.000000  -0.013746  -0.006678   0.577159  -0.000836
    17  H    0.000000  -0.000403  -0.000495  -0.000836   0.554553
 Mulliken charges:
               1
     1  N   -0.438208
     2  S    0.408439
     3  C   -0.229732
     4  C    0.045916
     5  C    0.000905
     6  C   -0.102516
     7  S    0.185579
     8  C   -0.047163
     9  N   -0.430430
    10  H    0.125466
    11  H    0.029083
    12  H    0.026925
    13  H    0.061674
    14  H    0.072338
    15  H    0.085068
    16  H    0.081137
    17  H    0.125522
 Sum of Mulliken charges =  -0.00000
 Mulliken charges with hydrogens summed into heavy atoms:
               1
     1  N   -0.312742
     2  S    0.408439
     3  C   -0.229732
     4  C    0.074999
     5  C    0.027830
     6  C   -0.040843
     7  S    0.185579
     8  C    0.191380
     9  N   -0.304909
 Electronic spatial extent (au):  <R**2>=           1532.3615
 Charge=             -0.0000 electrons
 Dipole moment (field-independent basis, Debye):
    X=              1.0128    Y=              0.4780    Z=              1.1204  Tot=              1.5842
 Quadrupole moment (field-independent basis, Debye-Ang):
   XX=            -60.0916   YY=            -70.4111   ZZ=            -65.5268
   XY=              4.4091   XZ=             -0.1701   YZ=             -1.3643
 Traceless Quadrupole moment (field-independent basis, Debye-Ang):
   XX=              5.2516   YY=             -5.0680   ZZ=             -0.1836
   XY=              4.4091   XZ=             -0.1701   YZ=             -1.3643
 Octapole moment (field-independent basis, Debye-Ang**2):
  XXX=             11.1078  YYY=              4.3921  ZZZ=             -3.5170  XYY=             10.1888
  XXY=            -18.3762  XXZ=             -1.9179  XZZ=            -19.8177  YZZ=              1.6462
  YYZ=              0.5330  XYZ=             -1.4971
 Hexadecapole moment (field-independent basis, Debye-Ang**3):
 XXXX=          -1224.6199 YYYY=           -462.6015 ZZZZ=           -244.5034 XXXY=             42.4349
 XXXZ=             14.4192 YYYX=             20.8468 YYYZ=             -0.7205 ZZZX=             14.3586
 ZZZY=             -8.4603 XXYY=           -290.3628 XXZZ=           -252.8786 YYZZ=           -116.9330
 XXYZ=              4.1601 YYXZ=              4.7355 ZZXY=             -8.9594
 N-N= 6.426697997753D+02 E-N=-3.882386453764D+03  KE= 1.095576182796D+03
   1 Symmetry operations used in ECPInt.
 ECPInt:  NShTT=    3403 NPrTT=   13041 LenC2=    3344 LenP2D=    9761.
 LDataN:  DoStor=T MaxTD1= 5 Len=  102
 Calling FoFJK, ICntrl=      2127 FMM=F ISym2X=0 I1Cent= 0 IOpClX= 0 NMat=1 NMatS=1 NMatT=0.
 ***** Axes restored to original set *****
 -------------------------------------------------------------------
 Center     Atomic                   Forces (Hartrees/Bohr)
 Number     Number              X              Y              Z
 -------------------------------------------------------------------
      1        7           0.017468611    0.004009360   -0.006630395
      2       16          -0.004551263   -0.005116438    0.000620492
      3        6          -0.007092078    0.007773687   -0.011305161
      4        6          -0.001949676   -0.002290123    0.001879610
      5        6          -0.002627957   -0.001197358    0.001555500
      6        6          -0.009347571    0.002330464   -0.007918009
      7       16           0.002853841    0.001034729    0.001333168
      8        6           0.002505933    0.012855498    0.008991420
      9        7          -0.003435818   -0.020974054   -0.001524623
     10        1          -0.012291341   -0.003221653    0.001498362
     11        1          -0.004937807   -0.005430645    0.009946340
     12        1           0.009142238   -0.002680083    0.006473101
     13        1           0.011696404    0.004102474   -0.005558361
     14        1           0.005229459    0.002634588   -0.007571245
     15        1          -0.010638018    0.000959738    0.000463853
     16        1           0.004277238   -0.007765426    0.005443833
     17        1           0.003697805    0.012975241    0.002302115
 -------------------------------------------------------------------
 Cartesian Forces:  Max     0.020974054 RMS     0.007252373

 GradGradGradGradGradGradGradGradGradGradGradGradGradGradGradGradGradGrad
 Berny optimization.
 FormGI is forming the generalized inverse of G from B-inverse, IUseBI=4.
 Internal  Forces:  Max     0.013589180 RMS     0.005044272
 Search for a local minimum.
 Step number   1 out of a maximum of   91
 All quantities printed in internal units (Hartrees-Bohrs-Radians)
 Mixed Optimization -- RFO/linear search
 Second derivative matrix not updated -- first step.
 ITU=  0
     Eigenvalues ---    0.00230   0.00567   0.01384   0.01874   0.02134
     Eigenvalues ---    0.02270   0.02323   0.02413   0.03487   0.03487
     Eigenvalues ---    0.05912   0.06078   0.06428   0.08779   0.09395
     Eigenvalues ---    0.15754   0.16000   0.16000   0.16000   0.16000
     Eigenvalues ---    0.16000   0.16000   0.16000   0.16000   0.19191
     Eigenvalues ---    0.22131   0.23808   0.23994   0.24997   0.27321
     Eigenvalues ---    0.32581   0.32857   0.35557   0.35594   0.35753
     Eigenvalues ---    0.36600   0.36626   0.36984   0.42494   0.46517
     Eigenvalues ---    0.46656   0.48905   0.52396   0.66333   0.66338
 RFO step:  Lambda=-7.46838195D-03 EMin= 2.30000000D-03
 Linear search not attempted -- first point.
 Iteration  1 RMS(Cart)=  0.03809229 RMS(Int)=  0.00105906
 Iteration  2 RMS(Cart)=  0.00114711 RMS(Int)=  0.00008943
 Iteration  3 RMS(Cart)=  0.00000150 RMS(Int)=  0.00008942
 Iteration  4 RMS(Cart)=  0.00000000 RMS(Int)=  0.00008942
 Variable       Old X    -DE/DX   Delta X   Delta X   Delta X     New X
                                 (Linear)    (Quad)   (Total)
    R1        2.89955   0.00243   0.00000   0.00362   0.00362   2.90316
    R2        1.90098   0.01092   0.00000   0.02303   0.02303   1.92401
    R3        3.37347  -0.00211   0.00000  -0.00751  -0.00751   3.36597
    R4        3.45538  -0.01117   0.00000  -0.04516  -0.04516   3.41022
    R5        2.89951   0.00217   0.00000   0.00323   0.00323   2.90275
    R6        2.57175   0.00858   0.00000   0.01621   0.01621   2.58796
    R7        3.24841   0.00253   0.00000   0.00583   0.00582   3.25423
    R8        2.66664   0.00929   0.00000   0.02217   0.02218   2.68882
    R9        2.03113   0.01231   0.00000   0.03294   0.03294   2.06408
   R10        2.56983   0.01333   0.00000   0.02548   0.02548   2.59531
   R11        2.03154   0.01150   0.00000   0.03079   0.03079   2.06233
   R12        3.25005  -0.00044   0.00000  -0.00221  -0.00222   3.24783
   R13        2.02570   0.01358   0.00000   0.03598   0.03598   2.06169
   R14        2.04780   0.00922   0.00000   0.02539   0.02539   2.07318
   R15        2.04721   0.01023   0.00000   0.02814   0.02814   2.07535
   R16        2.04470   0.01037   0.00000   0.02841   0.02841   2.07311
   R17        1.90253   0.01117   0.00000   0.02363   0.02363   1.92616
    A1        2.00207  -0.01116   0.00000  -0.06663  -0.06663   1.93544
    A2        1.75196  -0.00201   0.00000  -0.01074  -0.01078   1.74119
    A3        1.99813  -0.00159   0.00000  -0.01138  -0.01132   1.98681
    A4        2.19230   0.00423   0.00000   0.03043   0.03042   2.22271
    A5        1.73183   0.00251   0.00000   0.00554   0.00549   1.73732
    A6        1.97778  -0.00077   0.00000  -0.00402  -0.00403   1.97375
    A7        1.76573  -0.00251   0.00000  -0.01438  -0.01434   1.75140
    A8        2.22512  -0.00747   0.00000  -0.02851  -0.02850   2.19662
    A9        2.09399   0.00602   0.00000   0.02388   0.02390   2.11789
   A10        1.96396   0.00145   0.00000   0.00467   0.00464   1.96860
   A11        1.95903  -0.00320   0.00000  -0.01064  -0.01065   1.94837
   A12        2.14220   0.00055   0.00000  -0.00098  -0.00097   2.14123
   A13        2.18195   0.00265   0.00000   0.01161   0.01162   2.19357
   A14        1.95896  -0.00039   0.00000   0.00282   0.00281   1.96177
   A15        2.16040   0.00075   0.00000   0.00190   0.00191   2.16230
   A16        2.16382  -0.00036   0.00000  -0.00472  -0.00471   2.15911
   A17        1.96426  -0.00117   0.00000  -0.00437  -0.00448   1.95979
   A18        2.23219   0.00018   0.00000  -0.00027  -0.00032   2.23188
   A19        2.08671   0.00099   0.00000   0.00453   0.00447   2.09119
   A20        1.57853   0.00330   0.00000   0.00733   0.00725   1.58579
   A21        1.89601  -0.00341   0.00000  -0.02170  -0.02187   1.87413
   A22        1.88497  -0.00436   0.00000  -0.02712  -0.02728   1.85769
   A23        1.87127   0.00252   0.00000   0.01743   0.01754   1.88881
   A24        1.93623   0.00307   0.00000   0.01342   0.01292   1.94916
   A25        1.95033   0.00068   0.00000   0.00620   0.00631   1.95664
   A26        1.92249   0.00120   0.00000   0.01004   0.01017   1.93266
   A27        1.99410  -0.01359   0.00000  -0.08114  -0.08114   1.91296
    D1       -2.91035  -0.00144   0.00000  -0.04656  -0.04654  -2.95689
    D2        1.53639  -0.00276   0.00000  -0.04372  -0.04380   1.49260
    D3       -0.66292  -0.00129   0.00000  -0.03927  -0.03921  -0.70213
    D4        2.69432   0.00203   0.00000   0.04449   0.04446   2.73877
    D5       -0.42952   0.00196   0.00000   0.04120   0.04117  -0.38834
    D6       -1.54388   0.00052   0.00000   0.03113   0.03113  -1.51275
    D7        1.61547   0.00045   0.00000   0.02784   0.02785   1.64332
    D8        0.31459  -0.00130   0.00000   0.01646   0.01649   0.33107
    D9       -2.80925  -0.00137   0.00000   0.01317   0.01321  -2.79604
   D10        0.83632  -0.00157   0.00000  -0.01239  -0.01225   0.82407
   D11       -1.26513  -0.00076   0.00000  -0.00027  -0.00048  -1.26561
   D12        2.94673  -0.00123   0.00000  -0.00710  -0.00713   2.93960
   D13       -1.01259  -0.00011   0.00000   0.00036   0.00053  -1.01206
   D14       -3.11405   0.00070   0.00000   0.01248   0.01230  -3.10174
   D15        1.09781   0.00024   0.00000   0.00565   0.00566   1.10347
   D16       -3.03993   0.00065   0.00000   0.00694   0.00715  -3.03279
   D17        1.14180   0.00146   0.00000   0.01906   0.01892   1.16072
   D18       -0.92953   0.00099   0.00000   0.01223   0.01227  -0.91725
   D19       -0.61784  -0.00250   0.00000  -0.05135  -0.05144  -0.66928
   D20        1.53537  -0.00237   0.00000  -0.04282  -0.04280   1.49257
   D21       -2.91081  -0.00102   0.00000  -0.04502  -0.04495  -2.95576
   D22       -3.13114  -0.00042   0.00000  -0.01438  -0.01430   3.13775
   D23        0.00482  -0.00047   0.00000  -0.01462  -0.01457  -0.00975
   D24       -0.00620  -0.00030   0.00000  -0.01110  -0.01105  -0.01725
   D25        3.12976  -0.00035   0.00000  -0.01134  -0.01133   3.11843
   D26        3.13365   0.00047   0.00000   0.01997   0.02013  -3.12940
   D27        0.00731   0.00051   0.00000   0.01751   0.01761   0.02492
   D28        0.00114  -0.00011   0.00000  -0.00391  -0.00392  -0.00278
   D29        3.14022  -0.00016   0.00000  -0.00426  -0.00428   3.13594
   D30       -3.13467  -0.00005   0.00000  -0.00362  -0.00358  -3.13825
   D31        0.00441  -0.00010   0.00000  -0.00396  -0.00394   0.00047
   D32        0.00443   0.00047   0.00000   0.01717   0.01713   0.02155
   D33        3.13989  -0.00017   0.00000  -0.00495  -0.00494   3.13495
   D34       -3.13465   0.00052   0.00000   0.01750   0.01748  -3.11717
   D35        0.00082  -0.00012   0.00000  -0.00462  -0.00459  -0.00377
   D36       -0.00665  -0.00055   0.00000  -0.01972  -0.01968  -0.02633
   D37        3.14050   0.00004   0.00000   0.00036   0.00041   3.14091
         Item               Value     Threshold  Converged?
 Maximum Force            0.013589     0.000450     NO 
 RMS     Force            0.005044     0.000300     NO 
 Maximum Displacement     0.172084     0.001800     NO 
 RMS     Displacement     0.038454     0.001200     NO 
 Predicted change in Energy=-3.911485D-03
 GradGradGradGradGradGradGradGradGradGradGradGradGradGradGradGradGradGrad

                          Input orientation:                          
 ---------------------------------------------------------------------
 Center     Atomic      Atomic             Coordinates (Angstroms)
 Number     Number       Type             X           Y           Z
 ---------------------------------------------------------------------
      1          7           0       -1.758027    1.093420   -0.704646
      2         16           0       -1.425995   -0.110875    0.189563
      3          6           0        0.352233   -0.008208    0.186449
      4          6           0        1.187429   -0.527579    1.139449
      5          6           0        2.553804   -0.274292    0.833835
      6          6           0        2.707124    0.423518   -0.339079
      7         16           0        1.200052    0.811078   -1.068729
      8          6           0       -1.634954   -1.705962   -0.628149
      9          7           0       -2.008369   -0.432229    1.574147
     10          1           0       -2.754616    1.300313   -0.679751
     11          1           0        0.819535   -1.060913    2.018793
     12          1           0        3.387270   -0.595112    1.461074
     13          1           0        3.636459    0.754238   -0.805165
     14          1           0       -1.146732   -1.638220   -1.608269
     15          1           0       -2.717123   -1.866543   -0.724206
     16          1           0       -1.182483   -2.478395    0.005978
     17          1           0       -2.122409    0.429965    2.105699
 ---------------------------------------------------------------------
                    Distance matrix (angstroms):
                    1          2          3          4          5
     1  N    0.000000
     2  S    1.536289   0.000000
     3  C    2.541817   1.781192   0.000000
     4  C    3.834584   2.811744   1.369491   0.000000
     5  C    4.778017   4.034921   2.310156   1.422861   0.000000
     6  C    4.529898   4.200917   2.451138   2.323812   1.373381
     7  S    2.993744   3.054409   1.722062   2.582288   2.574961
     8  C    2.803130   1.804611   2.737672   3.532539   4.661841
     9  N    2.753757   1.536067   2.770910   3.226636   4.624546
    10  H    1.018143   2.124240   3.480667   4.710668   5.740178
    11  H    4.324592   3.048123   2.164265   1.092263   2.242897
    12  H    5.832286   5.001874   3.343736   2.224254   1.091338
    13  H    5.406073   5.231285   3.514365   3.379694   2.217282
    14  H    2.941440   2.375494   2.850412   3.772504   4.638765
    15  H    3.111531   2.363124   3.701844   4.528969   5.722362
    16  H    3.687018   2.387081   2.913717   3.272144   4.416249
    17  H    2.910496   2.109284   3.162178   3.578485   4.896997
                    6          7          8          9         10
     6  C    0.000000
     7  S    1.718679   0.000000
     8  C    4.844779   3.816655   0.000000
     9  N    5.160292   4.338729   2.571370   0.000000
    10  H    5.542150   4.003755   3.208426   2.939157   0.000000
    11  H    3.365426   3.630694   3.667002   2.930869   5.062814
    12  H    2.177328   3.627836   5.551717   5.399281   6.774845
    13  H    1.090998   2.451281   5.819941   6.239625   6.415588
    14  H    4.551243   3.434757   1.097080   3.510642   3.475976
    15  H    5.900437   4.757374   1.098228   2.800360   3.167390
    16  H    4.865101   4.201441   1.097041   2.707035   4.149755
    17  H    5.413074   4.610964   3.503387   1.019279   2.985954
                   11         12         13         14         15
    11  H    0.000000
    12  H    2.668574   0.000000
    13  H    4.382303   2.649279   0.000000
    14  H    4.165941   5.573698   5.408119   0.000000
    15  H    4.547640   6.607238   6.873358   1.816542   0.000000
    16  H    3.173130   5.152349   5.859187   1.820156   1.806281
    17  H    3.299289   5.641178   6.460871   4.361524   3.692695
                   16         17
    16  H    0.000000
    17  H    3.708214   0.000000
 Stoichiometry    C5H8N2S2
 Framework group  C1[X(C5H8N2S2)]
 Deg. of freedom    45
 Full point group                 C1      NOp   1
 Largest Abelian subgroup         C1      NOp   1
 Largest concise Abelian subgroup C1      NOp   1
                         Standard orientation:                         
 ---------------------------------------------------------------------
 Center     Atomic      Atomic             Coordinates (Angstroms)
 Number     Number       Type             X           Y           Z
 ---------------------------------------------------------------------
      1          7           0       -1.489896   -1.466116   -0.659126
      2         16           0       -1.419126   -0.018028   -0.150977
      3          6           0        0.348322    0.190869   -0.079308
      4          6           0        1.017349    1.385059   -0.121954
      5          6           0        2.425695    1.200630   -0.037795
      6          6           0        2.774705   -0.123364    0.068999
      7         16           0        1.406494   -1.162923    0.034776
      8          6           0       -1.812669    0.160046    1.601174
      9          7           0       -2.147755    1.207137   -0.723318
     10          1           0       -2.440806   -1.710132   -0.929019
     11          1           0        0.505004    2.345149   -0.215586
     12          1           0        3.148762    2.017799   -0.058503
     13          1           0        3.776938   -0.548037    0.142879
     14          1           0       -1.247077   -0.607618    2.143746
     15          1           0       -2.896217    0.006716    1.693459
     16          1           0       -1.536006    1.174647    1.913489
     17          1           0       -2.165344    1.150109   -1.740848
 ---------------------------------------------------------------------
 Rotational constants (GHZ):           2.3931163           0.9224787           0.7917993
 Standard basis: def2SVP (5D, 7F)
 There are   183 symmetry adapted cartesian basis functions of A   symmetry.
 There are   174 symmetry adapted basis functions of A   symmetry.
   174 basis functions,   305 primitive gaussians,   183 cartesian basis functions
    42 alpha electrons       42 beta electrons
       nuclear repulsion energy       642.3305077715 Hartrees.
 NAtoms=   17 NActive=   17 NUniq=   17 SFac= 1.00D+00 NAtFMM=   60 NAOKFM=F Big=F
 Integral buffers will be    131072 words long.
 Raffenetti 2 integral format.
 Two-electron integral symmetry is turned on.
 Nuclear repulsion after empirical dispersion term =      642.3107963679 Hartrees.
 One-electron integrals computed using PRISM.
   1 Symmetry operations used in ECPInt.
 ECPInt:  NShTT=    3403 NPrTT=   13041 LenC2=    3344 LenP2D=    9771.
 LDataN:  DoStor=T MaxTD1= 4 Len=   56
 NBasis=   174 RedAO= T EigKep=  8.25D-04  NBF=   174
 NBsUse=   174 1.00D-06 EigRej= -1.00D+00 NBFU=   174
 Initial guess from the checkpoint file:  "SDI2635_2.chk"
 B after Tr=     0.000000   -0.000000    0.000000
         Rot=    0.999965    0.008032    0.000706   -0.002104 Ang=   0.95 deg.
 ExpMin= 1.22D-01 ExpMax= 9.18D+03 ExpMxC= 1.38D+03 IAcc=3 IRadAn=         5 AccDes= 0.00D+00
 Harris functional with IExCor= 1009 and IRadAn=       5 diagonalized for initial guess.
 HarFok:  IExCor= 1009 AccDes= 0.00D+00 IRadAn=         5 IDoV= 1 UseB2=F ITyADJ=14
 ICtDFT=  3500011 ScaDFX=  1.000000  1.000000  1.000000  1.000000
 FoFCou: FMM=F IPFlag=           0 FMFlag=      100000 FMFlg1=           0
         NFxFlg=           0 DoJE=T BraDBF=F KetDBF=T FulRan=T
         wScrn=  0.000000 ICntrl=       500 IOpCl=  0 I1Cent=   200000004 NGrid=           0
         NMat0=    1 NMatS0=      1 NMatT0=    0 NMatD0=    1 NMtDS0=    0 NMtDT0=    0
 Petite list used in FoFCou.
 Requested convergence on RMS density matrix=1.00D-08 within 128 cycles.
 Requested convergence on MAX density matrix=1.00D-06.
 Requested convergence on             energy=1.00D-06.
 No special actions if energy rises.
 Integral accuracy reduced to 1.0D-05 until final iterations.
 Initial convergence to 1.0D-05 achieved.  Increase integral accuracy.
 SCF Done:  E(RPBE1PBE) =  -1099.99610120     A.U. after   12 cycles
            NFock= 12  Conv=0.97D-08     -V/T= 2.0042
   1 Symmetry operations used in ECPInt.
 ECPInt:  NShTT=    3403 NPrTT=   13041 LenC2=    3344 LenP2D=    9771.
 LDataN:  DoStor=T MaxTD1= 5 Len=  102
 Calling FoFJK, ICntrl=      2127 FMM=F ISym2X=0 I1Cent= 0 IOpClX= 0 NMat=1 NMatS=1 NMatT=0.
 ***** Axes restored to original set *****
 -------------------------------------------------------------------
 Center     Atomic                   Forces (Hartrees/Bohr)
 Number     Number              X              Y              Z
 -------------------------------------------------------------------
      1        7           0.000973880    0.008462263   -0.002595083
      2       16           0.006845882   -0.009279986   -0.003497346
      3        6          -0.000200549    0.004848186   -0.003025178
      4        6           0.001154269   -0.001187631    0.000461812
      5        6          -0.000194652   -0.000997749    0.000277795
      6        6          -0.001376363    0.000865753    0.000179436
      7       16           0.000808712   -0.001872246    0.001425591
      8        6           0.000409828    0.002091990    0.001614892
      9        7          -0.006864507   -0.003486741    0.006136116
     10        1          -0.003051981   -0.002523158   -0.001003789
     11        1          -0.000215913    0.000539791   -0.000591596
     12        1          -0.000044836    0.000233102   -0.000458128
     13        1          -0.000378491   -0.000200834    0.000715862
     14        1          -0.000277626   -0.000268297    0.000128382
     15        1           0.000092910    0.000084093   -0.000036720
     16        1          -0.000607840   -0.000501960   -0.001071078
     17        1           0.002927278    0.003193423    0.001339030
 -------------------------------------------------------------------
 Cartesian Forces:  Max     0.009279986 RMS     0.002852837

 GradGradGradGradGradGradGradGradGradGradGradGradGradGradGradGradGradGrad
 Berny optimization.
 Using GEDIIS/GDIIS optimizer.
 FormGI is forming the generalized inverse of G from B-inverse, IUseBI=4.
 Internal  Forces:  Max     0.008292038 RMS     0.001684342
 Search for a local minimum.
 Step number   2 out of a maximum of   91
 All quantities printed in internal units (Hartrees-Bohrs-Radians)
 Mixed Optimization -- RFO/linear search
 Update second derivatives using D2CorX and points    1    2
 DE= -4.31D-03 DEPred=-3.91D-03 R= 1.10D+00
 TightC=F SS=  1.41D+00  RLast= 2.18D-01 DXNew= 5.0454D-01 6.5515D-01
 Trust test= 1.10D+00 RLast= 2.18D-01 DXMaxT set to 5.05D-01
 ITU=  1  0
 Use linear search instead of GDIIS.
     Eigenvalues ---    0.00230   0.00567   0.01373   0.01896   0.02137
     Eigenvalues ---    0.02272   0.02323   0.02414   0.03087   0.03487
     Eigenvalues ---    0.06007   0.06189   0.06405   0.09096   0.09480
     Eigenvalues ---    0.13994   0.15772   0.15995   0.16000   0.16000
     Eigenvalues ---    0.16000   0.16000   0.16000   0.16244   0.19282
     Eigenvalues ---    0.22241   0.23442   0.23824   0.24612   0.27317
     Eigenvalues ---    0.32605   0.32792   0.35572   0.35649   0.35955
     Eigenvalues ---    0.36608   0.36825   0.38446   0.43462   0.45458
     Eigenvalues ---    0.46606   0.49082   0.52676   0.66333   0.69081
 RFO step:  Lambda=-1.43601569D-03 EMin= 2.30043698D-03
 Quartic linear search produced a step of  0.17720.
 Iteration  1 RMS(Cart)=  0.03883939 RMS(Int)=  0.00094167
 Iteration  2 RMS(Cart)=  0.00097127 RMS(Int)=  0.00007189
 Iteration  3 RMS(Cart)=  0.00000068 RMS(Int)=  0.00007189
 Variable       Old X    -DE/DX   Delta X   Delta X   Delta X     New X
                                 (Linear)    (Quad)   (Total)
    R1        2.90316   0.00720   0.00064   0.01271   0.01335   2.91651
    R2        1.92401   0.00245   0.00408   0.00616   0.01024   1.93425
    R3        3.36597  -0.00032  -0.00133  -0.00134  -0.00267   3.36329
    R4        3.41022  -0.00149  -0.00800  -0.00713  -0.01513   3.39509
    R5        2.90275   0.00829   0.00057   0.01463   0.01521   2.91795
    R6        2.58796   0.00068   0.00287   0.00162   0.00451   2.59248
    R7        3.25423  -0.00179   0.00103  -0.00609  -0.00506   3.24916
    R8        2.68882  -0.00133   0.00393  -0.00355   0.00040   2.68922
    R9        2.06408  -0.00067   0.00584  -0.00212   0.00372   2.06779
   R10        2.59531  -0.00069   0.00452  -0.00158   0.00293   2.59824
   R11        2.06233  -0.00037   0.00546  -0.00116   0.00429   2.06662
   R12        3.24783  -0.00081  -0.00039  -0.00293  -0.00334   3.24449
   R13        2.06169  -0.00069   0.00638  -0.00217   0.00421   2.06589
   R14        2.07318  -0.00025   0.00450  -0.00084   0.00366   2.07684
   R15        2.07535  -0.00010   0.00499  -0.00033   0.00466   2.08001
   R16        2.07311  -0.00052   0.00503  -0.00168   0.00335   2.07646
   R17        1.92616   0.00307   0.00419   0.00774   0.01193   1.93809
    A1        1.93544  -0.00331  -0.01181  -0.02372  -0.03553   1.89991
    A2        1.74119   0.00047  -0.00191   0.00401   0.00213   1.74331
    A3        1.98681  -0.00089  -0.00201  -0.00613  -0.00816   1.97864
    A4        2.22271  -0.00121   0.00539  -0.01707  -0.01168   2.21103
    A5        1.73732   0.00121   0.00097   0.01625   0.01721   1.75453
    A6        1.97375  -0.00042  -0.00071  -0.00140  -0.00227   1.97148
    A7        1.75140   0.00133  -0.00254   0.01187   0.00929   1.76069
    A8        2.19662  -0.00311  -0.00505  -0.01463  -0.01970   2.17693
    A9        2.11789   0.00320   0.00423   0.01471   0.01892   2.13681
   A10        1.96860  -0.00008   0.00082   0.00015   0.00083   1.96943
   A11        1.94837   0.00026  -0.00189   0.00173  -0.00023   1.94814
   A12        2.14123  -0.00060  -0.00017  -0.00431  -0.00447   2.13676
   A13        2.19357   0.00034   0.00206   0.00252   0.00459   2.19815
   A14        1.96177  -0.00066   0.00050  -0.00361  -0.00323   1.95854
   A15        2.16230   0.00071   0.00034   0.00448   0.00482   2.16713
   A16        2.15911  -0.00004  -0.00084  -0.00091  -0.00174   2.15736
   A17        1.95979   0.00071  -0.00079   0.00366   0.00270   1.96249
   A18        2.23188  -0.00078  -0.00006  -0.00471  -0.00475   2.22712
   A19        2.09119   0.00008   0.00079   0.00151   0.00232   2.09351
   A20        1.58579  -0.00020   0.00129  -0.00072   0.00037   1.58616
   A21        1.87413   0.00018  -0.00388   0.00126  -0.00268   1.87146
   A22        1.85769  -0.00045  -0.00483  -0.00431  -0.00918   1.84851
   A23        1.88881   0.00192   0.00311   0.01525   0.01838   1.90719
   A24        1.94916  -0.00020   0.00229  -0.00450  -0.00235   1.94681
   A25        1.95664  -0.00074   0.00112  -0.00290  -0.00180   1.95484
   A26        1.93266  -0.00059   0.00180  -0.00392  -0.00206   1.93060
   A27        1.91296  -0.00327  -0.01438  -0.02338  -0.03776   1.87520
    D1       -2.95689  -0.00084  -0.00825  -0.04199  -0.05024  -3.00713
    D2        1.49260  -0.00219  -0.00776  -0.06060  -0.06833   1.42427
    D3       -0.70213  -0.00197  -0.00695  -0.05401  -0.06099  -0.76312
    D4        2.73877  -0.00001   0.00788   0.03016   0.03802   2.77679
    D5       -0.38834  -0.00029   0.00730   0.00869   0.01594  -0.37240
    D6       -1.51275  -0.00048   0.00552   0.02929   0.03485  -1.47790
    D7        1.64332  -0.00075   0.00493   0.00782   0.01277   1.65609
    D8        0.33107   0.00148   0.00292   0.05021   0.05314   0.38422
    D9       -2.79604   0.00121   0.00234   0.02874   0.03107  -2.76497
   D10        0.82407   0.00046  -0.00217   0.00790   0.00575   0.82981
   D11       -1.26561   0.00084  -0.00009   0.01479   0.01463  -1.25098
   D12        2.93960   0.00078  -0.00126   0.01379   0.01253   2.95213
   D13       -1.01206  -0.00042   0.00009  -0.00301  -0.00282  -1.01488
   D14       -3.10174  -0.00005   0.00218   0.00387   0.00606  -3.09568
   D15        1.10347  -0.00011   0.00100   0.00287   0.00396   1.10743
   D16       -3.03279  -0.00069   0.00127  -0.00942  -0.00817  -3.04096
   D17        1.16072  -0.00031   0.00335  -0.00253   0.00072   1.16143
   D18       -0.91725  -0.00037   0.00217  -0.00353  -0.00138  -0.91864
   D19       -0.66928  -0.00171  -0.00911  -0.05379  -0.06296  -0.73224
   D20        1.49257  -0.00269  -0.00758  -0.06648  -0.07403   1.41854
   D21       -2.95576  -0.00080  -0.00797  -0.04273  -0.05068  -3.00643
   D22        3.13775   0.00001  -0.00253   0.00128  -0.00106   3.13670
   D23       -0.00975  -0.00013  -0.00258  -0.00921  -0.01162  -0.02137
   D24       -0.01725   0.00029  -0.00196   0.02128   0.01932   0.00206
   D25        3.11843   0.00015  -0.00201   0.01079   0.00875   3.12718
   D26       -3.12940  -0.00029   0.00357  -0.01352  -0.00962  -3.13902
   D27        0.02492  -0.00050   0.00312  -0.03226  -0.02912  -0.00420
   D28       -0.00278   0.00014  -0.00069   0.00545   0.00476   0.00198
   D29        3.13594  -0.00013  -0.00076  -0.00975  -0.01057   3.12537
   D30       -3.13825   0.00029  -0.00063   0.01634   0.01581  -3.12243
   D31        0.00047   0.00002  -0.00070   0.00115   0.00048   0.00095
   D32        0.02155  -0.00051   0.00304  -0.02972  -0.02671  -0.00516
   D33        3.13495  -0.00018  -0.00088  -0.01016  -0.01104   3.12391
   D34       -3.11717  -0.00024   0.00310  -0.01456  -0.01149  -3.12866
   D35       -0.00377   0.00009  -0.00081   0.00499   0.00418   0.00041
   D36       -0.02633   0.00056  -0.00349   0.03508   0.03166   0.00533
   D37        3.14091   0.00027   0.00007   0.01740   0.01747  -3.12481
         Item               Value     Threshold  Converged?
 Maximum Force            0.008292     0.000450     NO 
 RMS     Force            0.001684     0.000300     NO 
 Maximum Displacement     0.168316     0.001800     NO 
 RMS     Displacement     0.038808     0.001200     NO 
 Predicted change in Energy=-8.457625D-04
 GradGradGradGradGradGradGradGradGradGradGradGradGradGradGradGradGradGrad

                          Input orientation:                          
 ---------------------------------------------------------------------
 Center     Atomic      Atomic             Coordinates (Angstroms)
 Number     Number       Type             X           Y           Z
 ---------------------------------------------------------------------
      1          7           0       -1.771402    1.084377   -0.721484
      2         16           0       -1.419732   -0.114395    0.184723
      3          6           0        0.356049    0.004192    0.172792
      4          6           0        1.182497   -0.546589    1.119196
      5          6           0        2.552351   -0.287138    0.834032
      6          6           0        2.713443    0.451450   -0.314433
      7         16           0        1.216564    0.832276   -1.064169
      8          6           0       -1.647851   -1.705478   -0.617898
      9          7           0       -1.994185   -0.410360    1.587112
     10          1           0       -2.785302    1.223924   -0.706838
     11          1           0        0.799499   -1.097370    1.983655
     12          1           0        3.383955   -0.618866    1.462024
     13          1           0        3.649845    0.803267   -0.755472
     14          1           0       -1.172454   -1.642323   -1.606761
     15          1           0       -2.736071   -1.848300   -0.700962
     16          1           0       -1.200670   -2.493029    0.004344
     17          1           0       -2.033341    0.478566    2.097131
 ---------------------------------------------------------------------
                    Distance matrix (angstroms):
                    1          2          3          4          5
     1  N    0.000000
     2  S    1.543352   0.000000
     3  C    2.548054   1.779777   0.000000
     4  C    3.843653   2.798504   1.371880   0.000000
     5  C    4.795364   4.028509   2.312110   1.423072   0.000000
     6  C    4.547540   4.201485   2.448414   2.322751   1.374931
     7  S    3.018100   3.066916   1.719384   2.582539   2.576932
     8  C    2.794509   1.796603   2.750232   3.517298   4.664920
     9  N    2.759255   1.544113   2.774122   3.213846   4.610130
    10  H    1.023563   2.109682   3.482755   4.713018   5.757441
    11  H    4.322884   3.021156   2.165482   1.094229   2.247354
    12  H    5.852046   4.996138   3.349407   2.229164   1.093610
    13  H    5.428637   5.237049   3.514155   3.379985   2.218106
    14  H    2.928710   2.367515   2.866032   3.765271   4.654908
    15  H    3.087329   2.350237   3.708960   4.512494   5.723709
    16  H    3.694643   2.395501   2.947517   3.272767   4.431648
    17  H    2.894860   2.094140   3.104400   3.514101   4.817706
                    6          7          8          9         10
     6  C    0.000000
     7  S    1.716909   0.000000
     8  C    4.874968   3.852820   0.000000
     9  N    5.149791   4.345382   2.580571   0.000000
    10  H    5.566587   4.036831   3.143740   2.925569   0.000000
    11  H    3.367972   3.631350   3.623174   2.904118   5.047570
    12  H    2.179670   3.631121   5.552104   5.383633   6.794083
    13  H    1.093224   2.452956   5.863302   6.230222   6.449065
    14  H    4.599368   3.482162   1.099018   3.520483   3.409767
    15  H    5.927517   4.789648   1.100692   2.802383   3.072624
    16  H    4.908345   4.247633   1.098814   2.733556   4.102752
    17  H    5.324315   4.547616   3.505715   1.025594   2.997206
                   11         12         13         14         15
    11  H    0.000000
    12  H    2.679641   0.000000
    13  H    4.386309   2.647724   0.000000
    14  H    4.132391   5.588001   5.473588   0.000000
    15  H    4.502369   6.606416   6.914746   1.818735   0.000000
    16  H    3.141052   5.162954   5.913576   1.822129   1.808477
    17  H    3.243676   5.563705   6.367211   4.354092   3.706408
                   16         17
    16  H    0.000000
    17  H    3.728737   0.000000
 Stoichiometry    C5H8N2S2
 Framework group  C1[X(C5H8N2S2)]
 Deg. of freedom    45
 Full point group                 C1      NOp   1
 Largest Abelian subgroup         C1      NOp   1
 Largest concise Abelian subgroup C1      NOp   1
                         Standard orientation:                         
 ---------------------------------------------------------------------
 Center     Atomic      Atomic             Coordinates (Angstroms)
 Number     Number       Type             X           Y           Z
 ---------------------------------------------------------------------
      1          7           0       -1.504482   -1.481121   -0.632269
      2         16           0       -1.416648   -0.018090   -0.148781
      3          6           0        0.351243    0.174697   -0.078080
      4          6           0        1.007634    1.379133   -0.101340
      5          6           0        2.418399    1.209020   -0.024270
      6          6           0        2.778908   -0.115618    0.051900
      7         16           0        1.421018   -1.166216    0.039454
      8          6           0       -1.838690    0.185799    1.585604
      9          7           0       -2.131324    1.202552   -0.768100
     10          1           0       -2.481140   -1.700995   -0.845519
     11          1           0        0.479462    2.333660   -0.186472
     12          1           0        3.138148    2.032212   -0.041575
     13          1           0        3.789151   -0.530064    0.104641
     14          1           0       -1.288906   -0.582673    2.146879
     15          1           0       -2.926797    0.033401    1.651334
     16          1           0       -1.570174    1.201596    1.907239
     17          1           0       -2.063993    1.113558   -1.787604
 ---------------------------------------------------------------------
 Rotational constants (GHZ):           2.3902340           0.9203692           0.7889076
 Standard basis: def2SVP (5D, 7F)
 There are   183 symmetry adapted cartesian basis functions of A   symmetry.
 There are   174 symmetry adapted basis functions of A   symmetry.
   174 basis functions,   305 primitive gaussians,   183 cartesian basis functions
    42 alpha electrons       42 beta electrons
       nuclear repulsion energy       641.6719213831 Hartrees.
 NAtoms=   17 NActive=   17 NUniq=   17 SFac= 1.00D+00 NAtFMM=   60 NAOKFM=F Big=F
 Integral buffers will be    131072 words long.
 Raffenetti 2 integral format.
 Two-electron integral symmetry is turned on.
 Nuclear repulsion after empirical dispersion term =      641.6522149281 Hartrees.
 One-electron integrals computed using PRISM.
   1 Symmetry operations used in ECPInt.
 ECPInt:  NShTT=    3403 NPrTT=   13041 LenC2=    3345 LenP2D=    9778.
 LDataN:  DoStor=T MaxTD1= 4 Len=   56
 NBasis=   174 RedAO= T EigKep=  8.35D-04  NBF=   174
 NBsUse=   174 1.00D-06 EigRej= -1.00D+00 NBFU=   174
 Initial guess from the checkpoint file:  "SDI2635_2.chk"
 B after Tr=     0.000000   -0.000000   -0.000000
         Rot=    0.999987    0.004615    0.001965   -0.000179 Ang=   0.58 deg.
 ExpMin= 1.22D-01 ExpMax= 9.18D+03 ExpMxC= 1.38D+03 IAcc=3 IRadAn=         5 AccDes= 0.00D+00
 Harris functional with IExCor= 1009 and IRadAn=       5 diagonalized for initial guess.
 HarFok:  IExCor= 1009 AccDes= 0.00D+00 IRadAn=         5 IDoV= 1 UseB2=F ITyADJ=14
 ICtDFT=  3500011 ScaDFX=  1.000000  1.000000  1.000000  1.000000
 FoFCou: FMM=F IPFlag=           0 FMFlag=      100000 FMFlg1=           0
         NFxFlg=           0 DoJE=T BraDBF=F KetDBF=T FulRan=T
         wScrn=  0.000000 ICntrl=       500 IOpCl=  0 I1Cent=   200000004 NGrid=           0
         NMat0=    1 NMatS0=      1 NMatT0=    0 NMatD0=    1 NMtDS0=    0 NMtDT0=    0
 Petite list used in FoFCou.
 Requested convergence on RMS density matrix=1.00D-08 within 128 cycles.
 Requested convergence on MAX density matrix=1.00D-06.
 Requested convergence on             energy=1.00D-06.
 No special actions if energy rises.
 Integral accuracy reduced to 1.0D-05 until final iterations.
 Initial convergence to 1.0D-05 achieved.  Increase integral accuracy.
 SCF Done:  E(RPBE1PBE) =  -1099.99713528     A.U. after   12 cycles
            NFock= 12  Conv=0.88D-08     -V/T= 2.0042
   1 Symmetry operations used in ECPInt.
 ECPInt:  NShTT=    3403 NPrTT=   13041 LenC2=    3345 LenP2D=    9778.
 LDataN:  DoStor=T MaxTD1= 5 Len=  102
 Calling FoFJK, ICntrl=      2127 FMM=F ISym2X=0 I1Cent= 0 IOpClX= 0 NMat=1 NMatS=1 NMatT=0.
 ***** Axes restored to original set *****
 -------------------------------------------------------------------
 Center     Atomic                   Forces (Hartrees/Bohr)
 Number     Number              X              Y              Z
 -------------------------------------------------------------------
      1        7          -0.001644305    0.004453963   -0.000024681
      2       16           0.004628210   -0.003324752   -0.001093862
      3        6          -0.000224430    0.000240095   -0.001428892
      4        6           0.000886523   -0.000202005    0.000724883
      5        6          -0.000189950    0.000600280    0.000808190
      6        6           0.001054575   -0.001384262   -0.000381679
      7       16           0.000095858    0.000853406    0.001828701
      8        6          -0.000619075   -0.001064106    0.000404239
      9        7          -0.003193238    0.001113821    0.002423388
     10        1           0.000641285   -0.001484631   -0.001356369
     11        1           0.000538718    0.001203629   -0.001536199
     12        1          -0.001468032    0.000685687   -0.001229611
     13        1          -0.001855696   -0.000875541    0.000835111
     14        1          -0.000969683   -0.000258912    0.001342214
     15        1           0.001662164   -0.000183857   -0.000173210
     16        1          -0.000945489    0.000730790   -0.001220807
     17        1           0.001602566   -0.001103604    0.000078584
 -------------------------------------------------------------------
 Cartesian Forces:  Max     0.004628210 RMS     0.001514338

 GradGradGradGradGradGradGradGradGradGradGradGradGradGradGradGradGradGrad
 Berny optimization.
 Using GEDIIS/GDIIS optimizer.
 FormGI is forming the generalized inverse of G from B-inverse, IUseBI=4.
 Internal  Forces:  Max     0.003345450 RMS     0.000925523
 Search for a local minimum.
 Step number   3 out of a maximum of   91
 All quantities printed in internal units (Hartrees-Bohrs-Radians)
 Mixed Optimization -- En-DIIS/RFO-DIIS
 Update second derivatives using D2CorX and points    1    2    3
 DE= -1.03D-03 DEPred=-8.46D-04 R= 1.22D+00
 TightC=F SS=  1.41D+00  RLast= 2.00D-01 DXNew= 8.4853D-01 6.0126D-01
 Trust test= 1.22D+00 RLast= 2.00D-01 DXMaxT set to 6.01D-01
 ITU=  1  1  0
 Use linear search instead of GDIIS.
     Eigenvalues ---    0.00230   0.00564   0.01399   0.01690   0.02115
     Eigenvalues ---    0.02195   0.02322   0.02382   0.02618   0.03492
     Eigenvalues ---    0.05910   0.06220   0.06521   0.08947   0.09243
     Eigenvalues ---    0.14287   0.15966   0.15996   0.15998   0.15999
     Eigenvalues ---    0.16000   0.16000   0.16062   0.16395   0.19386
     Eigenvalues ---    0.22256   0.23669   0.23847   0.24500   0.27386
     Eigenvalues ---    0.32604   0.32767   0.35572   0.35683   0.36011
     Eigenvalues ---    0.36617   0.36848   0.40066   0.44263   0.46597
     Eigenvalues ---    0.47776   0.49266   0.54263   0.66364   0.66513
 RFO step:  Lambda=-6.84221448D-04 EMin= 2.30041032D-03
 Quartic linear search produced a step of  0.34089.
 Iteration  1 RMS(Cart)=  0.02777941 RMS(Int)=  0.00080417
 Iteration  2 RMS(Cart)=  0.00085328 RMS(Int)=  0.00009628
 Iteration  3 RMS(Cart)=  0.00000066 RMS(Int)=  0.00009628
 Variable       Old X    -DE/DX   Delta X   Delta X   Delta X     New X
                                 (Linear)    (Quad)   (Total)
    R1        2.91651   0.00335   0.00455   0.00738   0.01194   2.92845
    R2        1.93425  -0.00086   0.00349   0.00073   0.00422   1.93848
    R3        3.36329  -0.00108  -0.00091  -0.00604  -0.00696   3.35633
    R4        3.39509   0.00064  -0.00516  -0.00242  -0.00758   3.38751
    R5        2.91795   0.00286   0.00518   0.00648   0.01166   2.92961
    R6        2.59248  -0.00074   0.00154   0.00026   0.00181   2.59429
    R7        3.24916  -0.00109  -0.00173  -0.00335  -0.00510   3.24407
    R8        2.68922  -0.00199   0.00014  -0.00342  -0.00325   2.68596
    R9        2.06779  -0.00201   0.00127  -0.00302  -0.00175   2.06604
   R10        2.59824  -0.00169   0.00100  -0.00113  -0.00012   2.59812
   R11        2.06662  -0.00203   0.00146  -0.00333  -0.00187   2.06475
   R12        3.24449  -0.00057  -0.00114  -0.00242  -0.00358   3.24091
   R13        2.06589  -0.00221   0.00143  -0.00327  -0.00183   2.06406
   R14        2.07684  -0.00164   0.00125  -0.00280  -0.00155   2.07529
   R15        2.08001  -0.00161   0.00159  -0.00230  -0.00072   2.07929
   R16        2.07646  -0.00160   0.00114  -0.00227  -0.00113   2.07533
   R17        1.93809  -0.00098   0.00407   0.00052   0.00459   1.94268
    A1        1.89991  -0.00046  -0.01211  -0.01273  -0.02484   1.87507
    A2        1.74331  -0.00041   0.00072  -0.00295  -0.00221   1.74110
    A3        1.97864   0.00019  -0.00278  -0.00012  -0.00294   1.97570
    A4        2.21103  -0.00021  -0.00398  -0.00284  -0.00684   2.20420
    A5        1.75453   0.00102   0.00587   0.01172   0.01757   1.77210
    A6        1.97148   0.00017  -0.00077   0.00174   0.00087   1.97236
    A7        1.76069  -0.00040   0.00317  -0.00346  -0.00036   1.76033
    A8        2.17693  -0.00066  -0.00671  -0.00752  -0.01417   2.16276
    A9        2.13681   0.00077   0.00645   0.00729   0.01381   2.15061
   A10        1.96943  -0.00011   0.00028   0.00038   0.00033   1.96976
   A11        1.94814   0.00026  -0.00008  -0.00022  -0.00052   1.94762
   A12        2.13676  -0.00030  -0.00152  -0.00211  -0.00354   2.13322
   A13        2.19815   0.00005   0.00156   0.00248   0.00414   2.20229
   A14        1.95854   0.00005  -0.00110  -0.00019  -0.00156   1.95698
   A15        2.16713   0.00010   0.00164   0.00179   0.00350   2.17062
   A16        2.15736  -0.00015  -0.00059  -0.00124  -0.00178   2.15558
   A17        1.96249   0.00024   0.00092   0.00070   0.00119   1.96368
   A18        2.22712  -0.00017  -0.00162  -0.00137  -0.00301   2.22411
   A19        2.09351  -0.00007   0.00079   0.00026   0.00102   2.09452
   A20        1.58616  -0.00043   0.00013  -0.00028  -0.00064   1.58551
   A21        1.87146   0.00015  -0.00091  -0.00162  -0.00256   1.86889
   A22        1.84851   0.00054  -0.00313   0.00022  -0.00292   1.84560
   A23        1.90719   0.00079   0.00627   0.00973   0.01598   1.92317
   A24        1.94681  -0.00047  -0.00080  -0.00401  -0.00484   1.94197
   A25        1.95484  -0.00034  -0.00061  -0.00082  -0.00147   1.95337
   A26        1.93060  -0.00056  -0.00070  -0.00299  -0.00369   1.92691
   A27        1.87520  -0.00004  -0.01287  -0.01115  -0.02402   1.85117
    D1       -3.00713  -0.00071  -0.01713  -0.04344  -0.06058  -3.06770
    D2        1.42427  -0.00171  -0.02329  -0.05519  -0.07845   1.34582
    D3       -0.76312  -0.00108  -0.02079  -0.04638  -0.06719  -0.83030
    D4        2.77679  -0.00040   0.01296  -0.00812   0.00482   2.78162
    D5       -0.37240  -0.00011   0.00543   0.01880   0.02422  -0.34818
    D6       -1.47790  -0.00003   0.01188  -0.00576   0.00612  -1.47178
    D7        1.65609   0.00026   0.00435   0.02116   0.02552   1.68161
    D8        0.38422   0.00009   0.01812  -0.00329   0.01484   0.39906
    D9       -2.76497   0.00038   0.01059   0.02363   0.03424  -2.73074
   D10        0.82981   0.00009   0.00196   0.00155   0.00350   0.83331
   D11       -1.25098   0.00028   0.00499   0.00689   0.01186  -1.23912
   D12        2.95213   0.00023   0.00427   0.00522   0.00949   2.96162
   D13       -1.01488  -0.00001  -0.00096  -0.00094  -0.00187  -1.01675
   D14       -3.09568   0.00017   0.00207   0.00440   0.00650  -3.08918
   D15        1.10743   0.00013   0.00135   0.00273   0.00413   1.11156
   D16       -3.04096  -0.00039  -0.00278  -0.00532  -0.00814  -3.04909
   D17        1.16143  -0.00020   0.00024   0.00002   0.00023   1.16166
   D18       -0.91864  -0.00025  -0.00047  -0.00165  -0.00214  -0.92078
   D19       -0.73224  -0.00093  -0.02146  -0.04443  -0.06591  -0.79814
   D20        1.41854  -0.00160  -0.02523  -0.04992  -0.07514   1.34341
   D21       -3.00643  -0.00059  -0.01727  -0.03779  -0.05508  -3.06151
   D22        3.13670  -0.00021  -0.00036  -0.01251  -0.01293   3.12376
   D23       -0.02137  -0.00013  -0.00396  -0.00269  -0.00670  -0.02807
   D24        0.00206  -0.00048   0.00658  -0.03719  -0.03060  -0.02854
   D25        3.12718  -0.00040   0.00298  -0.02737  -0.02437   3.10281
   D26       -3.13902   0.00051  -0.00328   0.03094   0.02757  -3.11145
   D27       -0.00420   0.00076  -0.00993   0.05491   0.04497   0.04077
   D28        0.00198  -0.00016   0.00162  -0.00758  -0.00596  -0.00397
   D29        3.12537   0.00015  -0.00360   0.01377   0.01019   3.13556
   D30       -3.12243  -0.00025   0.00539  -0.01776  -0.01240  -3.13483
   D31        0.00095   0.00007   0.00016   0.00359   0.00375   0.00470
   D32       -0.00516   0.00074  -0.00911   0.04898   0.03987   0.03472
   D33        3.12391   0.00015  -0.00377   0.01063   0.00688   3.13079
   D34       -3.12866   0.00042  -0.00392   0.02773   0.02382  -3.10484
   D35        0.00041  -0.00016   0.00142  -0.01062  -0.00917  -0.00877
   D36        0.00533  -0.00085   0.01079  -0.05898  -0.04820  -0.04287
   D37       -3.12481  -0.00032   0.00595  -0.02390  -0.01791   3.14047
         Item               Value     Threshold  Converged?
 Maximum Force            0.003345     0.000450     NO 
 RMS     Force            0.000926     0.000300     NO 
 Maximum Displacement     0.141856     0.001800     NO 
 RMS     Displacement     0.027717     0.001200     NO 
 Predicted change in Energy=-4.301628D-04
 GradGradGradGradGradGradGradGradGradGradGradGradGradGradGradGradGradGrad

                          Input orientation:                          
 ---------------------------------------------------------------------
 Center     Atomic      Atomic             Coordinates (Angstroms)
 Number     Number       Type             X           Y           Z
 ---------------------------------------------------------------------
      1          7           0       -1.777528    1.085046   -0.724033
      2         16           0       -1.413310   -0.117737    0.182680
      3          6           0        0.357383    0.019963    0.168537
      4          6           0        1.176602   -0.536282    1.119408
      5          6           0        2.547442   -0.284475    0.840785
      6          6           0        2.715873    0.447262   -0.310931
      7         16           0        1.224035    0.883085   -1.036018
      8          6           0       -1.655882   -1.703714   -0.616834
      9          7           0       -1.987048   -0.410708    1.592775
     10          1           0       -2.800505    1.159427   -0.739696
     11          1           0        0.783167   -1.089004    1.976739
     12          1           0        3.376619   -0.626833    1.464544
     13          1           0        3.656518    0.786718   -0.750223
     14          1           0       -1.190723   -1.638981   -1.609545
     15          1           0       -2.745524   -1.835376   -0.694496
     16          1           0       -1.215647   -2.505704   -0.009310
     17          1           0       -1.958274    0.481518    2.102611
 ---------------------------------------------------------------------
                    Distance matrix (angstroms):
                    1          2          3          4          5
     1  N    0.000000
     2  S    1.549668   0.000000
     3  C    2.547338   1.776096   0.000000
     4  C    3.841076   2.785729   1.372838   0.000000
     5  C    4.798918   4.018515   2.311051   1.421351   0.000000
     6  C    4.557201   4.196788   2.444370   2.320039   1.374866
     7  S    3.024484   3.072858   1.716687   2.581223   2.576236
     8  C    2.793470   1.792592   2.764255   3.521420   4.669777
     9  N    2.765643   1.550283   2.776742   3.201333   4.598155
    10  H    1.025797   2.099103   3.477862   4.706281   5.760496
    11  H    4.310200   2.997752   2.163492   1.093303   2.247293
    12  H    5.855394   4.984554   3.348697   2.228765   1.092621
    13  H    5.442292   5.233689   3.509462   3.375771   2.215583
    14  H    2.923833   2.361313   2.882760   3.777216   4.670405
[...]
   XZ=    -4.5023   YZ=    -0.7357   ZZ=    28.4970
   Eigenvalues:    26.2623    26.9448    32.3622
     16  H    Isotropic =    28.1852   Anisotropy =     6.3576
   XX=    25.9564   YX=    -0.7505   ZX=    -1.2505
   XY=     0.6522   YY=    28.8363   ZY=     1.7312
   XZ=    -2.0448   YZ=     3.9141   ZZ=    29.7629
   Eigenvalues:    24.9929    27.1391    32.4236
     17  H    Isotropic =    30.1904   Anisotropy =    10.2001
   XX=    27.2714   YX=    -0.5381   ZX=     0.6869
   XY=    -0.7949   YY=    27.8325   ZY=    -3.1098
   XZ=     2.2824   YZ=    -3.5606   ZZ=    35.4673
   Eigenvalues:    26.5577    27.0230    36.9905
 End of Minotr F.D. properties file   721 does not exist.
 End of Minotr F.D. properties file   722 does not exist.
 End of Minotr F.D. properties file   788 does not exist.

 **********************************************************************

            Population analysis using the SCF Density.

 **********************************************************************

 Orbital symmetries:
       Occupied  (A) (A) (A) (A) (A) (A) (A) (A) (A) (A) (A) (A)
                 (A) (A) (A) (A) (A) (A) (A) (A) (A) (A) (A) (A)
                 (A) (A) (A) (A) (A) (A) (A) (A) (A) (A) (A) (A)
                 (A) (A) (A) (A) (A) (A)
       Virtual   (A) (A) (A) (A) (A) (A) (A) (A) (A) (A) (A) (A)
                 (A) (A) (A) (A) (A) (A) (A) (A) (A) (A) (A) (A)
                 (A) (A) (A) (A) (A) (A) (A) (A) (A) (A) (A) (A)
                 (A) (A) (A) (A) (A) (A) (A) (A) (A) (A) (A) (A)
                 (A) (A) (A) (A) (A) (A) (A) (A) (A) (A) (A) (A)
                 (A) (A) (A) (A) (A) (A) (A) (A) (A) (A) (A) (A)
                 (A) (A) (A) (A) (A) (A) (A) (A) (A) (A) (A) (A)
                 (A) (A) (A) (A) (A) (A) (A) (A) (A) (A) (A) (A)
                 (A) (A) (A) (A) (A) (A) (A) (A) (A) (A) (A) (A)
                 (A) (A) (A) (A) (A) (A) (A) (A) (A) (A) (A) (A)
                 (A) (A) (A) (A) (A) (A) (A) (A) (A) (A) (A) (A)
                 (A) (A) (A) (A) (A) (A) (A) (A) (A) (A) (A) (A)
                 (A) (A) (A) (A) (A) (A) (A) (A) (A) (A) (A) (A)
                 (A) (A) (A) (A) (A) (A) (A) (A) (A) (A) (A) (A)
                 (A) (A) (A) (A) (A) (A) (A) (A) (A) (A) (A) (A)
                 (A) (A) (A) (A) (A) (A) (A) (A) (A) (A) (A) (A)
                 (A) (A) (A) (A) (A) (A) (A) (A) (A) (A) (A) (A)
                 (A) (A) (A) (A) (A) (A) (A) (A) (A) (A) (A) (A)
                 (A) (A) (A) (A) (A) (A) (A) (A) (A) (A) (A) (A)
                 (A) (A) (A) (A) (A) (A) (A) (A) (A) (A) (A) (A)
                 (A) (A) (A) (A) (A) (A) (A) (A) (A) (A) (A) (A)
                 (A) (A) (A) (A) (A) (A) (A) (A) (A) (A) (A) (A)
                 (A) (A) (A) (A) (A) (A) (A) (A) (A) (A) (A) (A)
                 (A) (A) (A) (A) (A) (A) (A) (A) (A) (A) (A) (A)
                 (A) (A) (A) (A) (A) (A) (A) (A) (A)
 The electronic state is 1-A.
 Alpha  occ. eigenvalues --  -89.17957 -89.06728 -14.35018 -14.34937 -10.27692
 Alpha  occ. eigenvalues --  -10.26761 -10.25494 -10.24947 -10.24472  -8.13483
 Alpha  occ. eigenvalues --   -8.04449  -6.07132  -6.06999  -6.06912  -5.98044
 Alpha  occ. eigenvalues --   -5.97670  -5.97484  -1.00837  -0.91991  -0.86499
 Alpha  occ. eigenvalues --   -0.78256  -0.77169  -0.75904  -0.65781  -0.59097
 Alpha  occ. eigenvalues --   -0.56772  -0.54766  -0.51251  -0.47449  -0.46977
 Alpha  occ. eigenvalues --   -0.43635  -0.43105  -0.42022  -0.41483  -0.40674
 Alpha  occ. eigenvalues --   -0.37407  -0.35819  -0.29706  -0.28180  -0.27081
 Alpha  occ. eigenvalues --   -0.26890  -0.25080
 Alpha virt. eigenvalues --   -0.04292   0.02428   0.03045   0.04300   0.05099
 Alpha virt. eigenvalues --    0.06854   0.07275   0.08030   0.08697   0.09560
 Alpha virt. eigenvalues --    0.09866   0.11236   0.11965   0.12626   0.13540
 Alpha virt. eigenvalues --    0.14323   0.16535   0.19373   0.20425   0.21285
 Alpha virt. eigenvalues --    0.21997   0.22903   0.23497   0.24777   0.25986
 Alpha virt. eigenvalues --    0.27290   0.28583   0.28758   0.30261   0.31340
 Alpha virt. eigenvalues --    0.32420   0.33805   0.34351   0.35064   0.35472
 Alpha virt. eigenvalues --    0.36895   0.38135   0.39033   0.39176   0.40289
 Alpha virt. eigenvalues --    0.40908   0.41282   0.42004   0.43844   0.44122
 Alpha virt. eigenvalues --    0.45159   0.45580   0.46204   0.49231   0.49761
 Alpha virt. eigenvalues --    0.50663   0.52017   0.52470   0.52961   0.54940
 Alpha virt. eigenvalues --    0.55423   0.56341   0.58038   0.60683   0.62982
 Alpha virt. eigenvalues --    0.63695   0.64737   0.66349   0.66743   0.69243
 Alpha virt. eigenvalues --    0.69637   0.73045   0.73448   0.75341   0.77145
 Alpha virt. eigenvalues --    0.78786   0.79444   0.81729   0.82406   0.85775
 Alpha virt. eigenvalues --    0.89579   0.91516   0.92288   0.92713   0.94433
 Alpha virt. eigenvalues --    0.95041   0.97774   0.98478   1.00953   1.03726
 Alpha virt. eigenvalues --    1.05396   1.06256   1.07559   1.07783   1.08546
 Alpha virt. eigenvalues --    1.10864   1.13765   1.14393   1.16566   1.19620
 Alpha virt. eigenvalues --    1.24032   1.25239   1.27117   1.29165   1.31660
 Alpha virt. eigenvalues --    1.34069   1.36441   1.37977   1.39709   1.42842
 Alpha virt. eigenvalues --    1.43720   1.46509   1.47454   1.48393   1.49196
 Alpha virt. eigenvalues --    1.49476   1.50174   1.51530   1.53059   1.53556
 Alpha virt. eigenvalues --    1.56502   1.57135   1.58174   1.59223   1.59690
 Alpha virt. eigenvalues --    1.60586   1.61765   1.63976   1.65439   1.66120
 Alpha virt. eigenvalues --    1.68871   1.70070   1.71938   1.73387   1.73690
 Alpha virt. eigenvalues --    1.75987   1.78856   1.79555   1.81311   1.82472
 Alpha virt. eigenvalues --    1.84448   1.87405   1.88741   1.90737   1.92823
 Alpha virt. eigenvalues --    1.94963   1.96615   1.97720   1.98805   1.99340
 Alpha virt. eigenvalues --    2.00674   2.01063   2.03479   2.04361   2.06898
 Alpha virt. eigenvalues --    2.07740   2.10221   2.11809   2.12908   2.15263
 Alpha virt. eigenvalues --    2.15812   2.17806   2.18499   2.19888   2.22007
 Alpha virt. eigenvalues --    2.23455   2.26487   2.28795   2.30949   2.31337
 Alpha virt. eigenvalues --    2.33336   2.36025   2.40099   2.41280   2.47586
 Alpha virt. eigenvalues --    2.48253   2.50266   2.51998   2.52451   2.54178
 Alpha virt. eigenvalues --    2.56002   2.56729   2.58271   2.60461   2.62489
 Alpha virt. eigenvalues --    2.63720   2.64599   2.66405   2.69543   2.70415
 Alpha virt. eigenvalues --    2.73036   2.73764   2.75007   2.78129   2.78782
 Alpha virt. eigenvalues --    2.80963   2.81651   2.82484   2.83751   2.85683
 Alpha virt. eigenvalues --    2.90074   2.94526   2.97501   3.00135   3.02393
 Alpha virt. eigenvalues --    3.04283   3.07387   3.09303   3.10020   3.11380
 Alpha virt. eigenvalues --    3.14416   3.15205   3.16831   3.20238   3.22586
 Alpha virt. eigenvalues --    3.23816   3.24916   3.26074   3.27626   3.30290
 Alpha virt. eigenvalues --    3.34253   3.35384   3.36899   3.37457   3.40857
 Alpha virt. eigenvalues --    3.41977   3.44604   3.47227   3.49074   3.50052
 Alpha virt. eigenvalues --    3.51154   3.52815   3.55137   3.57561   3.59505
 Alpha virt. eigenvalues --    3.63335   3.66352   3.67392   3.68753   3.75013
 Alpha virt. eigenvalues --    3.77216   3.80933   3.85069   3.89871   3.99718
 Alpha virt. eigenvalues --    4.02756   4.03904   4.06190   4.08742   4.10852
 Alpha virt. eigenvalues --    4.16165   4.17760   4.19290   4.21765   4.23492
 Alpha virt. eigenvalues --    4.24607   4.26321   4.28668   4.32323   4.34353
 Alpha virt. eigenvalues --    4.36982   4.38679   4.42878   4.42918   4.45290
 Alpha virt. eigenvalues --    4.49760   4.60820   4.63133   4.67295   4.69565
 Alpha virt. eigenvalues --    4.72282   4.73445   4.76298   4.78965   4.85753
 Alpha virt. eigenvalues --    4.89743   4.92660   5.02414   5.06159   5.08644
 Alpha virt. eigenvalues --    5.14648   5.16696   5.17979   5.23188   5.23462
 Alpha virt. eigenvalues --    5.54899   5.58128   8.91362   9.41488   9.44506
 Alpha virt. eigenvalues --    9.49822   9.51097   9.64721  20.30246  21.65651
 Alpha virt. eigenvalues --   22.00110  22.31228  22.49652  22.69217  22.86577
 Alpha virt. eigenvalues --   31.85569  31.88613
          Condensed to atoms (all electrons):
               1          2          3          4          5          6
     1  N    6.941774   0.505589  -0.112419   0.020338  -0.002080   0.002213
     2  S    0.505589  14.100955   0.279527  -0.046447   0.007379   0.001279
     3  C   -0.112419   0.279527   5.244472   0.404680  -0.024337  -0.119105
     4  C    0.020338  -0.046447   0.404680   5.172583   0.388874  -0.000412
     5  C   -0.002080   0.007379  -0.024337   0.388874   4.892438   0.578206
     6  C    0.002213   0.001279  -0.119105  -0.000412   0.578206   4.917476
     7  S    0.004113  -0.021199   0.456536  -0.135199  -0.029062   0.409573
     8  C   -0.046042   0.290938  -0.076309   0.004921  -0.001998   0.000683
     9  N   -0.078195   0.525996  -0.075328   0.006457  -0.000547   0.000195
    10  H    0.303665  -0.012637   0.014650  -0.001454   0.000150  -0.000074
    11  H    0.001256  -0.000564  -0.052802   0.419523  -0.044743   0.007128
    12  H    0.000000  -0.000153   0.011069  -0.048417   0.419164  -0.046637
    13  H   -0.000019  -0.000091   0.002731   0.009219  -0.031436   0.400319
    14  H    0.003030  -0.021652   0.003654   0.001883  -0.000052   0.000180
    15  H    0.000403  -0.014748   0.007979  -0.000266   0.000055  -0.000032
    16  H    0.004552  -0.013704   0.008806  -0.007284   0.000804  -0.000156
    17  H   -0.001499  -0.023013  -0.000996  -0.002195  -0.000277   0.000012
               7          8          9         10         11         12
     1  N    0.004113  -0.046042  -0.078195   0.303665   0.001256   0.000000
     2  S   -0.021199   0.290938   0.525996  -0.012637  -0.000564  -0.000153
     3  C    0.456536  -0.076309  -0.075328   0.014650  -0.052802   0.011069
     4  C   -0.135199   0.004921   0.006457  -0.001454   0.419523  -0.048417
     5  C   -0.029062  -0.001998  -0.000547   0.000150  -0.044743   0.419164
     6  C    0.409573   0.000683   0.000195  -0.000074   0.007128  -0.046637
     7  S   15.215357   0.000626   0.003606  -0.000791   0.007567   0.008780
     8  C    0.000626   5.136160  -0.086957  -0.009287  -0.001546   0.000021
     9  N    0.003606  -0.086957   6.912856  -0.000118   0.014903  -0.000009
    10  H   -0.000791  -0.009287  -0.000118   0.491212  -0.000046  -0.000000
    11  H    0.007567  -0.001546   0.014903  -0.000046   0.496655  -0.002424
    12  H    0.008780   0.000021  -0.000009  -0.000000  -0.002424   0.528299
    13  H   -0.036045   0.000023   0.000009  -0.000001  -0.000042  -0.004881
    14  H    0.000402   0.376122   0.005774  -0.000015   0.000077  -0.000003
    15  H   -0.000189   0.372702   0.004634   0.001989  -0.000050  -0.000001
    16  H    0.000066   0.362887   0.004223   0.000207  -0.000012   0.000007
    17  H    0.000228   0.012878   0.311330  -0.000222  -0.001401   0.000000
              13         14         15         16         17
     1  N   -0.000019   0.003030   0.000403   0.004552  -0.001499
     2  S   -0.000091  -0.021652  -0.014748  -0.013704  -0.023013
     3  C    0.002731   0.003654   0.007979   0.008806  -0.000996
     4  C    0.009219   0.001883  -0.000266  -0.007284  -0.002195
     5  C   -0.031436  -0.000052   0.000055   0.000804  -0.000277
     6  C    0.400319   0.000180  -0.000032  -0.000156   0.000012
     7  S   -0.036045   0.000402  -0.000189   0.000066   0.000228
     8  C    0.000023   0.376122   0.372702   0.362887   0.012878
     9  N    0.000009   0.005774   0.004634   0.004223   0.311330
    10  H   -0.000001  -0.000015   0.001989   0.000207  -0.000222
    11  H   -0.000042   0.000077  -0.000050  -0.000012  -0.001401
    12  H   -0.004881  -0.000003  -0.000001   0.000007   0.000000
    13  H    0.505125  -0.000007  -0.000001  -0.000000   0.000001
    14  H   -0.000007   0.508766  -0.014718  -0.016108  -0.000589
    15  H   -0.000001  -0.014718   0.504501  -0.011408  -0.000598
    16  H   -0.000000  -0.016108  -0.011408   0.513378  -0.000816
    17  H    0.000001  -0.000589  -0.000598  -0.000816   0.488144
 Mulliken charges:
               1
     1  N   -0.546677
     2  S    0.442546
     3  C    0.027192
     4  C   -0.186805
     5  C   -0.152538
     6  C   -0.150847
     7  S    0.115631
     8  C   -0.335823
     9  N   -0.548829
    10  H    0.212771
    11  H    0.156522
    12  H    0.135184
    13  H    0.155096
    14  H    0.153255
    15  H    0.149747
    16  H    0.154560
    17  H    0.219013
 Sum of Mulliken charges =  -0.00000
 Mulliken charges with hydrogens summed into heavy atoms:
               1
     1  N   -0.333906
     2  S    0.442546
     3  C    0.027192
     4  C   -0.030282
     5  C   -0.017353
     6  C    0.004249
     7  S    0.115631
     8  C    0.121740
     9  N   -0.329816
 Electronic spatial extent (au):  <R**2>=           1535.7601
 Charge=             -0.0000 electrons
 Dipole moment (field-independent basis, Debye):
    X=              1.4738    Y=              0.6132    Z=              1.6786  Tot=              2.3164
 Quadrupole moment (field-independent basis, Debye-Ang):
   XX=            -60.8401   YY=            -70.5108   ZZ=            -66.6291
   XY=              4.3751   XZ=             -2.4395   YZ=             -1.3435
 Traceless Quadrupole moment (field-independent basis, Debye-Ang):
   XX=              5.1532   YY=             -4.5175   ZZ=             -0.6358
   XY=              4.3751   XZ=             -2.4395   YZ=             -1.3435
 Octapole moment (field-independent basis, Debye-Ang**2):
  XXX=             18.4759  YYY=              4.8139  ZZZ=             -1.8412  XYY=             10.9622
  XXY=            -19.7250  XXZ=              5.5122  XZZ=            -16.3046  YZZ=              2.8514
  YYZ=              2.3280  XYZ=             -1.7104
 Hexadecapole moment (field-independent basis, Debye-Ang**3):
 XXXX=          -1238.7442 YYYY=           -479.9979 ZZZZ=           -242.2108 XXXY=             49.5671
 XXXZ=             -6.7927 YYYX=             21.6742 YYYZ=             -0.7572 ZZZX=              7.2355
 ZZZY=            -11.5300 XXYY=           -295.7286 XXZZ=           -268.0960 YYZZ=           -122.7100
 XXYZ=              6.7176 YYXZ=             -0.5076 ZZXY=            -11.5131
 N-N= 6.419380123470D+02 E-N=-3.884498394486D+03  KE= 1.097710066705D+03
 Breneman (CHELPG) radii used.
 Read replacement radii for each type of atom:
 Atom Element Radius
    1     7    1.70
    2    16    2.00
    3     6    1.50
    4     6    1.50
    5     6    1.50
    6     6    1.50
    7    16    2.00
    8     6    1.50
    9     7    1.70
   10     1    1.45
   11     1    1.45
   12     1    1.45
   13     1    1.45
   14     1    1.45
   15     1    1.45
   16     1    1.45
   17     1    1.45
 Generate Potential Derived Charges using the Breneman model, NDens= 1.
 Grid spacing= 0.300 Box extension= 2.800
 NStep X,Y,Z=   43     34     33   Total possible points=       48246
 Number of Points to Fit=   12423

 **********************************************************************

            Electrostatic Properties Using The SCF Density.

 **********************************************************************

       Atomic Center    1 is at  -1.488885 -1.480011 -0.651324
       Atomic Center    2 is at  -1.409834 -0.016478 -0.151326
       Atomic Center    3 is at   0.351731  0.172155 -0.076378
       Atomic Center    4 is at   1.006002  1.377902 -0.096249
       Atomic Center    5 is at   2.413679  1.211132 -0.011281
       Atomic Center    6 is at   2.775267 -0.111697  0.070893
       Atomic Center    7 is at   1.422373 -1.165975  0.032729
       Atomic Center    8 is at  -1.869248  0.174089  1.575312
       Atomic Center    9 is at  -2.124629  1.208989 -0.770373
       Atomic Center   10 is at  -2.475126 -1.736216 -0.745649
       Atomic Center   11 is at   0.474910  2.327348 -0.183288
       Atomic Center   12 is at   3.131217  2.032509 -0.019901
       Atomic Center   13 is at   3.783441 -0.521880  0.132196
       Atomic Center   14 is at  -1.339692 -0.600714  2.142679
       Atomic Center   15 is at  -2.956658  0.025243  1.616792
       Atomic Center   16 is at  -1.610088  1.183213  1.916607
       Atomic Center   17 is at  -1.978611  1.165420 -1.783783
   12423 points will be used for fitting atomic charges
 Fitting point charges to electrostatic potential
 Charges from ESP fit, RMS=   0.00316 RRMS=   0.20897:
 ESP charges:
               1
     1  N   -0.751361
     2  S    0.718193
     3  C   -0.030059
     4  C   -0.067736
     5  C   -0.145818
     6  C   -0.200448
     7  S    0.081158
     8  C   -0.262586
     9  N   -0.750190
    10  H    0.330301
    11  H    0.122215
    12  H    0.126057
    13  H    0.182075
    14  H    0.087895
    15  H    0.136394
    16  H    0.108774
    17  H    0.315138
 Sum of ESP charges =  -0.00000
 ESP charges with hydrogens summed into heavy atoms:
               1
     1  N   -0.421059
     2  S    0.718193
     3  C   -0.030059
     4  C    0.054479
     5  C   -0.019762
     6  C   -0.018374
     7  S    0.081158
     8  C    0.070477
     9  N   -0.435053
 Charge=  -0.00000 Dipole=     1.5549     0.5712     1.6904 Tot=     2.3668
 -----------------------------------------------------------------

              Electrostatic Properties (Atomic Units)

 -----------------------------------------------------------------
    Center     Electric         -------- Electric Field --------
               Potential          X             Y             Z
 -----------------------------------------------------------------
    1 Atom    -18.423721
    2 Atom    -59.068258
    3 Atom    -14.715464
    4 Atom    -14.742958
    5 Atom    -14.746986
    6 Atom    -14.724550
    7 Atom    -59.189093
    8 Atom    -14.734673
    9 Atom    -18.423400
   10 Atom     -1.047482
   11 Atom     -1.077173
   12 Atom     -1.081061
   13 Atom     -1.064443
   14 Atom     -1.077217
   15 Atom     -1.073972
   16 Atom     -1.076653
   17 Atom     -1.049644
 -----------------------------------------------------------------
 Unable to Open any file for archive entry.
 1\1\GINC-NOTCH322\SP\RPBE1PBE\def2TZVP\C5H8N2S2\U1414944\10-Feb-2025\0
 \\#N Guess=Read Geom=Check Integral(Ultrafine) Density Pop=(ChelpG,Rea
 dRadii) NMR pbe1pbe EmpiricalDispersion=GD3BJ def2TZVP\\SDI2635_2\\0,1
 \N,0,-1.7604327108,1.0982400302,-0.7096163773\S,0,-1.4115957783,-0.114
 2606055,0.1883424932\C,0,0.357063292,0.0122911366,0.1763936004\C,0,1.1
 822599624,-0.5382461872,1.1241538397\C,0,2.5496886771,-0.2795854636,0.
 841629723\C,0,2.7118982108,0.4549847621,-0.3079224165\S,0,1.2169797934
 ,0.8515360984,-1.0503837282\C,0,-1.6677750851,-1.6985394667,-0.6197958
 547\N,0,-1.9878786268,-0.417396031,1.5925961122\H,0,-2.7786266561,1.15
 42480647,-0.7953629743\H,0,0.7960104555,-1.0878839887,1.9842649687\H,0
 ,3.3796863925,-0.6133891578,1.4655484454\H,0,3.6470263925,0.8027567759
 ,-0.7472526632\H,0,-1.210076085,-1.6367631444,-1.6144573331\H,0,-2.756
 025597,-1.8297079632,-0.6893783613\H,0,-1.226281449,-2.4977211421,-0.0
 128623076\H,0,-1.9487248071,0.4536409253,2.1310948584\\Version=ES64L-G
 16RevC.01\State=1-A\HF=-1100.651869\RMSD=3.548e-09\Dipole=0.6708159,-0
 .5746076,-0.2244959\Quadrupole=4.224901,-2.2841628,-1.9407382,0.836230
 8,2.9685217,2.2429629\PG=C01 [X(C5H8N2S2)]\\@
 The archive entry for this job was punched.


 IT IS BY LOGIC THAT WE PROVE, BUT BY INTUITION THAT WE DISCOVER.
     -- J.H.POINCARE (1854-1912)
 Job cpu time:       0 days  0 hours  8 minutes 58.6 seconds.
 Elapsed time:       0 days  0 hours  0 minutes 36.7 seconds.
 File lengths (MBytes):  RWF=     83 Int=      0 D2E=      0 Chk=     12 Scr=      2
 Normal termination of Gaussian 16 at Mon Feb 10 19:44:15 2025.
