 Entering Gaussian System, Link 0=g16
 Input=SDI0125_3.com
 Output=SDI0125_3.log
 Initial command:
 /uufs/chpc.utah.edu/sys/installdir/gaussian16/C01/AVX/g16/l1.exe "/scratch/general/vast/u1414944/3119880-notchpeak.peaks/Gau-1057942.inp" -scrdir="/scratch/general/vast/u1414944/3119880-notchpeak.peaks/"
 Entering Link 1 = /uufs/chpc.utah.edu/sys/installdir/gaussian16/C01/AVX/g16/l1.exe PID=   1057943.
  
 Copyright (c) 1988-2019, Gaussian, Inc.  All Rights Reserved.
  
 This is part of the Gaussian(R) 16 program.  It is based on
 the Gaussian(R) 09 system (copyright 2009, Gaussian, Inc.),
 the Gaussian(R) 03 system (copyright 2003, Gaussian, Inc.),
 the Gaussian(R) 98 system (copyright 1998, Gaussian, Inc.),
 the Gaussian(R) 94 system (copyright 1995, Gaussian, Inc.),
 the Gaussian 92(TM) system (copyright 1992, Gaussian, Inc.),
 the Gaussian 90(TM) system (copyright 1990, Gaussian, Inc.),
 the Gaussian 88(TM) system (copyright 1988, Gaussian, Inc.),
 the Gaussian 86(TM) system (copyright 1986, Carnegie Mellon
 University), and the Gaussian 82(TM) system (copyright 1983,
 Carnegie Mellon University). Gaussian is a federally registered
 trademark of Gaussian, Inc.
  
 This software contains proprietary and confidential information,
 including trade secrets, belonging to Gaussian, Inc.
  
 This software is provided under written license and may be
 used, copied, transmitted, or stored only in accord with that
 written license.
  
 The following legend is applicable only to US Government
 contracts under FAR:
  
                    RESTRICTED RIGHTS LEGEND
  
 Use, reproduction and disclosure by the US Government is
 subject to restrictions as set forth in subparagraphs (a)
 and (c) of the Commercial Computer Software - Restricted
 Rights clause in FAR 52.227-19.
  
 Gaussian, Inc.
 340 Quinnipiac St., Bldg. 40, Wallingford CT 06492
  
  
 ---------------------------------------------------------------
 Warning -- This program may not be used in any manner that
 competes with the business of Gaussian, Inc. or will provide
 assistance to any competitor of Gaussian, Inc.  The licensee
 of this program is prohibited from giving any competitor of
 Gaussian, Inc. access to this program.  By using this program,
 the user acknowledges that Gaussian, Inc. is engaged in the
 business of creating and licensing software in the field of
 computational chemistry and represents and warrants to the
 licensee that it is not a competitor of Gaussian, Inc. and that
 it will not use this program in any manner prohibited above.
 ---------------------------------------------------------------
  

 Cite this work as:
 Gaussian 16, Revision C.01,
 M. J. Frisch, G. W. Trucks, H. B. Schlegel, G. E. Scuseria, 
 M. A. Robb, J. R. Cheeseman, G. Scalmani, V. Barone, 
 G. A. Petersson, H. Nakatsuji, X. Li, M. Caricato, A. V. Marenich, 
 J. Bloino, B. G. Janesko, R. Gomperts, B. Mennucci, H. P. Hratchian, 
 J. V. Ortiz, A. F. Izmaylov, J. L. Sonnenberg, D. Williams-Young, 
 F. Ding, F. Lipparini, F. Egidi, J. Goings, B. Peng, A. Petrone, 
 T. Henderson, D. Ranasinghe, V. G. Zakrzewski, J. Gao, N. Rega, 
 G. Zheng, W. Liang, M. Hada, M. Ehara, K. Toyota, R. Fukuda, 
 J. Hasegawa, M. Ishida, T. Nakajima, Y. Honda, O. Kitao, H. Nakai, 
 T. Vreven, K. Throssell, J. A. Montgomery, Jr., J. E. Peralta, 
 F. Ogliaro, M. J. Bearpark, J. J. Heyd, E. N. Brothers, K. N. Kudin, 
 V. N. Staroverov, T. A. Keith, R. Kobayashi, J. Normand, 
 K. Raghavachari, A. P. Rendell, J. C. Burant, S. S. Iyengar, 
 J. Tomasi, M. Cossi, J. M. Millam, M. Klene, C. Adamo, R. Cammi, 
 J. W. Ochterski, R. L. Martin, K. Morokuma, O. Farkas, 
 J. B. Foresman, and D. J. Fox, Gaussian, Inc., Wallingford CT, 2019.
 
 ******************************************
 Gaussian 16:  ES64L-G16RevC.01  3-Jul-2019
                10-Feb-2025 
 ******************************************
 %NProcShared=16
 Will use up to   16 processors via shared memory.
 %Mem=40GB
 %chk=SDI0125_3.chk
 ----------------------------------------------------------------------
 #N OPT FREQ=NORAMAN Integral(Ultrafine) pbe1pbe EmpiricalDispersion=GD
 3BJ def2SVP
 ----------------------------------------------------------------------
 1/18=20,19=15,26=4,38=1/1,3;
 2/9=110,12=2,17=6,18=5,40=1/2;
 3/5=43,7=101,11=2,25=1,30=1,71=1,74=-13,75=-5,124=41/1,2,3;
 4//1;
 5/5=2,38=5/2;
 6/7=2,8=2,9=2,10=2,28=1/1;
 7//1,2,3,16;
 1/18=20,19=15,26=4/3(2);
 2/9=110/2;
 99//99;
 2/9=110/2;
 3/5=43,7=101,11=2,25=1,30=1,71=1,74=-13,75=-5,124=41/1,2,3;
 4/5=5,16=3,69=1/1;
 5/5=2,38=5/2;
 7//1,2,3,16;
 1/18=20,19=15,26=4/3(-5);
 2/9=110/2;
 6/7=2,8=2,9=2,10=2,19=2,28=1/1;
 99/9=1/99;
 ---------
 SDI0125_3
 ---------
 Symbolic Z-matrix:
 Charge =  0 Multiplicity = 1
 N                     0.35009  -2.33215   0.23964 
 S                     0.26992  -0.88081   0.75116 
 C                    -1.23524  -0.00772   0.21085 
 C                    -1.16171   0.87067  -0.85469 
 C                    -2.29817   1.52118  -1.30417 
 C                    -3.51153   1.28333  -0.68321 
 C                    -3.58214   0.39264   0.37268 
 C                    -2.45206  -0.27308   0.83475 
 C                    -2.5561   -1.248     1.96197 
 C                     1.56512  -0.08445  -0.23079 
 C                     2.06494  -0.6988   -1.36284 
 C                     3.09647  -0.09035  -2.0585 
 C                     3.61543   1.11619  -1.61485 
 C                     3.11306   1.71799  -0.47113 
 C                     2.08367   1.1128    0.22895 
 N                     0.35753  -0.48597   2.23825 
 H                    -0.09827  -3.00865   0.83487 
 H                    -0.21373   1.05073  -1.3379 
 H                    -2.23234   2.20854  -2.13399 
 H                    -4.40371   1.78776  -1.02358 
 H                    -4.53282   0.20436   0.8506 
 H                    -3.54898  -1.2248    2.40409 
 H                    -1.81029  -1.01177   2.71828 
 H                    -2.35899  -2.25747   1.60097 
 H                     1.64165  -1.64268  -1.66554 
 H                     3.49697  -0.55771  -2.94574 
 H                     4.4199    1.58794  -2.1598 
 H                     3.52514   2.6541   -0.12494 
 H                     1.67272   1.54541   1.12911 
 H                     1.01788  -1.03713   2.76383 
 

 GradGradGradGradGradGradGradGradGradGradGradGradGradGradGradGradGradGrad
 Berny optimization.
 Initialization pass.
                           ----------------------------
                           !    Initial Parameters    !
                           ! (Angstroms and Degrees)  !
 --------------------------                            --------------------------
 ! Name  Definition              Value          Derivative Info.                !
 --------------------------------------------------------------------------------
 ! R1    R(1,2)                  1.5409         estimate D2E/DX2                !
 ! R2    R(1,17)                 1.0065         estimate D2E/DX2                !
 ! R3    R(2,3)                  1.822          estimate D2E/DX2                !
 ! R4    R(2,10)                 1.81           estimate D2E/DX2                !
 ! R5    R(2,16)                 1.5411         estimate D2E/DX2                !
 ! R6    R(3,4)                  1.3829         estimate D2E/DX2                !
 ! R7    R(3,8)                  1.3929         estimate D2E/DX2                !
 ! R8    R(4,5)                  1.3845         estimate D2E/DX2                !
 ! R9    R(4,18)                 1.0792         estimate D2E/DX2                !
 ! R10   R(5,6)                  1.3836         estimate D2E/DX2                !
 ! R11   R(5,19)                 1.0795         estimate D2E/DX2                !
 ! R12   R(6,7)                  1.3832         estimate D2E/DX2                !
 ! R13   R(6,20)                 1.0799         estimate D2E/DX2                !
 ! R14   R(7,8)                  1.3906         estimate D2E/DX2                !
 ! R15   R(7,21)                 1.0806         estimate D2E/DX2                !
 ! R16   R(8,9)                  1.494          estimate D2E/DX2                !
 ! R17   R(9,22)                 1.0871         estimate D2E/DX2                !
 ! R18   R(9,23)                 1.0881         estimate D2E/DX2                !
 ! R19   R(9,24)                 1.09           estimate D2E/DX2                !
 ! R20   R(10,11)                1.3816         estimate D2E/DX2                !
 ! R21   R(10,15)                1.3834         estimate D2E/DX2                !
 ! R22   R(11,12)                1.385          estimate D2E/DX2                !
 ! R23   R(11,25)                1.0778         estimate D2E/DX2                !
 ! R24   R(12,13)                1.3863         estimate D2E/DX2                !
 ! R25   R(12,26)                1.0798         estimate D2E/DX2                !
 ! R26   R(13,14)                1.3866         estimate D2E/DX2                !
 ! R27   R(13,27)                1.0801         estimate D2E/DX2                !
 ! R28   R(14,15)                1.3842         estimate D2E/DX2                !
 ! R29   R(14,28)                1.0798         estimate D2E/DX2                !
 ! R30   R(15,29)                1.08           estimate D2E/DX2                !
 ! R31   R(16,30)                1.008          estimate D2E/DX2                !
 ! A1    A(2,1,17)             114.4303         estimate D2E/DX2                !
 ! A2    A(1,2,3)              113.3204         estimate D2E/DX2                !
 ! A3    A(1,2,10)             101.3668         estimate D2E/DX2                !
 ! A4    A(1,2,16)             123.9638         estimate D2E/DX2                !
 ! A5    A(3,2,10)             102.6757         estimate D2E/DX2                !
 ! A6    A(3,2,16)             102.1423         estimate D2E/DX2                !
 ! A7    A(10,2,16)            111.7215         estimate D2E/DX2                !
 ! A8    A(2,3,4)              119.2711         estimate D2E/DX2                !
 ! A9    A(2,3,8)              119.8367         estimate D2E/DX2                !
 ! A10   A(4,3,8)              120.8355         estimate D2E/DX2                !
 ! A11   A(3,4,5)              120.3289         estimate D2E/DX2                !
 ! A12   A(3,4,18)             119.8489         estimate D2E/DX2                !
 ! A13   A(5,4,18)             119.8222         estimate D2E/DX2                !
 ! A14   A(4,5,6)              119.5628         estimate D2E/DX2                !
 ! A15   A(4,5,19)             119.912          estimate D2E/DX2                !
 ! A16   A(6,5,19)             120.5252         estimate D2E/DX2                !
 ! A17   A(5,6,7)              119.8715         estimate D2E/DX2                !
 ! A18   A(5,6,20)             120.1812         estimate D2E/DX2                !
 ! A19   A(7,6,20)             119.9468         estimate D2E/DX2                !
 ! A20   A(6,7,8)              121.3622         estimate D2E/DX2                !
 ! A21   A(6,7,21)             119.6524         estimate D2E/DX2                !
 ! A22   A(8,7,21)             118.9852         estimate D2E/DX2                !
 ! A23   A(3,8,7)              118.0256         estimate D2E/DX2                !
 ! A24   A(3,8,9)              121.5407         estimate D2E/DX2                !
 ! A25   A(7,8,9)              120.4325         estimate D2E/DX2                !
 ! A26   A(8,9,22)             110.8877         estimate D2E/DX2                !
 ! A27   A(8,9,23)             109.574          estimate D2E/DX2                !
 ! A28   A(8,9,24)             109.9902         estimate D2E/DX2                !
 ! A29   A(22,9,23)            109.7965         estimate D2E/DX2                !
 ! A30   A(22,9,24)            108.639          estimate D2E/DX2                !
 ! A31   A(23,9,24)            107.8964         estimate D2E/DX2                !
 ! A32   A(2,10,11)            120.5149         estimate D2E/DX2                !
 ! A33   A(2,10,15)            117.9528         estimate D2E/DX2                !
 ! A34   A(11,10,15)           121.4363         estimate D2E/DX2                !
 ! A35   A(10,11,12)           119.0554         estimate D2E/DX2                !
 ! A36   A(10,11,25)           118.5189         estimate D2E/DX2                !
 ! A37   A(12,11,25)           122.4224         estimate D2E/DX2                !
 ! A38   A(11,12,13)           120.027          estimate D2E/DX2                !
 ! A39   A(11,12,26)           119.9208         estimate D2E/DX2                !
 ! A40   A(13,12,26)           120.0521         estimate D2E/DX2                !
 ! A41   A(12,13,14)           120.4026         estimate D2E/DX2                !
 ! A42   A(12,13,27)           119.832          estimate D2E/DX2                !
 ! A43   A(14,13,27)           119.7644         estimate D2E/DX2                !
 ! A44   A(13,14,15)           119.7924         estimate D2E/DX2                !
 ! A45   A(13,14,28)           120.1617         estimate D2E/DX2                !
 ! A46   A(15,14,28)           120.0456         estimate D2E/DX2                !
 ! A47   A(10,15,14)           119.2798         estimate D2E/DX2                !
 ! A48   A(10,15,29)           118.754          estimate D2E/DX2                !
 ! A49   A(14,15,29)           121.9658         estimate D2E/DX2                !
 ! A50   A(2,16,30)            113.596          estimate D2E/DX2                !
 ! D1    D(17,1,2,3)           -87.6511         estimate D2E/DX2                !
 ! D2    D(17,1,2,10)          163.056          estimate D2E/DX2                !
 ! D3    D(17,1,2,16)           36.8587         estimate D2E/DX2                !
 ! D4    D(1,2,3,4)           -100.5132         estimate D2E/DX2                !
 ! D5    D(1,2,3,8)             76.7736         estimate D2E/DX2                !
 ! D6    D(10,2,3,4)             7.965          estimate D2E/DX2                !
 ! D7    D(10,2,3,8)          -174.7482         estimate D2E/DX2                !
 ! D8    D(16,2,3,4)           123.8402         estimate D2E/DX2                !
 ! D9    D(16,2,3,8)           -58.873          estimate D2E/DX2                !
 ! D10   D(1,2,10,11)           16.5257         estimate D2E/DX2                !
 ! D11   D(1,2,10,15)         -159.962          estimate D2E/DX2                !
 ! D12   D(3,2,10,11)         -100.803          estimate D2E/DX2                !
 ! D13   D(3,2,10,15)           82.7093         estimate D2E/DX2                !
 ! D14   D(16,2,10,11)         150.4327         estimate D2E/DX2                !
 ! D15   D(16,2,10,15)         -26.055          estimate D2E/DX2                !
 ! D16   D(1,2,16,30)           37.9147         estimate D2E/DX2                !
 ! D17   D(3,2,16,30)          167.1978         estimate D2E/DX2                !
 ! D18   D(10,2,16,30)         -83.6958         estimate D2E/DX2                !
 ! D19   D(2,3,4,5)            178.4316         estimate D2E/DX2                !
 ! D20   D(2,3,4,18)            -1.6168         estimate D2E/DX2                !
 ! D21   D(8,3,4,5)              1.1726         estimate D2E/DX2                !
 ! D22   D(8,3,4,18)          -178.8757         estimate D2E/DX2                !
 ! D23   D(2,3,8,7)           -178.5971         estimate D2E/DX2                !
 ! D24   D(2,3,8,9)              1.0125         estimate D2E/DX2                !
 ! D25   D(4,3,8,7)             -1.3536         estimate D2E/DX2                !
 ! D26   D(4,3,8,9)            178.256          estimate D2E/DX2                !
 ! D27   D(3,4,5,6)             -0.2382         estimate D2E/DX2                !
 ! D28   D(3,4,5,19)           179.754          estimate D2E/DX2                !
 ! D29   D(18,4,5,6)           179.8101         estimate D2E/DX2                !
 ! D30   D(18,4,5,19)           -0.1977         estimate D2E/DX2                !
 ! D31   D(4,5,6,7)             -0.4722         estimate D2E/DX2                !
 ! D32   D(4,5,6,20)           179.8005         estimate D2E/DX2                !
 ! D33   D(19,5,6,7)           179.5356         estimate D2E/DX2                !
 ! D34   D(19,5,6,20)           -0.1916         estimate D2E/DX2                !
 ! D35   D(5,6,7,8)              0.2649         estimate D2E/DX2                !
 ! D36   D(5,6,7,21)          -179.5754         estimate D2E/DX2                !
 ! D37   D(20,6,7,8)           179.9928         estimate D2E/DX2                !
 ! D38   D(20,6,7,21)            0.1525         estimate D2E/DX2                !
 ! D39   D(6,7,8,3)              0.639          estimate D2E/DX2                !
 ! D40   D(6,7,8,9)           -178.9751         estimate D2E/DX2                !
 ! D41   D(21,7,8,3)          -179.5196         estimate D2E/DX2                !
 ! D42   D(21,7,8,9)             0.8663         estimate D2E/DX2                !
 ! D43   D(3,8,9,22)           172.4827         estimate D2E/DX2                !
 ! D44   D(3,8,9,23)            51.1215         estimate D2E/DX2                !
 ! D45   D(3,8,9,24)           -67.3292         estimate D2E/DX2                !
 ! D46   D(7,8,9,22)            -7.917          estimate D2E/DX2                !
 ! D47   D(7,8,9,23)          -129.2781         estimate D2E/DX2                !
 ! D48   D(7,8,9,24)           112.2711         estimate D2E/DX2                !
 ! D49   D(2,10,11,12)        -177.181          estimate D2E/DX2                !
 ! D50   D(2,10,11,25)           2.1799         estimate D2E/DX2                !
 ! D51   D(15,10,11,12)         -0.8174         estimate D2E/DX2                !
 ! D52   D(15,10,11,25)        178.5435         estimate D2E/DX2                !
 ! D53   D(2,10,15,14)         177.3803         estimate D2E/DX2                !
 ! D54   D(2,10,15,29)          -2.3901         estimate D2E/DX2                !
 ! D55   D(11,10,15,14)          0.9267         estimate D2E/DX2                !
 ! D56   D(11,10,15,29)       -178.8437         estimate D2E/DX2                !
 ! D57   D(10,11,12,13)          0.1688         estimate D2E/DX2                !
 ! D58   D(10,11,12,26)       -179.9339         estimate D2E/DX2                !
 ! D59   D(25,11,12,13)       -179.1659         estimate D2E/DX2                !
 ! D60   D(25,11,12,26)          0.7314         estimate D2E/DX2                !
 ! D61   D(11,12,13,14)          0.3567         estimate D2E/DX2                !
 ! D62   D(11,12,13,27)        179.9987         estimate D2E/DX2                !
 ! D63   D(26,12,13,14)       -179.5405         estimate D2E/DX2                !
 ! D64   D(26,12,13,27)          0.1015         estimate D2E/DX2                !
 ! D65   D(12,13,14,15)         -0.2476         estimate D2E/DX2                !
 ! D66   D(12,13,14,28)        179.544          estimate D2E/DX2                !
 ! D67   D(27,13,14,15)       -179.8898         estimate D2E/DX2                !
 ! D68   D(27,13,14,28)         -0.0982         estimate D2E/DX2                !
 ! D69   D(13,14,15,10)         -0.3839         estimate D2E/DX2                !
 ! D70   D(13,14,15,29)        179.3788         estimate D2E/DX2                !
 ! D71   D(28,14,15,10)        179.8243         estimate D2E/DX2                !
 ! D72   D(28,14,15,29)         -0.413          estimate D2E/DX2                !
 --------------------------------------------------------------------------------
 Trust Radius=3.00D-01 FncErr=1.00D-07 GrdErr=1.00D-06 EigMax=2.50D+02 EigMin=1.00D-04
 Number of steps in this run=    163 maximum allowed number of steps=    180.
 GradGradGradGradGradGradGradGradGradGradGradGradGradGradGradGradGradGrad

                          Input orientation:                          
 ---------------------------------------------------------------------
 Center     Atomic      Atomic             Coordinates (Angstroms)
 Number     Number       Type             X           Y           Z
 ---------------------------------------------------------------------
      1          7           0        0.350088   -2.332150    0.239645
      2         16           0        0.269918   -0.880814    0.751155
      3          6           0       -1.235242   -0.007724    0.210849
      4          6           0       -1.161705    0.870667   -0.854687
      5          6           0       -2.298174    1.521183   -1.304174
      6          6           0       -3.511535    1.283333   -0.683211
      7          6           0       -3.582139    0.392644    0.372677
      8          6           0       -2.452056   -0.273085    0.834752
      9          6           0       -2.556102   -1.248001    1.961969
     10          6           0        1.565122   -0.084446   -0.230787
     11          6           0        2.064942   -0.698801   -1.362843
     12          6           0        3.096468   -0.090352   -2.058504
     13          6           0        3.615425    1.116189   -1.614852
     14          6           0        3.113059    1.717987   -0.471129
     15          6           0        2.083673    1.112803    0.228949
     16          7           0        0.357527   -0.485972    2.238248
     17          1           0       -0.098268   -3.008651    0.834867
     18          1           0       -0.213730    1.050727   -1.337903
     19          1           0       -2.232336    2.208539   -2.133995
     20          1           0       -4.403713    1.787756   -1.023576
     21          1           0       -4.532822    0.204357    0.850598
     22          1           0       -3.548976   -1.224798    2.404090
     23          1           0       -1.810290   -1.011770    2.718283
     24          1           0       -2.358993   -2.257470    1.600968
     25          1           0        1.641651   -1.642681   -1.665538
     26          1           0        3.496966   -0.557705   -2.945740
     27          1           0        4.419902    1.587935   -2.159800
     28          1           0        3.525145    2.654104   -0.124942
     29          1           0        1.672719    1.545409    1.129110
     30          1           0        1.017875   -1.037130    2.763830
 ---------------------------------------------------------------------
                    Distance matrix (angstroms):
                    1          2          3          4          5
     1  N    0.000000
     2  S    1.540924   0.000000
     3  C    2.813727   1.822011   0.000000
     4  C    3.706902   2.774160   1.382875   0.000000
     5  C    4.923906   4.072968   2.400557   1.384475   0.000000
     6  C    5.369871   4.586974   2.765444   2.391944   1.383622
     7  C    4.785877   4.074713   2.386297   2.755618   2.394577
     8  C    3.527877   2.790245   1.392950   2.413996   2.796083
     9  C    3.547918   3.096334   2.519798   3.790336   4.289825
    10  C    2.598036   1.809964   2.836012   2.955855   4.319174
    11  C    2.859461   2.779249   3.720928   3.623907   4.895769
    12  C    4.224897   4.063054   4.890859   4.528220   5.680513
    13  C    5.098296   4.558336   5.303332   4.843460   5.935588
    14  C    4.954071   4.041188   4.727673   4.374778   5.478517
    15  C    3.856571   2.745345   3.503014   3.430070   4.660239
    16  N    2.720817   1.541110   2.622209   3.703347   4.861087
    17  H    1.006462   2.161078   3.269201   4.362867   5.471241
    18  H    3.774971   2.885989   2.135986   1.079156   2.137142
    19  H    5.737677   4.912176   3.377027   2.138406   1.079535
    20  H    6.416228   5.666901   3.845356   3.373454   2.140815
    21  H    5.536240   4.924815   3.365753   3.836195   3.372050
    22  H    4.594971   4.175461   3.412469   4.550787   4.780809
    23  H    3.543202   2.866008   2.761524   4.090274   4.778498
    24  H    3.032804   3.086833   2.873431   4.153189   4.766735
    25  H    2.402754   2.881406   3.804002   3.851390   5.065851
    26  H    4.816448   4.917852   5.714921   5.302449   6.371826
    27  H    6.139038   5.638329   6.336146   5.776862   6.772673
    28  H    5.922554   4.884639   5.464372   5.067518   6.048566
    29  H    4.192370   2.827943   3.422230   3.524867   4.657193
    30  H    2.914537   2.152843   3.557235   4.635075   5.838647
                    6          7          8          9         10
     6  C    0.000000
     7  C    1.383190   0.000000
     8  C    2.418501   1.390610   0.000000
     9  C    3.783846   2.504060   1.493956   0.000000
    10  C    5.277116   5.204429   4.160370   4.811084   0.000000
    11  C    5.957168   6.007729   5.041223   5.719269   1.381594
    12  C    6.887971   7.123744   6.260227   7.032489   2.384451
    13  C    7.189537   7.501915   6.689168   7.514704   2.749709
    14  C    6.642225   6.877080   6.053115   6.845176   2.388019
    15  C    5.671637   5.713206   4.781268   5.486735   1.383350
    16  N    5.160911   4.446716   3.147837   3.024276   2.777705
    17  H    5.689999   4.890786   3.608829   3.226639   3.528947
    18  H    3.370199   3.834754   3.388659   4.654032   2.382989
    19  H    2.144091   3.376811   3.875589   5.369303   4.827076
    20  H    1.079941   2.137954   3.392553   4.641441   6.305605
    21  H    2.135367   1.080582   2.134898   2.692938   6.199817
    22  H    3.977884   2.596893   2.138180   1.087111   5.864894
    23  H    4.442060   3.257867   2.122548   1.088141   4.577155
    24  H    4.368423   3.166684   2.129209   1.090047   4.845208
    25  H    6.006817   5.965305   4.988555   5.561988   2.119543
    26  H    7.591280   7.875836   7.054359   7.823154   3.365555
    27  H    8.073461   8.477902   7.723635   8.584645   3.829845
    28  H    7.190656   7.474979   6.724312   7.520850   3.369354
    29  H    5.498152   5.432733   4.517448   5.136119   2.125400
    30  H    6.146722   5.377917   4.042960   3.668890   3.189799
                   11         12         13         14         15
    11  C    0.000000
    12  C    1.384992   0.000000
    13  C    2.400353   1.386320   0.000000
    14  C    2.781109   2.406267   1.386590   0.000000
    15  C    2.411651   2.775928   2.397056   1.384194   0.000000
    16  N    3.991042   5.110812   5.294072   4.448721   3.094018
    17  H    3.852897   5.205229   6.066873   5.861685   4.702594
    18  H    2.872946   3.574736   3.839715   3.502008   2.781535
    19  H    5.245369   5.804029   5.971520   5.619521   5.041039
    20  H    6.938412   7.800711   8.068903   7.537369   6.641578
    21  H    7.017514   8.170423   8.561765   7.905539   6.707439
    22  H    6.781042   8.084779   8.541707   7.830044   6.474748
    23  H    5.636573   6.909630   7.262413   6.470185   5.086604
    24  H    5.548407   6.917384   7.577384   7.073981   5.742688
    25  H    1.077826   2.163479   3.392597   3.858204   3.373004
    26  H    2.139197   1.079817   2.141779   3.383763   3.855729
    27  H    3.377890   2.139716   1.080137   2.139242   3.374883
    28  H    3.860902   3.384445   2.143167   1.079804   2.139787
    29  H    3.376410   3.855342   3.389346   2.159891   1.079963
    30  H    4.270860   5.335902   5.527829   4.737660   3.490524
                   16         17         18         19         20
    16  N    0.000000
    17  H    2.922523   0.000000
    18  H    3.934035   4.605737   0.000000
    19  H    5.751894   6.370829   2.459484   0.000000
    20  H    6.203123   6.707921   4.265908   2.474867   0.000000
    21  H    5.130072   5.476216   4.915327   4.268112   2.456899
    22  H    3.979213   4.189509   5.504943   5.840853   4.642732
    23  H    2.281737   3.235090   4.822400   5.838931   5.344596
    24  H    3.305119   2.502412   4.917651   5.823335   5.237649
    25  H    4.269250   3.338446   3.286979   5.482620   6.980433
    26  H    6.060937   5.764185   4.352179   6.413730   8.462661
    27  H    6.336150   7.107073   4.736523   6.681174   8.898714
    28  H    5.047628   6.790961   4.245147   6.114197   8.026512
    29  H    2.662034   4.895144   3.144765   5.131963   6.451032
    30  H    1.008004   2.975495   4.764474   6.714680   7.191526
                   21         22         23         24         25
    21  H    0.000000
    22  H    2.328900   0.000000
    23  H    3.518436   1.779643   0.000000
    24  H    3.368854   1.768467   1.761033   0.000000
    25  H    6.918571   6.609018   5.615321   5.201268   0.000000
    26  H    8.914618   8.871922   7.775236   7.606182   2.501655
    27  H    9.546101   9.604352   8.328832   8.653550   4.289505
    28  H    8.478430   8.454885   7.070320   7.856552   4.937950
    29  H    6.354898   6.046960   4.603910   5.562305   4.239686
    30  H    6.000999   4.584841   2.828645   3.774218   4.513878
                   26         27         28         29         30
    26  H    0.000000
    27  H    2.464404   0.000000
    28  H    4.274742   2.465351   0.000000
    29  H    4.935116   4.285528   2.496664   0.000000
    30  H    6.242990   6.535050   5.315695   3.125801   0.000000
 Stoichiometry    C13H14N2S
 Framework group  C1[X(C13H14N2S)]
 Deg. of freedom    84
 Full point group                 C1      NOp   1
 Largest Abelian subgroup         C1      NOp   1
 Largest concise Abelian subgroup C1      NOp   1
                         Standard orientation:                         
 ---------------------------------------------------------------------
 Center     Atomic      Atomic             Coordinates (Angstroms)
 Number     Number       Type             X           Y           Z
 ---------------------------------------------------------------------
      1          7           0        0.097819   -1.920048   -1.391703
      2         16           0        0.001013   -1.189917   -0.038196
      3          6           0       -1.228726    0.154480   -0.030207
      4          6           0       -0.801690    1.462286   -0.170302
      5          6           0       -1.719779    2.498150   -0.199769
      6          6           0       -3.070248    2.216647   -0.093005
      7          6           0       -3.492879    0.905567    0.032164
      8          6           0       -2.585522   -0.147888    0.059175
      9          6           0       -3.066171   -1.557892    0.172181
     10          6           0        1.571884   -0.291480   -0.004372
     11          6           0        2.305437   -0.117210   -1.162100
     12          6           0        3.531283    0.523522   -1.091633
     13          6           0        4.008077    0.976650    0.128706
     14          6           0        3.267940    0.786368    1.285695
     15          6           0        2.043229    0.144590    1.220917
     16          7           0       -0.281438   -1.895562    1.302441
     17          1           0       -0.546742   -2.685588   -1.498740
     18          1           0        0.252424    1.676814   -0.256324
     19          1           0       -1.378718    3.516931   -0.305408
     20          1           0       -3.794845    3.017202   -0.111581
     21          1           0       -4.548837    0.689227    0.108370
     22          1           0       -4.135963   -1.588595    0.363002
     23          1           0       -2.533724   -2.061175    0.976703
     24          1           0       -2.861740   -2.096571   -0.753149
     25          1           0        1.903932   -0.496397   -2.087691
     26          1           0        4.115757    0.668149   -1.988001
     27          1           0        4.964523    1.475922    0.180036
     28          1           0        3.646408    1.134365    2.235241
     29          1           0        1.442446   -0.030912    2.101019
     30          1           0        0.167190   -2.794183    1.387794
 ---------------------------------------------------------------------
 Rotational constants (GHZ):           0.8869257           0.3597717           0.2998869
 Standard basis: def2SVP (5D, 7F)
 There are   314 symmetry adapted cartesian basis functions of A   symmetry.
 There are   298 symmetry adapted basis functions of A   symmetry.
   298 basis functions,   510 primitive gaussians,   314 cartesian basis functions
    61 alpha electrons       61 beta electrons
       nuclear repulsion energy      1204.2139811301 Hartrees.
 NAtoms=   30 NActive=   30 NUniq=   30 SFac= 1.00D+00 NAtFMM=   60 NAOKFM=F Big=F
 Integral buffers will be    131072 words long.
 Raffenetti 2 integral format.
 Two-electron integral symmetry is turned on.
 Nuclear repulsion after empirical dispersion term =     1204.1752812923 Hartrees.
 One-electron integrals computed using PRISM.
   1 Symmetry operations used in ECPInt.
 ECPInt:  NShTT=    9870 NPrTT=   36306 LenC2=    9353 LenP2D=   24834.
 LDataN:  DoStor=T MaxTD1= 4 Len=   56
 NBasis=   298 RedAO= T EigKep=  2.29D-04  NBF=   298
 NBsUse=   298 1.00D-06 EigRej= -1.00D+00 NBFU=   298
 ExpMin= 1.22D-01 ExpMax= 9.18D+03 ExpMxC= 1.38D+03 IAcc=3 IRadAn=         5 AccDes= 0.00D+00
 Harris functional with IExCor= 1009 and IRadAn=       5 diagonalized for initial guess.
 HarFok:  IExCor= 1009 AccDes= 0.00D+00 IRadAn=         5 IDoV= 1 UseB2=F ITyADJ=14
 ICtDFT=  3500011 ScaDFX=  1.000000  1.000000  1.000000  1.000000
 FoFCou: FMM=F IPFlag=           0 FMFlag=      100000 FMFlg1=           0
         NFxFlg=           0 DoJE=T BraDBF=F KetDBF=T FulRan=T
         wScrn=  0.000000 ICntrl=       500 IOpCl=  0 I1Cent=   200000004 NGrid=           0
         NMat0=    1 NMatS0=      1 NMatT0=    0 NMatD0=    1 NMtDS0=    0 NMtDT0=    0
 Petite list used in FoFCou.
 Requested convergence on RMS density matrix=1.00D-08 within 128 cycles.
 Requested convergence on MAX density matrix=1.00D-06.
 Requested convergence on             energy=1.00D-06.
 No special actions if energy rises.
 Integral accuracy reduced to 1.0D-05 until final iterations.
 Initial convergence to 1.0D-05 achieved.  Increase integral accuracy.
 SCF Done:  E(RPBE1PBE) =  -1009.97863507     A.U. after   14 cycles
            NFock= 14  Conv=0.78D-08     -V/T= 2.0067

 **********************************************************************

            Population analysis using the SCF Density.

 **********************************************************************

 Orbital symmetries:
       Occupied  (A) (A) (A) (A) (A) (A) (A) (A) (A) (A) (A) (A)
                 (A) (A) (A) (A) (A) (A) (A) (A) (A) (A) (A) (A)
                 (A) (A) (A) (A) (A) (A) (A) (A) (A) (A) (A) (A)
                 (A) (A) (A) (A) (A) (A) (A) (A) (A) (A) (A) (A)
                 (A) (A) (A) (A) (A) (A) (A) (A) (A) (A) (A) (A)
                 (A)
       Virtual   (A) (A) (A) (A) (A) (A) (A) (A) (A) (A) (A) (A)
                 (A) (A) (A) (A) (A) (A) (A) (A) (A) (A) (A) (A)
                 (A) (A) (A) (A) (A) (A) (A) (A) (A) (A) (A) (A)
                 (A) (A) (A) (A) (A) (A) (A) (A) (A) (A) (A) (A)
                 (A) (A) (A) (A) (A) (A) (A) (A) (A) (A) (A) (A)
                 (A) (A) (A) (A) (A) (A) (A) (A) (A) (A) (A) (A)
                 (A) (A) (A) (A) (A) (A) (A) (A) (A) (A) (A) (A)
                 (A) (A) (A) (A) (A) (A) (A) (A) (A) (A) (A) (A)
                 (A) (A) (A) (A) (A) (A) (A) (A) (A) (A) (A) (A)
                 (A) (A) (A) (A) (A) (A) (A) (A) (A) (A) (A) (A)
                 (A) (A) (A) (A) (A) (A) (A) (A) (A) (A) (A) (A)
                 (A) (A) (A) (A) (A) (A) (A) (A) (A) (A) (A) (A)
                 (A) (A) (A) (A) (A) (A) (A) (A) (A) (A) (A) (A)
                 (A) (A) (A) (A) (A) (A) (A) (A) (A) (A) (A) (A)
                 (A) (A) (A) (A) (A) (A) (A) (A) (A) (A) (A) (A)
                 (A) (A) (A) (A) (A) (A) (A) (A) (A) (A) (A) (A)
                 (A) (A) (A) (A) (A) (A) (A) (A) (A) (A) (A) (A)
                 (A) (A) (A) (A) (A) (A) (A) (A) (A) (A) (A) (A)
                 (A) (A) (A) (A) (A) (A) (A) (A) (A) (A) (A) (A)
                 (A) (A) (A) (A) (A) (A) (A) (A) (A)
 The electronic state is 1-A.
 Alpha  occ. eigenvalues --  -89.18439 -14.34412 -14.34345 -10.26408 -10.26055
 Alpha  occ. eigenvalues --  -10.25570 -10.25212 -10.25083 -10.24939 -10.24855
 Alpha  occ. eigenvalues --  -10.24794 -10.24639 -10.24274 -10.24080 -10.23972
 Alpha  occ. eigenvalues --  -10.22164  -8.15736  -6.09876  -6.09778  -6.09752
 Alpha  occ. eigenvalues --   -1.00501  -0.89501  -0.89208  -0.85036  -0.80044
 Alpha  occ. eigenvalues --   -0.79197  -0.77874  -0.77642  -0.71094  -0.68134
 Alpha  occ. eigenvalues --   -0.64071  -0.63701  -0.61390  -0.59621  -0.55945
 Alpha  occ. eigenvalues --   -0.53429  -0.52324  -0.50015  -0.48527  -0.47697
 Alpha  occ. eigenvalues --   -0.47246  -0.45846  -0.45612  -0.44913  -0.43843
 Alpha  occ. eigenvalues --   -0.42954  -0.40284  -0.40049  -0.38549  -0.38007
 Alpha  occ. eigenvalues --   -0.37515  -0.36977  -0.36253  -0.34511  -0.29034
 Alpha  occ. eigenvalues --   -0.28931  -0.27999  -0.26657  -0.26456  -0.25210
 Alpha  occ. eigenvalues --   -0.23498
 Alpha virt. eigenvalues --   -0.03159  -0.02129  -0.01842  -0.00267   0.06226
 Alpha virt. eigenvalues --    0.06767   0.08048   0.09003   0.09786   0.10224
 Alpha virt. eigenvalues --    0.10671   0.11443   0.12519   0.13508   0.14419
 Alpha virt. eigenvalues --    0.15513   0.15896   0.16361   0.16544   0.17300
 Alpha virt. eigenvalues --    0.18455   0.18590   0.19248   0.23506   0.24725
 Alpha virt. eigenvalues --    0.28208   0.29280   0.29648   0.30071   0.30269
 Alpha virt. eigenvalues --    0.31825   0.33181   0.33497   0.35615   0.38570
 Alpha virt. eigenvalues --    0.39482   0.40848   0.41235   0.41798   0.42670
 Alpha virt. eigenvalues --    0.43324   0.44126   0.45395   0.46300   0.47441
 Alpha virt. eigenvalues --    0.47743   0.48674   0.49748   0.50449   0.50846
 Alpha virt. eigenvalues --    0.51104   0.51897   0.52531   0.53454   0.54330
 Alpha virt. eigenvalues --    0.56802   0.57572   0.58107   0.59760   0.60553
 Alpha virt. eigenvalues --    0.60918   0.63445   0.63932   0.64822   0.65443
 Alpha virt. eigenvalues --    0.65840   0.66675   0.67124   0.67421   0.67912
 Alpha virt. eigenvalues --    0.68798   0.69291   0.70561   0.71366   0.71758
 Alpha virt. eigenvalues --    0.72192   0.73079   0.74140   0.74585   0.74658
 Alpha virt. eigenvalues --    0.75356   0.75718   0.76463   0.77017   0.77528
 Alpha virt. eigenvalues --    0.78577   0.79108   0.80926   0.82710   0.83918
 Alpha virt. eigenvalues --    0.86384   0.87077   0.87378   0.87590   0.88026
 Alpha virt. eigenvalues --    0.91372   0.93717   0.94729   0.97459   0.97855
 Alpha virt. eigenvalues --    0.99699   1.00080   1.01373   1.04510   1.06508
 Alpha virt. eigenvalues --    1.09086   1.12084   1.15375   1.16151   1.16720
 Alpha virt. eigenvalues --    1.19587   1.19946   1.20703   1.21809   1.23520
 Alpha virt. eigenvalues --    1.24350   1.24642   1.25330   1.26190   1.28094
 Alpha virt. eigenvalues --    1.28860   1.29991   1.30666   1.31502   1.34006
 Alpha virt. eigenvalues --    1.34855   1.37714   1.40606   1.46037   1.47336
 Alpha virt. eigenvalues --    1.53050   1.54370   1.55562   1.56152   1.58732
 Alpha virt. eigenvalues --    1.60927   1.63033   1.67495   1.67692   1.68303
 Alpha virt. eigenvalues --    1.70191   1.71989   1.72086   1.72871   1.73289
 Alpha virt. eigenvalues --    1.74670   1.75781   1.76131   1.76271   1.77380
 Alpha virt. eigenvalues --    1.77563   1.78172   1.78806   1.81016   1.82309
 Alpha virt. eigenvalues --    1.83310   1.84639   1.85092   1.86157   1.88449
 Alpha virt. eigenvalues --    1.91338   1.92930   1.93651   1.95748   1.96305
 Alpha virt. eigenvalues --    1.97293   1.97916   1.99573   2.00479   2.01685
 Alpha virt. eigenvalues --    2.03213   2.04586   2.08407   2.09904   2.11625
 Alpha virt. eigenvalues --    2.12107   2.14763   2.15091   2.16166   2.16765
 Alpha virt. eigenvalues --    2.17191   2.22117   2.24037   2.25491   2.26792
 Alpha virt. eigenvalues --    2.28424   2.30183   2.30597   2.31636   2.31708
 Alpha virt. eigenvalues --    2.32508   2.33688   2.34939   2.36301   2.36892
 Alpha virt. eigenvalues --    2.37938   2.42908   2.43803   2.49144   2.50524
 Alpha virt. eigenvalues --    2.54305   2.55416   2.56467   2.57955   2.60173
 Alpha virt. eigenvalues --    2.61735   2.62981   2.63725   2.65322   2.66297
 Alpha virt. eigenvalues --    2.66373   2.66630   2.67537   2.76163   2.76257
 Alpha virt. eigenvalues --    2.77163   2.79814   2.84593   2.86462   2.87413
 Alpha virt. eigenvalues --    2.89868   2.89972   2.92414   2.93352   2.97941
 Alpha virt. eigenvalues --    2.98927   3.00393   3.06793   3.07130   3.13396
 Alpha virt. eigenvalues --    3.16351   3.24360   3.25486   3.29526   3.33277
 Alpha virt. eigenvalues --    3.63533   3.66207
          Condensed to atoms (all electrons):
               1          2          3          4          5          6
     1  N    6.847311   0.366826  -0.025639   0.000113  -0.000079  -0.000029
     2  S    0.366826  14.776073   0.147108  -0.036981   0.006442   0.000098
     3  C   -0.025639   0.147108   5.667554   0.314925   0.099535  -0.182118
     4  C    0.000113  -0.036981   0.314925   4.993403   0.297640   0.095661
     5  C   -0.000079   0.006442   0.099535   0.297640   5.098012   0.254130
     6  C   -0.000029   0.000098  -0.182118   0.095661   0.254130   5.108821
     7  C   -0.000150   0.002980   0.066839  -0.128080   0.090214   0.272335
     8  C   -0.011876  -0.034537   0.202903   0.078295  -0.159128   0.106013
     9  C   -0.004324  -0.015999  -0.085513   0.009228  -0.000125   0.012958
    10  C   -0.095718   0.119648  -0.083232  -0.013055  -0.002150   0.000002
    11  C   -0.000612  -0.031551  -0.000688  -0.000633   0.000017  -0.000022
    12  C    0.001504   0.006106  -0.000630   0.000070   0.000014   0.000000
    13  C   -0.000031   0.000119  -0.000081   0.000214  -0.000003  -0.000000
    14  C   -0.000081   0.003502  -0.000455  -0.000451  -0.000016  -0.000000
    15  C    0.006723  -0.066040   0.002274  -0.004114  -0.000082  -0.000048
    16  N   -0.041741   0.347543  -0.068238  -0.000481  -0.000090  -0.000037
    17  H    0.339795  -0.015061  -0.005740  -0.000416   0.000009   0.000002
    18  H    0.000544  -0.023860  -0.059124   0.455196  -0.072414   0.015446
    19  H    0.000003  -0.000160   0.018009  -0.070698   0.454924  -0.075951
    20  H   -0.000000   0.000023  -0.001516   0.015160  -0.073408   0.451047
    21  H    0.000007  -0.000131   0.020673  -0.002035   0.015049  -0.074020
    22  H    0.000097   0.000141   0.011747  -0.000472  -0.000014   0.000720
    23  H    0.000049   0.004956  -0.013404  -0.000557   0.000132  -0.000514
    24  H    0.006719   0.009629  -0.008463  -0.000850   0.000215  -0.000812
    25  H    0.031190  -0.014238   0.000881   0.000410  -0.000018   0.000001
    26  H   -0.000022  -0.000162   0.000015  -0.000020  -0.000001   0.000000
    27  H    0.000000   0.000022   0.000000  -0.000001   0.000000   0.000000
    28  H    0.000002  -0.000180   0.000016  -0.000016  -0.000001   0.000000
    29  H    0.000721  -0.010691   0.002429  -0.000384  -0.000060  -0.000005
    30  H   -0.001119  -0.007697   0.007174  -0.000064   0.000001   0.000006
               7          8          9         10         11         12
     1  N   -0.000150  -0.011876  -0.004324  -0.095718  -0.000612   0.001504
     2  S    0.002980  -0.034537  -0.015999   0.119648  -0.031551   0.006106
     3  C    0.066839   0.202903  -0.085513  -0.083232  -0.000688  -0.000630
     4  C   -0.128080   0.078295   0.009228  -0.013055  -0.000633   0.000070
     5  C    0.090214  -0.159128  -0.000125  -0.002150   0.000017   0.000014
     6  C    0.272335   0.106013   0.012958   0.000002  -0.000022   0.000000
     7  C    5.064639   0.364947  -0.070121  -0.000157   0.000003  -0.000000
     8  C    0.364947   5.210856   0.430898   0.006606  -0.000502  -0.000010
     9  C   -0.070121   0.430898   4.607691   0.000239   0.000012   0.000000
    10  C   -0.000157   0.006606   0.000239   5.922570   0.240879   0.109332
    11  C    0.000003  -0.000502   0.000012   0.240879   5.104768   0.216959
    12  C   -0.000000  -0.000010   0.000000   0.109332   0.216959   5.150768
    13  C    0.000000  -0.000001   0.000000  -0.190258   0.108429   0.245440
    14  C    0.000000  -0.000019  -0.000000   0.105488  -0.143978   0.094935
    15  C    0.000011  -0.000444  -0.000051   0.209818   0.059423  -0.152098
    16  N   -0.000030  -0.012720  -0.024878  -0.067215   0.004078   0.000012
    17  H    0.000055   0.002211  -0.000157   0.010382  -0.000520  -0.000048
    18  H   -0.002091   0.016107  -0.000143   0.004717  -0.000177   0.000014
    19  H    0.014345  -0.001697   0.000031   0.000050   0.000030  -0.000004
    20  H   -0.069741   0.016029  -0.000331  -0.000000   0.000000   0.000000
    21  H    0.452703  -0.070319  -0.019983   0.000004   0.000000   0.000000
    22  H   -0.016136  -0.015758   0.368091   0.000032  -0.000000   0.000000
    23  H    0.004792  -0.005565   0.369361   0.000609  -0.000031  -0.000000
    24  H    0.001124  -0.014928   0.362962   0.000098   0.000017  -0.000000
    25  H   -0.000001  -0.000087   0.000005  -0.057815   0.446178  -0.063778
    26  H   -0.000000   0.000000  -0.000000   0.016783  -0.071648   0.455787
    27  H   -0.000000   0.000000   0.000000  -0.001507   0.014004  -0.067338
    28  H   -0.000000   0.000000   0.000000   0.016863  -0.001915   0.014338
    29  H    0.000003  -0.000253  -0.000038  -0.074907   0.013187  -0.002160
    30  H    0.000020   0.001388   0.000415  -0.002073  -0.000063  -0.000036
              13         14         15         16         17         18
     1  N   -0.000031  -0.000081   0.006723  -0.041741   0.339795   0.000544
     2  S    0.000119   0.003502  -0.066040   0.347543  -0.015061  -0.023860
     3  C   -0.000081  -0.000455   0.002274  -0.068238  -0.005740  -0.059124
     4  C    0.000214  -0.000451  -0.004114  -0.000481  -0.000416   0.455196
     5  C   -0.000003  -0.000016  -0.000082  -0.000090   0.000009  -0.072414
     6  C   -0.000000  -0.000000  -0.000048  -0.000037   0.000002   0.015446
     7  C    0.000000   0.000000   0.000011  -0.000030   0.000055  -0.002091
     8  C   -0.000001  -0.000019  -0.000444  -0.012720   0.002211   0.016107
     9  C    0.000000  -0.000000  -0.000051  -0.024878  -0.000157  -0.000143
    10  C   -0.190258   0.105488   0.209818  -0.067215   0.010382   0.004717
    11  C    0.108429  -0.143978   0.059423   0.004078  -0.000520  -0.000177
    12  C    0.245440   0.094935  -0.152098   0.000012  -0.000048   0.000014
    13  C    5.143977   0.248895   0.107907  -0.000035   0.000006   0.000395
    14  C    0.248895   5.098172   0.253896   0.001448  -0.000010  -0.000258
    15  C    0.107907   0.253896   5.150137   0.009648  -0.000353  -0.003158
    16  N   -0.000035   0.001448   0.009648   6.886005  -0.001658   0.000437
    17  H    0.000006  -0.000010  -0.000353  -0.001658   0.544117  -0.000041
    18  H    0.000395  -0.000258  -0.003158   0.000437  -0.000041   0.644655
    19  H    0.000001  -0.000002   0.000044   0.000003  -0.000000  -0.013230
    20  H   -0.000000   0.000000   0.000000  -0.000000   0.000000  -0.000289
    21  H    0.000000   0.000000   0.000000   0.000010  -0.000002   0.000020
    22  H    0.000000  -0.000000  -0.000000   0.001318   0.000042   0.000008
    23  H    0.000000   0.000000   0.000052   0.040475   0.000842  -0.000020
    24  H    0.000000   0.000000  -0.000000  -0.002223   0.003534  -0.000007
    25  H    0.012730  -0.001912   0.013387   0.000431  -0.000860   0.000177
    26  H   -0.073790   0.014595  -0.002045   0.000001  -0.000002   0.000033
    27  H    0.448659  -0.068301   0.014467   0.000000   0.000000   0.000004
    28  H   -0.072762   0.458061  -0.074255  -0.000008  -0.000000   0.000021
    29  H    0.013329  -0.052252   0.442784   0.024543  -0.000051   0.000093
    30  H   -0.000003  -0.000140  -0.001429   0.317767   0.001913  -0.000002
              19         20         21         22         23         24
     1  N    0.000003  -0.000000   0.000007   0.000097   0.000049   0.006719
     2  S   -0.000160   0.000023  -0.000131   0.000141   0.004956   0.009629
     3  C    0.018009  -0.001516   0.020673   0.011747  -0.013404  -0.008463
     4  C   -0.070698   0.015160  -0.002035  -0.000472  -0.000557  -0.000850
     5  C    0.454924  -0.073408   0.015049  -0.000014   0.000132   0.000215
     6  C   -0.075951   0.451047  -0.074020   0.000720  -0.000514  -0.000812
     7  C    0.014345  -0.069741   0.452703  -0.016136   0.004792   0.001124
     8  C   -0.001697   0.016029  -0.070319  -0.015758  -0.005565  -0.014928
     9  C    0.000031  -0.000331  -0.019983   0.368091   0.369361   0.362962
    10  C    0.000050  -0.000000   0.000004   0.000032   0.000609   0.000098
    11  C    0.000030   0.000000   0.000000  -0.000000  -0.000031   0.000017
    12  C   -0.000004   0.000000   0.000000   0.000000  -0.000000  -0.000000
    13  C    0.000001  -0.000000   0.000000   0.000000   0.000000   0.000000
    14  C   -0.000002   0.000000   0.000000  -0.000000   0.000000   0.000000
    15  C    0.000044   0.000000   0.000000  -0.000000   0.000052  -0.000000
    16  N    0.000003  -0.000000   0.000010   0.001318   0.040475  -0.002223
    17  H   -0.000000   0.000000  -0.000002   0.000042   0.000842   0.003534
    18  H   -0.013230  -0.000289   0.000020   0.000008  -0.000020  -0.000007
    19  H    0.671216  -0.012133  -0.000298  -0.000000  -0.000000   0.000000
    20  H   -0.012133   0.671819  -0.012624  -0.000017   0.000007   0.000008
    21  H   -0.000298  -0.012624   0.676753   0.008406   0.000353   0.000759
    22  H   -0.000000  -0.000017   0.008406   0.642105  -0.011630  -0.016816
    23  H   -0.000000   0.000007   0.000353  -0.011630   0.557822  -0.019546
    24  H    0.000000   0.000008   0.000759  -0.016816  -0.019546   0.639619
    25  H   -0.000000   0.000000   0.000000  -0.000000  -0.000005  -0.000008
    26  H   -0.000000   0.000000  -0.000000  -0.000000  -0.000000   0.000000
    27  H    0.000000  -0.000000   0.000000  -0.000000   0.000000  -0.000000
    28  H   -0.000000   0.000000  -0.000000  -0.000000  -0.000000  -0.000000
    29  H   -0.000000   0.000000  -0.000000  -0.000001   0.000076   0.000004
    30  H   -0.000000   0.000000  -0.000002  -0.000086  -0.001340  -0.000288
              25         26         27         28         29         30
     1  N    0.031190  -0.000022   0.000000   0.000002   0.000721  -0.001119
     2  S   -0.014238  -0.000162   0.000022  -0.000180  -0.010691  -0.007697
     3  C    0.000881   0.000015   0.000000   0.000016   0.002429   0.007174
     4  C    0.000410  -0.000020  -0.000001  -0.000016  -0.000384  -0.000064
     5  C   -0.000018  -0.000001   0.000000  -0.000001  -0.000060   0.000001
     6  C    0.000001   0.000000   0.000000   0.000000  -0.000005   0.000006
     7  C   -0.000001  -0.000000  -0.000000  -0.000000   0.000003   0.000020
     8  C   -0.000087   0.000000   0.000000   0.000000  -0.000253   0.001388
     9  C    0.000005  -0.000000   0.000000   0.000000  -0.000038   0.000415
    10  C   -0.057815   0.016783  -0.001507   0.016863  -0.074907  -0.002073
    11  C    0.446178  -0.071648   0.014004  -0.001915   0.013187  -0.000063
    12  C   -0.063778   0.455787  -0.067338   0.014338  -0.002160  -0.000036
    13  C    0.012730  -0.073790   0.448659  -0.072762   0.013329  -0.000003
    14  C   -0.001912   0.014595  -0.068301   0.458061  -0.052252  -0.000140
    15  C    0.013387  -0.002045   0.014467  -0.074255   0.442784  -0.001429
    16  N    0.000431   0.000001   0.000000  -0.000008   0.024543   0.317767
    17  H   -0.000860  -0.000002   0.000000  -0.000000  -0.000051   0.001913
    18  H    0.000177   0.000033   0.000004   0.000021   0.000093  -0.000002
    19  H   -0.000000  -0.000000   0.000000  -0.000000  -0.000000  -0.000000
    20  H    0.000000   0.000000  -0.000000   0.000000   0.000000   0.000000
    21  H    0.000000  -0.000000   0.000000  -0.000000  -0.000000  -0.000002
    22  H   -0.000000  -0.000000  -0.000000  -0.000000  -0.000001  -0.000086
    23  H   -0.000005  -0.000000   0.000000  -0.000000   0.000076  -0.001340
    24  H   -0.000008   0.000000  -0.000000  -0.000000   0.000004  -0.000288
    25  H    0.605097  -0.010790  -0.000200   0.000031  -0.000330  -0.000021
    26  H   -0.010790   0.660897  -0.012188  -0.000256   0.000039   0.000000
    27  H   -0.000200  -0.012188   0.662395  -0.012153  -0.000224  -0.000000
    28  H    0.000031  -0.000256  -0.012153   0.660409  -0.011121   0.000005
    29  H   -0.000330   0.000039  -0.000224  -0.011121   0.626201  -0.000736
    30  H   -0.000021   0.000000  -0.000000   0.000005  -0.000736   0.561653
 Mulliken charges:
               1
     1  N   -0.420183
     2  S    0.466074
     3  C   -0.027238
     4  C   -0.001006
     5  C   -0.008746
     6  C    0.016316
     7  C   -0.048502
     8  C   -0.108407
     9  C    0.059776
    10  C   -0.176034
    11  C    0.044356
    12  C   -0.009175
    13  C    0.006861
    14  C   -0.011119
    15  C    0.033544
    16  N   -0.414364
    17  H    0.122011
    18  H    0.036948
    19  H    0.015518
    20  H    0.015967
    21  H    0.004678
    22  H    0.028224
    23  H    0.073086
    24  H    0.039253
    25  H    0.039547
    26  H    0.022773
    27  H    0.022360
    28  H    0.022920
    29  H    0.029805
    30  H    0.124757
 Sum of Mulliken charges =  -0.00000
 Mulliken charges with hydrogens summed into heavy atoms:
               1
     1  N   -0.298172
     2  S    0.466074
     3  C   -0.027238
     4  C    0.035942
     5  C    0.006772
     6  C    0.032283
     7  C   -0.043825
     8  C   -0.108407
     9  C    0.200339
    10  C   -0.176034
    11  C    0.083903
    12  C    0.013598
    13  C    0.029221
    14  C    0.011802
    15  C    0.063349
    16  N   -0.289607
 Electronic spatial extent (au):  <R**2>=           3850.5687
 Charge=              0.0000 electrons
 Dipole moment (field-independent basis, Debye):
    X=              0.5133    Y=              1.4843    Z=              0.0188  Tot=              1.5707
 Quadrupole moment (field-independent basis, Debye-Ang):
   XX=            -86.9939   YY=            -94.8952   ZZ=           -105.5335
   XY=              3.5087   XZ=              2.2905   YZ=             -0.0111
 Traceless Quadrupole moment (field-independent basis, Debye-Ang):
   XX=              8.8136   YY=              0.9124   ZZ=             -9.7260
   XY=              3.5087   XZ=              2.2905   YZ=             -0.0111
 Octapole moment (field-independent basis, Debye-Ang**2):
  XXX=              0.5854  YYY=            -16.2116  ZZZ=              1.6604  XYY=            -14.6021
  XXY=             21.0355  XXZ=             -1.6108  XZZ=             19.6690  YZZ=              1.0880
  YYZ=              0.4919  XYZ=             -4.3638
 Hexadecapole moment (field-independent basis, Debye-Ang**3):
 XXXX=          -3227.1492 YYYY=          -1125.2662 ZZZZ=           -507.9856 XXXY=             69.1041
 XXXZ=            -24.0180 YYYX=            -25.1751 YYYZ=            -12.7461 ZZZX=              6.3664
 ZZZY=              7.6573 XXYY=           -766.4898 XXZZ=           -658.3338 YYZZ=           -304.4757
 XXYZ=              9.4033 YYXZ=             26.2310 ZZXY=             24.4031
 N-N= 1.204175281292D+03 E-N=-4.771821425290D+03  KE= 1.003213824797D+03
   1 Symmetry operations used in ECPInt.
 ECPInt:  NShTT=    9870 NPrTT=   36306 LenC2=    9353 LenP2D=   24834.
 LDataN:  DoStor=T MaxTD1= 5 Len=  102
 Calling FoFJK, ICntrl=      2127 FMM=F ISym2X=0 I1Cent= 0 IOpClX= 0 NMat=1 NMatS=1 NMatT=0.
 ***** Axes restored to original set *****
 -------------------------------------------------------------------
 Center     Atomic                   Forces (Hartrees/Bohr)
 Number     Number              X              Y              Z
 -------------------------------------------------------------------
      1        7           0.009997944    0.003987458   -0.013593000
      2       16           0.000962822   -0.006853580    0.003540801
      3        6           0.012941471    0.000005997    0.002571597
      4        6           0.001625099    0.001438612   -0.003134561
      5        6          -0.000750639   -0.000640334    0.000074232
      6        6           0.000523991    0.000958549   -0.001232039
      7        6           0.002552042   -0.000099639   -0.001353068
      8        6          -0.002761457   -0.008204389    0.010415850
      9        6          -0.002719238    0.004941992   -0.002131394
     10        6          -0.006672599   -0.004891880    0.003137110
     11        6          -0.000260551   -0.001840284   -0.002522433
     12        6          -0.000439796    0.000669832    0.000723287
     13        6           0.000685813    0.000591727   -0.000295292
     14        6          -0.000408357   -0.000821447   -0.000677549
     15        6          -0.002827121    0.000405909    0.003129848
     16        7          -0.012503275    0.015842934    0.000078968
     17        1          -0.008179079   -0.001868588    0.008268501
     18        1           0.006878936    0.002281688   -0.003958853
     19        1           0.000846257    0.005773993   -0.006950621
     20        1          -0.007555895    0.004315649   -0.002774209
     21        1          -0.007376866   -0.002097250    0.004560029
     22        1          -0.007442724   -0.001008385    0.002312092
     23        1           0.004418369    0.000171499    0.005193983
     24        1           0.001475405   -0.007832950   -0.001462316
     25        1          -0.003489400   -0.008855823   -0.002938046
     26        1           0.003255209   -0.004223639   -0.007387930
     27        1           0.006806917    0.003946693   -0.004599261
     28        1           0.003274873    0.007748673    0.003206153
     29        1          -0.003043951    0.004065124    0.008407910
     30        1           0.010185798   -0.007908142   -0.000609791
 -------------------------------------------------------------------
 Cartesian Forces:  Max     0.015842934 RMS     0.005306295

 GradGradGradGradGradGradGradGradGradGradGradGradGradGradGradGradGradGrad
 Berny optimization.
 FormGI is forming the generalized inverse of G from B-inverse, IUseBI=4.
 Internal  Forces:  Max     0.016521356 RMS     0.004456021
 Search for a local minimum.
 Step number   1 out of a maximum of  163
 All quantities printed in internal units (Hartrees-Bohrs-Radians)
 Mixed Optimization -- RFO/linear search
 Second derivative matrix not updated -- first step.
 ITU=  0
     Eigenvalues ---    0.00230   0.00238   0.00846   0.01455   0.01513
     Eigenvalues ---    0.01650   0.02211   0.02260   0.02268   0.02274
     Eigenvalues ---    0.02279   0.02283   0.02285   0.02293   0.02299
     Eigenvalues ---    0.02303   0.02303   0.02307   0.02308   0.02308
     Eigenvalues ---    0.02319   0.03398   0.03400   0.07347   0.07546
     Eigenvalues ---    0.07589   0.09127   0.09835   0.15999   0.16000
     Eigenvalues ---    0.16000   0.16000   0.16000   0.16000   0.16000
     Eigenvalues ---    0.16000   0.16000   0.16000   0.16000   0.16000
     Eigenvalues ---    0.16000   0.16000   0.17075   0.19327   0.21999
     Eigenvalues ---    0.22000   0.22000   0.22488   0.23478   0.24457
     Eigenvalues ---    0.24469   0.24953   0.24972   0.24999   0.25347
     Eigenvalues ---    0.33020   0.34807   0.35028   0.35149   0.35924
     Eigenvalues ---    0.35978   0.35999   0.36001   0.36016   0.36018
     Eigenvalues ---    0.36051   0.36097   0.36258   0.43301   0.43532
     Eigenvalues ---    0.43598   0.43685   0.46308   0.46570   0.47332
     Eigenvalues ---    0.47786   0.48002   0.48269   0.48287   0.48412
     Eigenvalues ---    0.48553   0.48631   0.64528   0.64577
 RFO step:  Lambda=-9.93428675D-03 EMin= 2.30000000D-03
 Linear search not attempted -- first point.
 Iteration  1 RMS(Cart)=  0.08414669 RMS(Int)=  0.00184205
 Iteration  2 RMS(Cart)=  0.00358950 RMS(Int)=  0.00008421
 Iteration  3 RMS(Cart)=  0.00000623 RMS(Int)=  0.00008415
 Iteration  4 RMS(Cart)=  0.00000000 RMS(Int)=  0.00008415
 Variable       Old X    -DE/DX   Delta X   Delta X   Delta X     New X
                                 (Linear)    (Quad)   (Total)
    R1        2.91192  -0.00013   0.00000  -0.00020  -0.00020   2.91172
    R2        1.90194   0.00979   0.00000   0.02058   0.02058   1.92252
    R3        3.44310  -0.00282   0.00000  -0.01109  -0.01109   3.43201
    R4        3.42034  -0.00374   0.00000  -0.01421  -0.01421   3.40613
    R5        2.91228   0.00139   0.00000   0.00212   0.00212   2.91440
    R6        2.61326   0.01252   0.00000   0.02581   0.02584   2.63909
    R7        2.63229   0.01652   0.00000   0.03519   0.03525   2.66754
    R8        2.61628   0.00793   0.00000   0.01603   0.01600   2.63228
    R9        2.03931   0.00820   0.00000   0.02210   0.02210   2.06141
   R10        2.61467   0.00772   0.00000   0.01502   0.01495   2.62962
   R11        2.04003   0.00907   0.00000   0.02449   0.02449   2.06451
   R12        2.61385   0.01039   0.00000   0.02043   0.02040   2.63426
   R13        2.04079   0.00913   0.00000   0.02469   0.02469   2.06548
   R14        2.62787   0.00811   0.00000   0.01687   0.01690   2.64477
   R15        2.04200   0.00887   0.00000   0.02403   0.02403   2.06604
   R16        2.82317   0.00568   0.00000   0.01670   0.01670   2.83987
   R17        2.05434   0.00772   0.00000   0.02135   0.02135   2.07569
   R18        2.05629   0.00668   0.00000   0.01853   0.01853   2.07482
   R19        2.05989   0.00800   0.00000   0.02236   0.02236   2.08225
   R20        2.61083   0.01097   0.00000   0.02219   0.02219   2.63302
   R21        2.61415   0.00868   0.00000   0.01760   0.01760   2.63176
   R22        2.61726   0.00891   0.00000   0.01820   0.01820   2.63546
   R23        2.03680   0.00995   0.00000   0.02671   0.02671   2.06351
   R24        2.61977   0.00985   0.00000   0.02005   0.02004   2.63981
   R25        2.04056   0.00911   0.00000   0.02460   0.02460   2.06516
   R26        2.62028   0.00967   0.00000   0.01961   0.01960   2.63988
   R27        2.04116   0.00911   0.00000   0.02465   0.02465   2.06581
   R28        2.61575   0.00892   0.00000   0.01799   0.01799   2.63373
   R29        2.04053   0.00900   0.00000   0.02430   0.02430   2.06484
   R30        2.04084   0.00979   0.00000   0.02648   0.02648   2.06731
   R31        1.90485   0.01068   0.00000   0.02258   0.02258   1.92743
    A1        1.99719  -0.01140   0.00000  -0.06711  -0.06711   1.93008
    A2        1.97781  -0.00086   0.00000  -0.00376  -0.00390   1.97391
    A3        1.76919  -0.00061   0.00000  -0.00498  -0.00499   1.76420
    A4        2.16358   0.00388   0.00000   0.03265   0.03269   2.19627
    A5        1.79203  -0.00056   0.00000  -0.01347  -0.01360   1.77843
    A6        1.78272  -0.00088   0.00000  -0.00584  -0.00606   1.77665
    A7        1.94991  -0.00176   0.00000  -0.01327  -0.01336   1.93655
    A8        2.08167  -0.00206   0.00000  -0.00947  -0.00979   2.07188
    A9        2.09155   0.00108   0.00000   0.00265   0.00232   2.09387
   A10        2.10898   0.00094   0.00000   0.00506   0.00493   2.11391
   A11        2.10014  -0.00002   0.00000   0.00080   0.00084   2.10098
   A12        2.09176   0.00094   0.00000   0.00504   0.00501   2.09677
   A13        2.09129  -0.00091   0.00000  -0.00584  -0.00587   2.08543
   A14        2.08676  -0.00009   0.00000  -0.00197  -0.00202   2.08475
   A15        2.09286  -0.00025   0.00000  -0.00074  -0.00071   2.09215
   A16        2.10356   0.00034   0.00000   0.00270   0.00273   2.10629
   A17        2.09215   0.00065   0.00000   0.00018   0.00014   2.09229
   A18        2.09756  -0.00027   0.00000   0.00023   0.00025   2.09780
   A19        2.09347  -0.00038   0.00000  -0.00043  -0.00042   2.09305
   A20        2.11817   0.00317   0.00000   0.01257   0.01262   2.13079
   A21        2.08833  -0.00063   0.00000  -0.00064  -0.00066   2.08767
   A22        2.07668  -0.00255   0.00000  -0.01194  -0.01197   2.06471
   A23        2.05994  -0.00466   0.00000  -0.01687  -0.01681   2.04312
   A24        2.12129   0.00873   0.00000   0.03299   0.03281   2.15410
   A25        2.10194  -0.00407   0.00000  -0.01628  -0.01644   2.08551
   A26        1.93535  -0.00033   0.00000  -0.00209  -0.00210   1.93325
   A27        1.91243   0.00193   0.00000   0.01322   0.01318   1.92561
   A28        1.91969   0.00120   0.00000   0.00534   0.00532   1.92501
   A29        1.91631  -0.00017   0.00000   0.00229   0.00226   1.91857
   A30        1.89611  -0.00120   0.00000  -0.01063  -0.01063   1.88548
   A31        1.88315  -0.00149   0.00000  -0.00849  -0.00854   1.87461
   A32        2.10338   0.00251   0.00000   0.00945   0.00944   2.11282
   A33        2.05866  -0.00502   0.00000  -0.01958  -0.01959   2.03907
   A34        2.11946   0.00251   0.00000   0.01037   0.01038   2.12984
   A35        2.07791  -0.00202   0.00000  -0.00808  -0.00807   2.06984
   A36        2.06854   0.00140   0.00000   0.00629   0.00629   2.07483
   A37        2.13667   0.00063   0.00000   0.00175   0.00175   2.13842
   A38        2.09487   0.00048   0.00000   0.00233   0.00233   2.09720
   A39        2.09301  -0.00055   0.00000  -0.00298  -0.00299   2.09003
   A40        2.09530   0.00007   0.00000   0.00065   0.00065   2.09595
   A41        2.10142   0.00005   0.00000  -0.00005  -0.00006   2.10136
   A42        2.09146  -0.00005   0.00000  -0.00014  -0.00014   2.09133
   A43        2.09028   0.00000   0.00000   0.00018   0.00018   2.09047
   A44        2.09077   0.00074   0.00000   0.00290   0.00289   2.09367
   A45        2.09722  -0.00001   0.00000   0.00064   0.00064   2.09785
   A46        2.09519  -0.00073   0.00000  -0.00355  -0.00355   2.09164
   A47        2.08183  -0.00176   0.00000  -0.00747  -0.00748   2.07435
   A48        2.07265   0.00141   0.00000   0.00688   0.00687   2.07952
   A49        2.12870   0.00034   0.00000   0.00057   0.00056   2.12927
   A50        1.98262  -0.01312   0.00000  -0.07719  -0.07719   1.90544
    D1       -1.52980   0.00060   0.00000   0.02189   0.02183  -1.50797
    D2        2.84586   0.00188   0.00000   0.04135   0.04138   2.88724
    D3        0.64331   0.00209   0.00000   0.04081   0.04084   0.68415
    D4       -1.75429   0.00114   0.00000  -0.04925  -0.04936  -1.80364
    D5        1.33995   0.00012   0.00000  -0.09115  -0.09117   1.24879
    D6        0.13902  -0.00019   0.00000  -0.06357  -0.06363   0.07539
    D7       -3.04993  -0.00121   0.00000  -0.10547  -0.10544   3.12782
    D8        2.16142  -0.00260   0.00000  -0.08470  -0.08467   2.07675
    D9       -1.02753  -0.00362   0.00000  -0.12660  -0.12648  -1.15401
   D10        0.28843  -0.00125   0.00000   0.00555   0.00556   0.29399
   D11       -2.79186  -0.00143   0.00000   0.00085   0.00088  -2.79098
   D12       -1.75934   0.00009   0.00000   0.01601   0.01603  -1.74332
   D13        1.44355  -0.00009   0.00000   0.01131   0.01135   1.45490
   D14        2.62555   0.00203   0.00000   0.03431   0.03424   2.65979
   D15       -0.45474   0.00185   0.00000   0.02960   0.02956  -0.42518
   D16        0.66174   0.00121   0.00000   0.02763   0.02753   0.68926
   D17        2.91815   0.00225   0.00000   0.04308   0.04311   2.96126
   D18       -1.46077   0.00052   0.00000   0.02001   0.02009  -1.44068
   D19        3.11422  -0.00074   0.00000  -0.02994  -0.02992   3.08430
   D20       -0.02822  -0.00088   0.00000  -0.03428  -0.03425  -0.06246
   D21        0.02047   0.00029   0.00000   0.01246   0.01247   0.03293
   D22       -3.12197   0.00015   0.00000   0.00812   0.00814  -3.11383
   D23       -3.11711   0.00091   0.00000   0.03389   0.03409  -3.08302
   D24        0.01767   0.00020   0.00000   0.00814   0.00810   0.02577
   D25       -0.02362  -0.00021   0.00000  -0.00908  -0.00915  -0.03278
   D26        3.11115  -0.00092   0.00000  -0.03483  -0.03515   3.07601
   D27       -0.00416  -0.00008   0.00000  -0.00531  -0.00522  -0.00938
   D28        3.13730  -0.00015   0.00000  -0.00562  -0.00557   3.13173
   D29        3.13828   0.00006   0.00000  -0.00098  -0.00093   3.13735
   D30       -0.00345  -0.00001   0.00000  -0.00128  -0.00128  -0.00473
   D31       -0.00824  -0.00015   0.00000  -0.00461  -0.00459  -0.01283
   D32        3.13811  -0.00004   0.00000   0.00065   0.00059   3.13870
   D33        3.13349  -0.00008   0.00000  -0.00430  -0.00424   3.12925
   D34       -0.00334   0.00004   0.00000   0.00095   0.00094  -0.00240
   D35        0.00462   0.00017   0.00000   0.00770   0.00761   0.01223
   D36       -3.13418   0.00024   0.00000   0.00986   0.00973  -3.12445
   D37        3.14147   0.00006   0.00000   0.00247   0.00244  -3.13928
   D38        0.00266   0.00013   0.00000   0.00462   0.00457   0.00723
   D39        0.01115  -0.00001   0.00000  -0.00093  -0.00078   0.01037
   D40       -3.12370   0.00065   0.00000   0.02433   0.02394  -3.09976
   D41       -3.13321  -0.00008   0.00000  -0.00305  -0.00287  -3.13608
   D42        0.01512   0.00058   0.00000   0.02221   0.02186   0.03698
   D43        3.01039   0.00137   0.00000   0.04244   0.04257   3.05296
   D44        0.89224   0.00051   0.00000   0.03216   0.03228   0.92452
   D45       -1.17512   0.00044   0.00000   0.03132   0.03141  -1.14370
   D46       -0.13818   0.00064   0.00000   0.01608   0.01598  -0.12220
   D47       -2.25633  -0.00022   0.00000   0.00580   0.00569  -2.25064
   D48        1.95950  -0.00029   0.00000   0.00495   0.00482   1.96432
   D49       -3.09239   0.00002   0.00000  -0.00398  -0.00402  -3.09641
   D50        0.03805  -0.00011   0.00000  -0.00719  -0.00723   0.03082
   D51       -0.01427  -0.00006   0.00000  -0.00017  -0.00015  -0.01442
   D52        3.11617  -0.00018   0.00000  -0.00338  -0.00337   3.11281
   D53        3.09587   0.00021   0.00000   0.00472   0.00469   3.10056
   D54       -0.04172   0.00042   0.00000   0.01136   0.01135  -0.03037
   D55        0.01617   0.00003   0.00000   0.00002   0.00001   0.01619
   D56       -3.12141   0.00023   0.00000   0.00666   0.00667  -3.11474
   D57        0.00295   0.00003   0.00000   0.00009   0.00008   0.00303
   D58       -3.14044  -0.00009   0.00000  -0.00277  -0.00277   3.13998
   D59       -3.12704   0.00015   0.00000   0.00341   0.00339  -3.12365
   D60        0.01277   0.00004   0.00000   0.00055   0.00054   0.01330
   D61        0.00623  -0.00001   0.00000  -0.00001  -0.00001   0.00622
   D62        3.14157  -0.00008   0.00000  -0.00202  -0.00202   3.13955
   D63       -3.13357   0.00011   0.00000   0.00286   0.00286  -3.13072
   D64        0.00177   0.00004   0.00000   0.00085   0.00085   0.00262
   D65       -0.00432  -0.00002   0.00000  -0.00013  -0.00013  -0.00445
   D66        3.13363  -0.00011   0.00000  -0.00351  -0.00351   3.13013
   D67       -3.13967   0.00005   0.00000   0.00188   0.00189  -3.13778
   D68       -0.00171  -0.00004   0.00000  -0.00149  -0.00150  -0.00321
   D69       -0.00670   0.00002   0.00000   0.00020   0.00019  -0.00651
   D70        3.13075  -0.00018   0.00000  -0.00665  -0.00665   3.12410
   D71        3.13853   0.00011   0.00000   0.00356   0.00355  -3.14111
   D72       -0.00721  -0.00009   0.00000  -0.00329  -0.00329  -0.01049
         Item               Value     Threshold  Converged?
 Maximum Force            0.016521     0.000450     NO 
 RMS     Force            0.004456     0.000300     NO 
 Maximum Displacement     0.260911     0.001800     NO 
 RMS     Displacement     0.085596     0.001200     NO 
 Predicted change in Energy=-5.452735D-03
 GradGradGradGradGradGradGradGradGradGradGradGradGradGradGradGradGradGrad

                          Input orientation:                          
 ---------------------------------------------------------------------
 Center     Atomic      Atomic             Coordinates (Angstroms)
 Number     Number       Type             X           Y           Z
 ---------------------------------------------------------------------
      1          7           0        0.353830   -2.311095    0.323919
      2         16           0        0.296954   -0.851418    0.814042
      3          6           0       -1.200785    0.023169    0.275290
      4          6           0       -1.103394    0.933346   -0.779434
      5          6           0       -2.241551    1.572404   -1.265733
      6          6           0       -3.480384    1.288292   -0.699216
      7          6           0       -3.574095    0.358987    0.335584
      8          6           0       -2.450464   -0.300972    0.846129
      9          6           0       -2.624953   -1.331856    1.925586
     10          6           0        1.563412   -0.089879   -0.217925
     11          6           0        2.030101   -0.723148   -1.367950
     12          6           0        3.049574   -0.113439   -2.098640
     13          6           0        3.585621    1.104625   -1.673929
     14          6           0        3.111979    1.718607   -0.511950
     15          6           0        2.094931    1.117779    0.227679
     16          7           0        0.424779   -0.385029    2.278494
     17          1           0       -0.134323   -2.925203    0.971675
     18          1           0       -0.132467    1.152612   -1.225724
     19          1           0       -2.154574    2.289870   -2.085013
     20          1           0       -4.381031    1.784679   -1.069479
     21          1           0       -4.551717    0.127134    0.766635
     22          1           0       -3.664624   -1.353227    2.279321
     23          1           0       -1.948358   -1.123635    2.764843
     24          1           0       -2.374807   -2.333781    1.541253
     25          1           0        1.594694   -1.682415   -1.655368
     26          1           0        3.430923   -0.594328   -3.002858
     27          1           0        4.385923    1.576750   -2.249829
     28          1           0        3.541026    2.666021   -0.176923
     29          1           0        1.710142    1.560945    1.150892
     30          1           0        1.138040   -0.943708    2.746934
 ---------------------------------------------------------------------
                    Distance matrix (angstroms):
                    1          2          3          4          5
     1  N    0.000000
     2  S    1.540816   0.000000
     3  C    2.804992   1.816143   0.000000
     4  C    3.723881   2.772277   1.396549   0.000000
     5  C    4.934022   4.079753   2.420347   1.392941   0.000000
     6  C    5.357574   4.597454   2.783302   2.404683   1.391535
     7  C    4.749534   4.083995   2.397709   2.770833   2.410866
     8  C    3.489609   2.802200   1.411603   2.445525   2.830750
     9  C    3.520994   3.162893   2.566676   3.842319   4.332003
    10  C    2.586597   1.802446   2.810129   2.911037   4.282386
    11  C    2.862495   2.789506   3.700790   3.592926   4.850466
    12  C    4.238575   4.074954   4.870293   4.481430   5.615319
    13  C    5.109111   4.564147   5.280027   4.776644   5.860152
    14  C    4.954247   4.035796   4.700446   4.296226   5.408313
    15  C    3.846801   2.730253   3.473065   3.358210   4.608909
    16  N    2.745019   1.542232   2.611879   3.663925   4.847928
    17  H    1.017354   2.124013   3.211727   4.346709   5.447465
    18  H    3.825591   2.891571   2.161015   1.090849   2.150828
    19  H    5.767489   4.927697   3.408618   2.156310   1.092493
    20  H    6.413722   5.690359   3.876246   3.398793   2.158923
    21  H    5.495940   4.946657   3.388358   3.864095   3.399440
    22  H    4.570458   4.253581   3.461374   4.598292   4.811638
    23  H    3.559247   2.986829   2.841109   4.184140   4.857997
    24  H    2.987956   3.140787   2.921678   4.204306   4.811986
    25  H    2.419206   2.910785   3.801468   3.858646   5.046032
    26  H    4.845951   4.945360   5.707914   5.276120   6.315797
    27  H    6.164194   5.657117   6.324646   5.719147   6.700140
    28  H    5.931336   4.886552   5.447378   4.993578   5.984956
    29  H    4.185231   2.816037   3.406601   3.469298   4.632072
    30  H    2.890629   2.109980   3.537510   4.580680   5.818415
                    6          7          8          9         10
     6  C    0.000000
     7  C    1.393988   0.000000
     8  C    2.444297   1.399552   0.000000
     9  C    3.806117   2.507574   1.502796   0.000000
    10  C    5.250797   5.186697   4.157880   4.866163   0.000000
    11  C    5.904112   5.956513   5.015560   5.734756   1.393337
    12  C    6.823752   7.072597   6.241575   7.062521   2.397149
    13  C    7.135281   7.473664   6.690345   7.580513   2.763353
    14  C    6.609046   6.875352   6.071561   6.939690   2.398986
    15  C    5.654410   5.720600   4.801661   5.582196   1.392665
    16  N    5.188165   4.507710   3.213372   3.212770   2.759657
    17  H    5.633963   4.798181   3.502408   3.106757   3.512337
    18  H    3.391779   3.861648   3.431995   4.723963   2.331405
    19  H    2.163646   3.406265   3.923214   5.424303   4.792978
    20  H    1.093004   2.158228   3.427328   4.665513   6.290907
    21  H    2.155170   1.093300   2.145893   2.680343   6.197681
    22  H    3.985379   2.591907   2.153012   1.098409   5.929978
    23  H    4.490457   3.277573   2.147172   1.097948   4.722084
    24  H    4.400160   3.184795   2.149705   1.101879   4.862033
    25  H    5.957831   5.903185   4.952694   5.545407   2.145551
    26  H    7.524440   7.818202   7.035018   7.842649   3.390859
    27  H    8.022867   8.457493   7.736083   8.662936   3.856535
    28  H    7.174338   7.497334   6.763700   7.643485   3.392289
    29  H    5.517137   5.480200   4.568398   5.268918   2.149514
    30  H    6.179613   5.451223   4.111390   3.871096   3.114539
                   11         12         13         14         15
    11  C    0.000000
    12  C    1.394625   0.000000
    13  C    2.419509   1.396927   0.000000
    14  C    2.804526   2.424433   1.396964   0.000000
    15  C    2.437058   2.799823   2.416287   1.393712   0.000000
    16  N    3.998492   5.111029   5.275571   4.408278   3.041987
    17  H    3.873967   5.241188   6.089065   5.857012   4.676410
    18  H    2.866253   3.534155   3.745313   3.369904   2.659868
    19  H    5.206146   5.732298   5.875682   5.526070   4.978015
    20  H    6.890637   7.737953   8.018440   7.514013   6.638181
    21  H    6.971352   8.126949   8.551497   7.930939   6.741645
    22  H    6.791868   8.110738   8.615990   7.946679   6.594511
    23  H    5.750522   7.046509   7.435910   6.665037   5.273454
    24  H    5.519132   6.899468   7.595178   7.123364   5.798043
    25  H    1.091962   2.185143   3.425161   3.895704   3.411333
    26  H    2.156809   1.092836   2.162505   3.414092   3.892629
    27  H    3.408393   2.159960   1.093182   2.159463   3.405488
    28  H    3.897167   3.414663   2.163556   1.092665   2.156837
    29  H    3.415263   3.893213   3.421296   2.180607   1.093975
    30  H    4.216242   5.274742   5.452555   4.648084   3.392936
                   16         17         18         19         20
    16  N    0.000000
    17  H    2.910816   0.000000
    18  H    3.867093   4.632185   0.000000
    19  H    5.731347   6.373519   2.473995   0.000000
    20  H    6.245987   6.662118   4.298164   2.498727   0.000000
    21  H    5.226235   5.373283   4.954883   4.307623   2.479496
    22  H    4.202455   4.079715   5.571418   5.882161   4.644798
    23  H    2.532558   3.122790   4.939978   5.934277   5.392422
    24  H    3.489819   2.386204   4.983892   5.880175   5.272813
    25  H    4.304321   3.381623   3.347396   5.479111   6.933490
    26  H    6.080576   5.825880   4.348305   6.352859   8.391916
    27  H    6.328108   7.146908   4.652369   6.581322   8.848499
    28  H    5.004895   6.788906   4.109129   6.018484   8.020748
    29  H    2.590456   4.853833   3.034839   5.092980   6.487102
    30  H    1.019951   2.949029   4.668057   6.681695   7.243566
                   21         22         23         24         25
[...]
     5  C    0.041684  -0.092364  -0.004626  -0.005892  -0.000152   0.000200
     6  C    0.436272   0.055862   0.016406   0.000406   0.000256  -0.000016
     7  C    5.069175   0.391526  -0.084206  -0.001841  -0.000050  -0.000001
     8  C    0.391526   5.305479   0.215833   0.020479   0.000742  -0.000195
     9  C   -0.084206   0.215833   5.234010  -0.007305   0.000679   0.000023
    10  C   -0.001841   0.020479  -0.007305   5.432193   0.355103   0.033581
    11  C   -0.000050   0.000742   0.000679   0.355103   5.048950   0.413886
    12  C   -0.000001  -0.000195   0.000023   0.033581   0.413886   4.946876
    13  C    0.000007   0.000011  -0.000004  -0.093933   0.029195   0.452404
    14  C    0.000001  -0.000240   0.000014   0.027604  -0.078695   0.024969
    15  C    0.000110  -0.001666  -0.000044   0.360519  -0.040678  -0.084720
    16  N    0.002625   0.019752  -0.064500  -0.120554   0.013150  -0.000705
    17  H   -0.000174   0.000617   0.002927   0.014770  -0.002359   0.000087
    18  H   -0.001362   0.005975   0.000028  -0.005230   0.007587  -0.001017
    19  H    0.010645  -0.002018   0.000051   0.000220  -0.000121   0.000038
    20  H   -0.055928   0.014179  -0.000250   0.000006   0.000001  -0.000000
    21  H    0.426293  -0.064376  -0.012787   0.000013  -0.000001   0.000000
    22  H    0.002440  -0.044691   0.372073   0.000047  -0.000009   0.000000
    23  H   -0.005497  -0.027511   0.405234   0.002081  -0.000232  -0.000001
    24  H   -0.001471  -0.050462   0.413044  -0.000369   0.000050   0.000003
    25  H    0.000041   0.000279  -0.000083  -0.046372   0.427844  -0.061859
    26  H    0.000000  -0.000004   0.000000   0.010442  -0.050842   0.426845
    27  H   -0.000000  -0.000000   0.000000  -0.002219   0.009341  -0.048032
    28  H    0.000000  -0.000001   0.000000   0.010222  -0.000756   0.008649
    29  H    0.000076  -0.000618  -0.000073  -0.044602   0.006167  -0.001886
    30  H   -0.000024   0.001260   0.000679   0.005549   0.001317   0.000041
              13         14         15         16         17         18
     1  N    0.001277  -0.002075   0.018175  -0.073733   0.326366   0.000661
     2  S    0.000581   0.007545  -0.055318   0.567580  -0.020422  -0.006699
     3  C   -0.000028  -0.000568  -0.011690  -0.094703  -0.006371  -0.065305
     4  C    0.000835  -0.000035  -0.000914   0.007166  -0.002210   0.434330
     5  C   -0.000031   0.000229   0.000193   0.000279   0.000053  -0.039286
     6  C   -0.000005  -0.000017  -0.000051  -0.000517   0.000021   0.009142
     7  C    0.000007   0.000001   0.000110   0.002625  -0.000174  -0.001362
     8  C    0.000011  -0.000240  -0.001666   0.019752   0.000617   0.005975
     9  C   -0.000004   0.000014  -0.000044  -0.064500   0.002927   0.000028
    10  C   -0.093933   0.027604   0.360519  -0.120554   0.014770  -0.005230
    11  C    0.029195  -0.078695  -0.040678   0.013150  -0.002359   0.007587
    12  C    0.452404   0.024969  -0.084720  -0.000705   0.000087  -0.001017
    13  C    4.874611   0.450708   0.035758   0.000169  -0.000023   0.001204
    14  C    0.450708   4.958545   0.395513   0.001118   0.000077  -0.001204
    15  C    0.035758   0.395513   5.139277   0.018544  -0.001108  -0.000441
    16  N    0.000169   0.001118   0.018544   6.929525  -0.000858   0.000812
    17  H   -0.000023   0.000077  -0.001108  -0.000858   0.474390  -0.000083
    18  H    0.001204  -0.001204  -0.000441   0.000812  -0.000083   0.517254
    19  H   -0.000006   0.000039  -0.000032   0.000002   0.000000  -0.007951
    20  H   -0.000000  -0.000000   0.000001  -0.000003   0.000001  -0.000233
    21  H    0.000000  -0.000000   0.000000   0.000072  -0.000007   0.000062
    22  H   -0.000000   0.000000   0.000001   0.000849   0.000398   0.000003
    23  H    0.000001  -0.000002   0.000134   0.024557   0.000835  -0.000026
    24  H   -0.000000   0.000002  -0.000030   0.001220   0.000511   0.000030
    25  H    0.010213  -0.003270   0.011308   0.000993  -0.001357   0.000009
    26  H   -0.051415   0.010345  -0.001757   0.000005  -0.000002  -0.000058
    27  H    0.423607  -0.048826   0.009571   0.000002  -0.000000   0.000035
    28  H   -0.048675   0.426458  -0.051010   0.000013  -0.000001  -0.000063
    29  H    0.008315  -0.054474   0.425934   0.023712  -0.000082  -0.000756
    30  H   -0.000091  -0.000063  -0.006394   0.305803   0.000995  -0.000028
              19         20         21         22         23         24
     1  N    0.000011  -0.000004   0.000025   0.001006  -0.003092   0.002555
     2  S   -0.000118   0.000010  -0.000232   0.001016   0.005943  -0.002014
     3  C    0.013477  -0.004236   0.020359   0.013599  -0.014001  -0.006919
     4  C   -0.054034   0.013025  -0.003138  -0.001450  -0.000645   0.001214
     5  C    0.427592  -0.053742   0.011429   0.000531  -0.000184   0.000228
     6  C   -0.052574   0.427589  -0.054124   0.000462   0.000145  -0.000685
     7  C    0.010645  -0.055928   0.426293   0.002440  -0.005497  -0.001471
     8  C   -0.002018   0.014179  -0.064376  -0.044691  -0.027511  -0.050462
     9  C    0.000051  -0.000250  -0.012787   0.372073   0.405234   0.413044
    10  C    0.000220   0.000006   0.000013   0.000047   0.002081  -0.000369
    11  C   -0.000121   0.000001  -0.000001  -0.000009  -0.000232   0.000050
    12  C    0.000038  -0.000000   0.000000   0.000000  -0.000001   0.000003
    13  C   -0.000006  -0.000000   0.000000  -0.000000   0.000001  -0.000000
    14  C    0.000039  -0.000000  -0.000000   0.000000  -0.000002   0.000002
    15  C   -0.000032   0.000001   0.000000   0.000001   0.000134  -0.000030
    16  N    0.000002  -0.000003   0.000072   0.000849   0.024557   0.001220
    17  H    0.000000   0.000001  -0.000007   0.000398   0.000835   0.000511
    18  H   -0.007951  -0.000233   0.000062   0.000003  -0.000026   0.000030
    19  H    0.553464  -0.007677  -0.000288   0.000003  -0.000001  -0.000000
    20  H   -0.007677   0.555057  -0.008215  -0.000101   0.000015   0.000001
    21  H   -0.000288  -0.008215   0.565140   0.006875   0.000076   0.000313
    22  H    0.000003  -0.000101   0.006875   0.550838  -0.013216  -0.017225
    23  H   -0.000001   0.000015   0.000076  -0.013216   0.484327  -0.034087
    24  H   -0.000000   0.000001   0.000313  -0.017225  -0.034087   0.557166
    25  H   -0.000004   0.000000   0.000000  -0.000002  -0.000004   0.000002
    26  H    0.000000   0.000000  -0.000000   0.000000  -0.000000  -0.000000
    27  H   -0.000000  -0.000000   0.000000  -0.000000   0.000000   0.000000
    28  H    0.000000   0.000000  -0.000000  -0.000000  -0.000000   0.000000
    29  H   -0.000005  -0.000000   0.000000  -0.000000   0.000078  -0.000007
    30  H   -0.000001   0.000000  -0.000005  -0.000117  -0.001106  -0.000105
              25         26         27         28         29         30
     1  N    0.025135  -0.000198   0.000002  -0.000001   0.002183  -0.001825
     2  S   -0.002706  -0.000254   0.000073  -0.000302  -0.006562  -0.021779
     3  C    0.001623  -0.000025  -0.000005   0.000042  -0.001595   0.011291
     4  C    0.000431   0.000028   0.000003  -0.000052   0.000347  -0.000938
     5  C   -0.000108   0.000004  -0.000000  -0.000005   0.000214   0.000005
     6  C   -0.000003  -0.000000   0.000000   0.000000  -0.000039   0.000025
     7  C    0.000041   0.000000  -0.000000   0.000000   0.000076  -0.000024
     8  C    0.000279  -0.000004  -0.000000  -0.000001  -0.000618   0.001260
     9  C   -0.000083   0.000000   0.000000   0.000000  -0.000073   0.000679
    10  C   -0.046372   0.010442  -0.002219   0.010222  -0.044602   0.005549
    11  C    0.427844  -0.050842   0.009341  -0.000756   0.006167   0.001317
    12  C   -0.061859   0.426845  -0.048032   0.008649  -0.001886   0.000041
    13  C    0.010213  -0.051415   0.423607  -0.048675   0.008315  -0.000091
    14  C   -0.003270   0.010345  -0.048826   0.426458  -0.054474  -0.000063
    15  C    0.011308  -0.001757   0.009571  -0.051010   0.425934  -0.006394
    16  N    0.000993   0.000005   0.000002   0.000013   0.023712   0.305803
    17  H   -0.001357  -0.000002  -0.000000  -0.000001  -0.000082   0.000995
    18  H    0.000009  -0.000058   0.000035  -0.000063  -0.000756  -0.000028
    19  H   -0.000004   0.000000  -0.000000   0.000000  -0.000005  -0.000001
    20  H    0.000000   0.000000  -0.000000   0.000000  -0.000000   0.000000
    21  H    0.000000  -0.000000   0.000000  -0.000000   0.000000  -0.000005
    22  H   -0.000002   0.000000  -0.000000  -0.000000  -0.000000  -0.000117
    23  H   -0.000004  -0.000000   0.000000  -0.000000   0.000078  -0.001106
    24  H    0.000002  -0.000000   0.000000   0.000000  -0.000007  -0.000105
    25  H    0.488595  -0.007074  -0.000142   0.000063  -0.000261  -0.000034
    26  H   -0.007074   0.545775  -0.007445  -0.000235   0.000079   0.000001
    27  H   -0.000142  -0.007445   0.546188  -0.007373  -0.000166  -0.000000
    28  H    0.000063  -0.000235  -0.007373   0.542742  -0.006222   0.000023
    29  H   -0.000261   0.000079  -0.000166  -0.006222   0.488275  -0.003289
    30  H   -0.000034   0.000001  -0.000000   0.000023  -0.003289   0.492818
 Mulliken charges:
               1
     1  N   -0.545421
     2  S    0.445056
     3  C    0.118251
     4  C   -0.109017
     5  C   -0.186269
     6  C   -0.089087
     7  C   -0.203307
     8  C    0.099955
     9  C   -0.448695
    10  C    0.051955
    11  C   -0.167230
    12  C   -0.109701
    13  C   -0.094686
    14  C   -0.113699
    15  C   -0.159187
    16  N   -0.562376
    17  H    0.213011
    18  H    0.152610
    19  H    0.119285
    20  H    0.120504
    21  H    0.112517
    22  H    0.126669
    23  H    0.176177
    24  H    0.137034
    25  H    0.156745
    26  H    0.125785
    27  H    0.125387
    28  H    0.126484
    29  H    0.165257
    30  H    0.215994
 Sum of Mulliken charges =  -0.00000
 Mulliken charges with hydrogens summed into heavy atoms:
               1
     1  N   -0.332410
     2  S    0.445056
     3  C    0.118251
     4  C    0.043593
     5  C   -0.066984
     6  C    0.031416
     7  C   -0.090790
     8  C    0.099955
     9  C   -0.008814
    10  C    0.051955
    11  C   -0.010485
    12  C    0.016084
    13  C    0.030701
    14  C    0.012784
    15  C    0.006070
    16  N   -0.346382
 Electronic spatial extent (au):  <R**2>=           3855.9212
 Charge=              0.0000 electrons
 Dipole moment (field-independent basis, Debye):
    X=              0.4439    Y=              2.1002    Z=             -0.2243  Tot=              2.1583
 Quadrupole moment (field-independent basis, Debye-Ang):
   XX=            -85.2245   YY=            -98.0144   ZZ=           -105.8276
   XY=              4.2262   XZ=              3.3607   YZ=             -0.4451
 Traceless Quadrupole moment (field-independent basis, Debye-Ang):
   XX=             11.1310   YY=             -1.6589   ZZ=             -9.4721
   XY=              4.2262   XZ=              3.3607   YZ=             -0.4451
 Octapole moment (field-independent basis, Debye-Ang**2):
  XXX=             -2.1782  YYY=             -1.8702  ZZZ=             -2.7914  XYY=            -16.6351
  XXY=             21.5071  XXZ=             -3.8085  XZZ=             23.1263  YZZ=              1.3761
  YYZ=              4.6523  XYZ=             -7.5390
 Hexadecapole moment (field-independent basis, Debye-Ang**3):
 XXXX=          -3209.9438 YYYY=          -1183.3029 ZZZZ=           -523.9475 XXXY=             85.3251
 XXXZ=             -3.8023 YYYX=            -27.7559 YYYZ=            -17.1124 ZZZX=              7.6715
 ZZZY=              3.4931 XXYY=           -765.3238 XXZZ=           -660.1502 YYZZ=           -320.4947
 XXYZ=              2.9673 YYXZ=             26.2815 ZZXY=             24.8360
 N-N= 1.200923045155D+03 E-N=-4.770649587778D+03  KE= 1.006755947433D+03
 Breneman (CHELPG) radii used.
 Read replacement radii for each type of atom:
 Atom Element Radius
    1     7    1.70
    2    16    2.00
    3     6    1.50
    4     6    1.50
    5     6    1.50
    6     6    1.50
    7     6    1.50
    8     6    1.50
    9     6    1.50
   10     6    1.50
   11     6    1.50
   12     6    1.50
   13     6    1.50
   14     6    1.50
   15     6    1.50
   16     7    1.70
   17     1    1.45
   18     1    1.45
   19     1    1.45
   20     1    1.45
   21     1    1.45
   22     1    1.45
   23     1    1.45
   24     1    1.45
   25     1    1.45
   26     1    1.45
   27     1    1.45
   28     1    1.45
   29     1    1.45
   30     1    1.45
 Generate Potential Derived Charges using the Breneman model, NDens= 1.
 Grid spacing= 0.300 Box extension= 2.800
 NStep X,Y,Z=   52     41     35   Total possible points=       74620
 Number of Points to Fit=   18296

 **********************************************************************

            Electrostatic Properties Using The SCF Density.

 **********************************************************************

       Atomic Center    1 is at   0.049384 -1.988250 -1.282150
       Atomic Center    2 is at  -0.003048 -1.188807  0.045492
       Atomic Center    3 is at  -1.206296  0.164083  0.043728
       Atomic Center    4 is at  -0.774447  1.489738  0.038745
       Atomic Center    5 is at  -1.700830  2.528765 -0.010713
       Atomic Center    6 is at  -3.059257  2.235634 -0.059135
       Atomic Center    7 is at  -3.480846  0.908253 -0.064014
       Atomic Center    8 is at  -2.576438 -0.157214 -0.018654
       Atomic Center    9 is at  -3.084329 -1.567967 -0.064457
       Atomic Center   10 is at   1.571694 -0.326513 -0.025147
       Atomic Center   11 is at   2.199426 -0.063946 -1.240767
       Atomic Center   12 is at   3.427909  0.592130 -1.227338
       Atomic Center   13 is at   4.009520  0.971354 -0.015782
       Atomic Center   14 is at   3.370591  0.691240  1.191911
       Atomic Center   15 is at   2.141152  0.034490  1.192161
       Atomic Center   16 is at  -0.266683 -1.812360  1.444844
       Atomic Center   17 is at  -0.778235 -2.584745 -1.331883
       Atomic Center   18 is at   0.290552  1.718698  0.079983
       Atomic Center   19 is at  -1.353921  3.564313 -0.006655
       Atomic Center   20 is at  -3.796772  3.040758 -0.094697
       Atomic Center   21 is at  -4.549468  0.680825 -0.104481
       Atomic Center   22 is at  -4.165586 -1.596667  0.125625
       Atomic Center   23 is at  -2.568267 -2.191986  0.678297
       Atomic Center   24 is at  -2.912824 -2.008050 -1.060868
       Atomic Center   25 is at   1.721646 -0.392510 -2.164810
       Atomic Center   26 is at   3.938639  0.805056 -2.169359
       Atomic Center   27 is at   4.974017  1.484829 -0.013882
       Atomic Center   28 is at   3.832796  0.981253  2.138244
       Atomic Center   29 is at   1.610103 -0.211135  2.115802
       Atomic Center   30 is at   0.300090 -2.665745  1.498725
   18296 points will be used for fitting atomic charges
 Fitting point charges to electrostatic potential
 Charges from ESP fit, RMS=   0.00359 RRMS=   0.27115:
 ESP charges:
               1
     1  N   -0.774390
     2  S    0.409424
     3  C    0.051040
     4  C   -0.103912
     5  C   -0.114607
     6  C   -0.079398
     7  C   -0.205169
     8  C    0.197692
     9  C   -0.284579
    10  C    0.236438
    11  C   -0.124408
    12  C   -0.105654
    13  C   -0.083120
    14  C   -0.113514
    15  C   -0.102388
    16  N   -0.701638
    17  H    0.385716
    18  H    0.066812
    19  H    0.104349
    20  H    0.101715
    21  H    0.122534
    22  H    0.089120
    23  H    0.105847
    24  H    0.061189
    25  H    0.125799
    26  H    0.106079
    27  H    0.099874
    28  H    0.107180
    29  H    0.095421
    30  H    0.326548
 Sum of ESP charges =   0.00000
 ESP charges with hydrogens summed into heavy atoms:
               1
     1  N   -0.388674
     2  S    0.409424
     3  C    0.051040
     4  C   -0.037099
     5  C   -0.010258
     6  C    0.022317
     7  C   -0.082635
     8  C    0.197692
     9  C   -0.028424
    10  C    0.236438
    11  C    0.001390
    12  C    0.000425
    13  C    0.016754
    14  C   -0.006334
    15  C   -0.006967
    16  N   -0.375090
 Charge=   0.00000 Dipole=     0.4524     2.0617    -0.2166 Tot=     2.1219
 -----------------------------------------------------------------

              Electrostatic Properties (Atomic Units)

 -----------------------------------------------------------------
    Center     Electric         -------- Electric Field --------
               Potential          X             Y             Z
 -----------------------------------------------------------------
    1 Atom    -18.426432
    2 Atom    -59.074506
    3 Atom    -14.730957
    4 Atom    -14.750310
    5 Atom    -14.755741
    6 Atom    -14.754198
    7 Atom    -14.756990
    8 Atom    -14.736240
    9 Atom    -14.765889
   10 Atom    -14.731050
   11 Atom    -14.747144
   12 Atom    -14.747871
   13 Atom    -14.745473
   14 Atom    -14.747058
   15 Atom    -14.746102
   16 Atom    -18.427938
   17 Atom     -1.050805
   18 Atom     -1.092212
   19 Atom     -1.095730
   20 Atom     -1.094890
   21 Atom     -1.096873
   22 Atom     -1.109645
   23 Atom     -1.112655
   24 Atom     -1.104012
   25 Atom     -1.094091
   26 Atom     -1.090878
   27 Atom     -1.088854
   28 Atom     -1.089943
   29 Atom     -1.089499
   30 Atom     -1.053335
 -----------------------------------------------------------------
 Unable to Open any file for archive entry.
 1\1\GINC-NOTCH030\SP\RPBE1PBE\def2TZVP\C13H14N2S1\U1414944\10-Feb-2025
 \0\\#N Guess=Read Geom=Check Integral(Ultrafine) Density Pop=(ChelpG,R
 eadRadii) NMR pbe1pbe EmpiricalDispersion=GD3BJ def2TZVP\\SDI0125_3\\0
 ,1\N,0,0.3895924211,-2.271446821,0.4727098063\S,0,0.2963033853,-0.7732
 441337,0.8615257182\C,0,-1.1996649072,0.0516979776,0.2618008711\C,0,-1
 .1185389484,1.0072392624,-0.7502453708\C,0,-2.2753656699,1.6062092128,
 -1.2433939644\C,0,-3.512342042,1.2422893907,-0.7227725698\C,0,-3.58435
 28987,0.2794545838,0.2809532485\C,0,-2.442477893,-0.342813489,0.794895
 7372\C,0,-2.5813078507,-1.4007044432,1.8493470552\C,0,1.5838849745,-0.
 0797618235,-0.1822985266\C,0,1.9762643932,-0.7082569875,-1.3620245681\
 C,0,2.9930566443,-0.1297956261,-2.1178691753\C,0,3.6005936527,1.052979
 789,-1.6913798158\C,0,3.2009248605,1.6626054139,-0.5023303614\C,0,2.18
 50100388,1.0933648588,0.2636479267\N,0,0.3662336924,-0.2298942647,2.31
 63064143\H,0,-0.2614303248,-2.7973380364,1.0582343778\H,0,-0.148151826
 ,1.294300291,-1.1555757256\H,0,-2.2018580118,2.3592092242,-2.030990051
 \H,0,-4.4273197104,1.7065671329,-1.0978451878\H,0,-4.5585119979,-0.006
 3294915,0.6867292089\H,0,-3.5901104631,-1.3851209847,2.2831053036\H,0,
 -1.8404213794,-1.2545642695,2.6475537092\H,0,-2.4245302611,-2.40199843
 01,1.4148902977\H,0,1.4899420532,-1.6407900971,-1.6517759215\H,0,3.318
 0716793,-0.6080267556,-3.0448238913\H,0,4.3982679893,1.4998373965,-2.2
 896672019\H,0,3.6846246062,2.582898065,-0.1670942113\H,0,1.8465073828,
 1.5339050066,1.2053463094\H,0,1.1315065304,-0.7303867032,2.7813492575\
 \Version=ES64L-G16RevC.01\State=1-A\HF=-1010.8087477\RMSD=4.893e-09\Di
 pole=-0.0503648,0.5259737,-0.6647397\Quadrupole=6.5325011,-3.7104634,-
 2.8220377,4.1481235,-3.0416233,-4.1671161\PG=C01 [X(C13H14N2S1)]\\@
 The archive entry for this job was punched.


 AND HERE I AM, FOR ALL MY LORE,
 THE WRETCHED FOOL I WAS BEFORE.
 CALLED MASTER OF ARTS, AND DOCTOR TO BOOT,
 FOR TEN YEARS ALMOST I CONFUTE
 AND UP AND DOWN, WHEREVER IT GOES
 I DRAG MY STUDENTS BY THE NOSE --
 AND SEE THAT FOR ALL OUR SCIENCE AND ART
 WE CAN KNOW NOTHING.  IT BURNS MY HEART.

                                       -- FAUST
 Job cpu time:       0 days  1 hours 12 minutes 35.5 seconds.
 Elapsed time:       0 days  0 hours  4 minutes 54.4 seconds.
 File lengths (MBytes):  RWF=    209 Int=      0 D2E=      0 Chk=     32 Scr=      2
 Normal termination of Gaussian 16 at Mon Feb 10 20:09:53 2025.
