 Entering Gaussian System, Link 0=g16
 Input=SDI0001_5.com
 Output=SDI0001_5.log
 Initial command:
 /uufs/chpc.utah.edu/sys/installdir/gaussian16/C01/AVX/g16/l1.exe "/scratch/general/vast/u1414944/3119850-notchpeak.peaks/Gau-893875.inp" -scrdir="/scratch/general/vast/u1414944/3119850-notchpeak.peaks/"
 Entering Link 1 = /uufs/chpc.utah.edu/sys/installdir/gaussian16/C01/AVX/g16/l1.exe PID=    893876.
  
 Copyright (c) 1988-2019, Gaussian, Inc.  All Rights Reserved.
  
 This is part of the Gaussian(R) 16 program.  It is based on
 the Gaussian(R) 09 system (copyright 2009, Gaussian, Inc.),
 the Gaussian(R) 03 system (copyright 2003, Gaussian, Inc.),
 the Gaussian(R) 98 system (copyright 1998, Gaussian, Inc.),
 the Gaussian(R) 94 system (copyright 1995, Gaussian, Inc.),
 the Gaussian 92(TM) system (copyright 1992, Gaussian, Inc.),
 the Gaussian 90(TM) system (copyright 1990, Gaussian, Inc.),
 the Gaussian 88(TM) system (copyright 1988, Gaussian, Inc.),
 the Gaussian 86(TM) system (copyright 1986, Carnegie Mellon
 University), and the Gaussian 82(TM) system (copyright 1983,
 Carnegie Mellon University). Gaussian is a federally registered
 trademark of Gaussian, Inc.
  
 This software contains proprietary and confidential information,
 including trade secrets, belonging to Gaussian, Inc.
  
 This software is provided under written license and may be
 used, copied, transmitted, or stored only in accord with that
 written license.
  
 The following legend is applicable only to US Government
 contracts under FAR:
  
                    RESTRICTED RIGHTS LEGEND
  
 Use, reproduction and disclosure by the US Government is
 subject to restrictions as set forth in subparagraphs (a)
 and (c) of the Commercial Computer Software - Restricted
 Rights clause in FAR 52.227-19.
  
 Gaussian, Inc.
 340 Quinnipiac St., Bldg. 40, Wallingford CT 06492
  
  
 ---------------------------------------------------------------
 Warning -- This program may not be used in any manner that
 competes with the business of Gaussian, Inc. or will provide
 assistance to any competitor of Gaussian, Inc.  The licensee
 of this program is prohibited from giving any competitor of
 Gaussian, Inc. access to this program.  By using this program,
 the user acknowledges that Gaussian, Inc. is engaged in the
 business of creating and licensing software in the field of
 computational chemistry and represents and warrants to the
 licensee that it is not a competitor of Gaussian, Inc. and that
 it will not use this program in any manner prohibited above.
 ---------------------------------------------------------------
  

 Cite this work as:
 Gaussian 16, Revision C.01,
 M. J. Frisch, G. W. Trucks, H. B. Schlegel, G. E. Scuseria, 
 M. A. Robb, J. R. Cheeseman, G. Scalmani, V. Barone, 
 G. A. Petersson, H. Nakatsuji, X. Li, M. Caricato, A. V. Marenich, 
 J. Bloino, B. G. Janesko, R. Gomperts, B. Mennucci, H. P. Hratchian, 
 J. V. Ortiz, A. F. Izmaylov, J. L. Sonnenberg, D. Williams-Young, 
 F. Ding, F. Lipparini, F. Egidi, J. Goings, B. Peng, A. Petrone, 
 T. Henderson, D. Ranasinghe, V. G. Zakrzewski, J. Gao, N. Rega, 
 G. Zheng, W. Liang, M. Hada, M. Ehara, K. Toyota, R. Fukuda, 
 J. Hasegawa, M. Ishida, T. Nakajima, Y. Honda, O. Kitao, H. Nakai, 
 T. Vreven, K. Throssell, J. A. Montgomery, Jr., J. E. Peralta, 
 F. Ogliaro, M. J. Bearpark, J. J. Heyd, E. N. Brothers, K. N. Kudin, 
 V. N. Staroverov, T. A. Keith, R. Kobayashi, J. Normand, 
 K. Raghavachari, A. P. Rendell, J. C. Burant, S. S. Iyengar, 
 J. Tomasi, M. Cossi, J. M. Millam, M. Klene, C. Adamo, R. Cammi, 
 J. W. Ochterski, R. L. Martin, K. Morokuma, O. Farkas, 
 J. B. Foresman, and D. J. Fox, Gaussian, Inc., Wallingford CT, 2019.
 
 ******************************************
 Gaussian 16:  ES64L-G16RevC.01  3-Jul-2019
                10-Feb-2025 
 ******************************************
 %NProcShared=16
 Will use up to   16 processors via shared memory.
 %Mem=40GB
 %chk=SDI0001_5.chk
 ----------------------------------------------------------------------
 #N OPT FREQ=NORAMAN Integral(Ultrafine) pbe1pbe EmpiricalDispersion=GD
 3BJ def2SVP
 ----------------------------------------------------------------------
 1/18=20,19=15,26=4,38=1/1,3;
 2/9=110,12=2,17=6,18=5,40=1/2;
 3/5=43,7=101,11=2,25=1,30=1,71=1,74=-13,75=-5,124=41/1,2,3;
 4//1;
 5/5=2,38=5/2;
 6/7=2,8=2,9=2,10=2,28=1/1;
 7//1,2,3,16;
 1/18=20,19=15,26=4/3(2);
 2/9=110/2;
 99//99;
 2/9=110/2;
 3/5=43,7=101,11=2,25=1,30=1,71=1,74=-13,75=-5,124=41/1,2,3;
 4/5=5,16=3,69=1/1;
 5/5=2,38=5/2;
 7//1,2,3,16;
 1/18=20,19=15,26=4/3(-5);
 2/9=110/2;
 6/7=2,8=2,9=2,10=2,19=2,28=1/1;
 99/9=1/99;
 ---------
 SDI0001_5
 ---------
 Symbolic Z-matrix:
 Charge =  0 Multiplicity = 1
 O                    -1.51603  -2.4407   -0.94376 
 C                    -1.29527  -1.45767  -0.27262 
 C                    -2.41748  -0.80109   0.55944 
 C                    -1.97002  -0.91931   2.02849 
 C                    -3.69713  -1.63347   0.37357 
 N                    -2.5171    0.59618   0.1638 
 C                    -3.34457   1.51047   0.92908 
 C                    -4.75709   1.69764   0.35694 
 O                    -4.71055   2.0784   -1.00018 
 C                    -4.035     1.1028   -1.76314 
 C                    -2.60101   0.89438  -1.25622 
 C                     0.08925  -0.92239  -0.15899 
 C                     0.40381   0.37611   0.24217 
 C                     1.72559   0.77623   0.32141 
 C                     1.12212  -1.80256  -0.4956 
 C                     2.44107  -1.40375  -0.41096 
 C                     2.73053  -0.11781   0.00747 
 S                     4.4654    0.3868    0.1103 
 N                     4.35526   1.91787   0.19486 
 C                     4.8884   -0.4091    1.70336 
 N                     5.38861  -0.37947  -0.8495 
 H                    -2.81598  -0.79447   2.70016 
 H                    -1.21213  -0.17935   2.26678 
 H                    -1.55327  -1.90984   2.19997 
 H                    -3.51914  -2.65117   0.7123 
 H                    -3.9793   -1.67826  -0.67469 
 H                    -4.51337  -1.21153   0.95404 
 H                    -3.40672   1.18452   1.96528 
 H                    -2.84571   2.48851   0.90216 
 H                    -5.27142   2.50545   0.88138 
 H                    -5.34567   0.7736    0.4601 
 H                    -4.5979    0.15813  -1.73551 
 H                    -4.01964   1.47562  -2.78885 
 H                    -2.04752   1.82777  -1.4242 
 H                    -2.12087   0.10106  -1.82973 
 H                    -0.38774   1.07102   0.46794 
 H                     2.00447   1.7765    0.61135 
 H                     0.86407  -2.79929  -0.8215 
 H                     3.25261  -2.06476  -0.67663 
 H                     5.21422   2.40361  -0.00306 
 H                     5.91727  -0.16411   1.93815 
 H                     4.78107  -1.47752   1.57177 
 H                     4.21678  -0.03062   2.46467 
 H                     5.4689    0.03413  -1.764 
 

 GradGradGradGradGradGradGradGradGradGradGradGradGradGradGradGradGradGrad
 Berny optimization.
 Initialization pass.
                           ----------------------------
                           !    Initial Parameters    !
                           ! (Angstroms and Degrees)  !
 --------------------------                            --------------------------
 ! Name  Definition              Value          Derivative Info.                !
 --------------------------------------------------------------------------------
 ! R1    R(1,2)                  1.2106         estimate D2E/DX2                !
 ! R2    R(2,3)                  1.5436         estimate D2E/DX2                !
 ! R3    R(2,12)                 1.4887         estimate D2E/DX2                !
 ! R4    R(3,4)                  1.5402         estimate D2E/DX2                !
 ! R5    R(3,5)                  1.5378         estimate D2E/DX2                !
 ! R6    R(3,6)                  1.4556         estimate D2E/DX2                !
 ! R7    R(4,22)                 1.0874         estimate D2E/DX2                !
 ! R8    R(4,23)                 1.0857         estimate D2E/DX2                !
 ! R9    R(4,24)                 1.0882         estimate D2E/DX2                !
 ! R10   R(5,25)                 1.0873         estimate D2E/DX2                !
 ! R11   R(5,26)                 1.0865         estimate D2E/DX2                !
 ! R12   R(5,27)                 1.0868         estimate D2E/DX2                !
 ! R13   R(6,7)                  1.4513         estimate D2E/DX2                !
 ! R14   R(6,11)                 1.4534         estimate D2E/DX2                !
 ! R15   R(7,8)                  1.5354         estimate D2E/DX2                !
 ! R16   R(7,28)                 1.088          estimate D2E/DX2                !
 ! R17   R(7,29)                 1.0983         estimate D2E/DX2                !
 ! R18   R(8,9)                  1.4103         estimate D2E/DX2                !
 ! R19   R(8,30)                 1.0918         estimate D2E/DX2                !
 ! R20   R(8,31)                 1.1004         estimate D2E/DX2                !
 ! R21   R(9,10)                 1.4108         estimate D2E/DX2                !
 ! R22   R(10,11)                1.5352         estimate D2E/DX2                !
 ! R23   R(10,32)                1.1            estimate D2E/DX2                !
 ! R24   R(10,33)                1.0915         estimate D2E/DX2                !
 ! R25   R(11,34)                1.0981         estimate D2E/DX2                !
 ! R26   R(11,35)                1.0903         estimate D2E/DX2                !
 ! R27   R(12,13)                1.395          estimate D2E/DX2                !
 ! R28   R(12,15)                1.3982         estimate D2E/DX2                !
 ! R29   R(13,14)                1.3833         estimate D2E/DX2                !
 ! R30   R(13,36)                1.0772         estimate D2E/DX2                !
 ! R31   R(14,17)                1.3812         estimate D2E/DX2                !
 ! R32   R(14,37)                1.0781         estimate D2E/DX2                !
 ! R33   R(15,16)                1.3805         estimate D2E/DX2                !
 ! R34   R(15,38)                1.0799         estimate D2E/DX2                !
 ! R35   R(16,17)                1.3829         estimate D2E/DX2                !
 ! R36   R(16,39)                1.0799         estimate D2E/DX2                !
 ! R37   R(17,18)                1.8097         estimate D2E/DX2                !
 ! R38   R(18,19)                1.5373         estimate D2E/DX2                !
 ! R39   R(18,20)                1.8304         estimate D2E/DX2                !
 ! R40   R(18,21)                1.5365         estimate D2E/DX2                !
 ! R41   R(19,40)                1.0064         estimate D2E/DX2                !
 ! R42   R(20,41)                1.0834         estimate D2E/DX2                !
 ! R43   R(20,42)                1.0818         estimate D2E/DX2                !
 ! R44   R(20,43)                1.0835         estimate D2E/DX2                !
 ! R45   R(21,44)                1.0069         estimate D2E/DX2                !
 ! A1    A(1,2,3)              120.7744         estimate D2E/DX2                !
 ! A2    A(1,2,12)             120.2569         estimate D2E/DX2                !
 ! A3    A(3,2,12)             118.8176         estimate D2E/DX2                !
 ! A4    A(2,3,4)              105.68           estimate D2E/DX2                !
 ! A5    A(2,3,5)              108.033          estimate D2E/DX2                !
 ! A6    A(2,3,6)              108.1525         estimate D2E/DX2                !
 ! A7    A(4,3,5)              108.3898         estimate D2E/DX2                !
 ! A8    A(4,3,6)              110.6591         estimate D2E/DX2                !
 ! A9    A(5,3,6)              115.4529         estimate D2E/DX2                !
 ! A10   A(3,4,22)             110.7522         estimate D2E/DX2                !
 ! A11   A(3,4,23)             111.0899         estimate D2E/DX2                !
 ! A12   A(3,4,24)             109.3552         estimate D2E/DX2                !
 ! A13   A(22,4,23)            109.224          estimate D2E/DX2                !
 ! A14   A(22,4,24)            107.7641         estimate D2E/DX2                !
 ! A15   A(23,4,24)            108.5691         estimate D2E/DX2                !
 ! A16   A(3,5,25)             109.4367         estimate D2E/DX2                !
 ! A17   A(3,5,26)             110.7956         estimate D2E/DX2                !
 ! A18   A(3,5,27)             110.5027         estimate D2E/DX2                !
 ! A19   A(25,5,26)            107.7278         estimate D2E/DX2                !
 ! A20   A(25,5,27)            108.6596         estimate D2E/DX2                !
 ! A21   A(26,5,27)            109.6488         estimate D2E/DX2                !
 ! A22   A(3,6,7)              120.0282         estimate D2E/DX2                !
 ! A23   A(3,6,11)             117.8049         estimate D2E/DX2                !
 ! A24   A(7,6,11)             110.6717         estimate D2E/DX2                !
 ! A25   A(6,7,8)              113.8799         estimate D2E/DX2                !
 ! A26   A(6,7,28)             110.2447         estimate D2E/DX2                !
 ! A27   A(6,7,29)             106.8055         estimate D2E/DX2                !
 ! A28   A(8,7,28)             109.8058         estimate D2E/DX2                !
 ! A29   A(8,7,29)             107.4677         estimate D2E/DX2                !
 ! A30   A(28,7,29)            108.426          estimate D2E/DX2                !
 ! A31   A(7,8,9)              111.1696         estimate D2E/DX2                !
 ! A32   A(7,8,30)             110.1554         estimate D2E/DX2                !
 ! A33   A(7,8,31)             110.7786         estimate D2E/DX2                !
 ! A34   A(9,8,30)             106.1413         estimate D2E/DX2                !
 ! A35   A(9,8,31)             109.546          estimate D2E/DX2                !
 ! A36   A(30,8,31)            108.9223         estimate D2E/DX2                !
 ! A37   A(8,9,10)             110.458          estimate D2E/DX2                !
 ! A38   A(9,10,11)            111.2597         estimate D2E/DX2                !
 ! A39   A(9,10,32)            109.5883         estimate D2E/DX2                !
 ! A40   A(9,10,33)            106.1856         estimate D2E/DX2                !
 ! A41   A(11,10,32)           110.6777         estimate D2E/DX2                !
 ! A42   A(11,10,33)           110.0923         estimate D2E/DX2                !
 ! A43   A(32,10,33)           108.9145         estimate D2E/DX2                !
 ! A44   A(6,11,10)            113.8537         estimate D2E/DX2                !
 ! A45   A(6,11,34)            107.1434         estimate D2E/DX2                !
 ! A46   A(6,11,35)            109.828          estimate D2E/DX2                !
 ! A47   A(10,11,34)           107.7535         estimate D2E/DX2                !
 ! A48   A(10,11,35)           109.66           estimate D2E/DX2                !
 ! A49   A(34,11,35)           108.4235         estimate D2E/DX2                !
 ! A50   A(2,12,13)            124.4957         estimate D2E/DX2                !
 ! A51   A(2,12,15)            116.2508         estimate D2E/DX2                !
 ! A52   A(13,12,15)           119.2511         estimate D2E/DX2                !
 ! A53   A(12,13,14)           120.0787         estimate D2E/DX2                !
 ! A54   A(12,13,36)           119.6729         estimate D2E/DX2                !
 ! A55   A(14,13,36)           120.2339         estimate D2E/DX2                !
 ! A56   A(13,14,17)           119.6678         estimate D2E/DX2                !
 ! A57   A(13,14,37)           122.069          estimate D2E/DX2                !
 ! A58   A(17,14,37)           118.2589         estimate D2E/DX2                !
 ! A59   A(12,15,16)           120.6084         estimate D2E/DX2                !
 ! A60   A(12,15,38)           118.4995         estimate D2E/DX2                !
 ! A61   A(16,15,38)           120.892          estimate D2E/DX2                !
 ! A62   A(15,16,17)           119.1535         estimate D2E/DX2                !
 ! A63   A(15,16,39)           121.7414         estimate D2E/DX2                !
 ! A64   A(17,16,39)           119.0991         estimate D2E/DX2                !
 ! A65   A(14,17,16)           121.2228         estimate D2E/DX2                !
 ! A66   A(14,17,18)           120.2707         estimate D2E/DX2                !
 ! A67   A(16,17,18)           118.4982         estimate D2E/DX2                !
 ! A68   A(17,18,19)           102.2482         estimate D2E/DX2                !
 ! A69   A(17,18,20)            98.6124         estimate D2E/DX2                !
 ! A70   A(17,18,21)           113.6701         estimate D2E/DX2                !
 ! A71   A(19,18,20)           113.687          estimate D2E/DX2                !
 ! A72   A(19,18,21)           125.0363         estimate D2E/DX2                !
 ! A73   A(20,18,21)           100.8341         estimate D2E/DX2                !
 ! A74   A(18,19,40)           114.1232         estimate D2E/DX2                !
 ! A75   A(18,20,41)           108.0453         estimate D2E/DX2                !
 ! A76   A(18,20,42)           107.4968         estimate D2E/DX2                !
 ! A77   A(18,20,43)           108.4463         estimate D2E/DX2                !
 ! A78   A(41,20,42)           110.1151         estimate D2E/DX2                !
 ! A79   A(41,20,43)           110.9407         estimate D2E/DX2                !
 ! A80   A(42,20,43)           111.6517         estimate D2E/DX2                !
 ! A81   A(18,21,44)           114.2312         estimate D2E/DX2                !
 ! D1    D(1,2,3,4)            117.4359         estimate D2E/DX2                !
 ! D2    D(1,2,3,5)              1.5877         estimate D2E/DX2                !
 ! D3    D(1,2,3,6)           -124.0306         estimate D2E/DX2                !
 ! D4    D(12,2,3,4)           -58.1088         estimate D2E/DX2                !
 ! D5    D(12,2,3,5)          -173.957          estimate D2E/DX2                !
 ! D6    D(12,2,3,6)            60.4247         estimate D2E/DX2                !
 ! D7    D(1,2,12,13)          160.4955         estimate D2E/DX2                !
 ! D8    D(1,2,12,15)          -18.925          estimate D2E/DX2                !
 ! D9    D(3,2,12,13)          -23.9361         estimate D2E/DX2                !
 ! D10   D(3,2,12,15)          156.6434         estimate D2E/DX2                !
 ! D11   D(2,3,4,22)          -161.0689         estimate D2E/DX2                !
 ! D12   D(2,3,4,23)            77.3626         estimate D2E/DX2                !
 ! D13   D(2,3,4,24)           -42.4545         estimate D2E/DX2                !
 ! D14   D(5,3,4,22)           -45.4644         estimate D2E/DX2                !
 ! D15   D(5,3,4,23)          -167.0329         estimate D2E/DX2                !
 ! D16   D(5,3,4,24)            73.1501         estimate D2E/DX2                !
 ! D17   D(6,3,4,22)            82.0801         estimate D2E/DX2                !
 ! D18   D(6,3,4,23)           -39.4884         estimate D2E/DX2                !
 ! D19   D(6,3,4,24)          -159.3054         estimate D2E/DX2                !
 ! D20   D(2,3,5,25)            59.7123         estimate D2E/DX2                !
 ! D21   D(2,3,5,26)           -58.9348         estimate D2E/DX2                !
 ! D22   D(2,3,5,27)           179.3279         estimate D2E/DX2                !
 ! D23   D(4,3,5,25)           -54.3517         estimate D2E/DX2                !
 ! D24   D(4,3,5,26)          -172.9988         estimate D2E/DX2                !
 ! D25   D(4,3,5,27)            65.264          estimate D2E/DX2                !
 ! D26   D(6,3,5,25)          -179.1019         estimate D2E/DX2                !
 ! D27   D(6,3,5,26)            62.251          estimate D2E/DX2                !
 ! D28   D(6,3,5,27)           -59.4862         estimate D2E/DX2                !
 ! D29   D(2,3,6,7)           -170.2425         estimate D2E/DX2                !
 ! D30   D(2,3,6,11)            49.7817         estimate D2E/DX2                !
 ! D31   D(4,3,6,7)            -54.9278         estimate D2E/DX2                !
 ! D32   D(4,3,6,11)           165.0964         estimate D2E/DX2                !
 ! D33   D(5,3,6,7)             68.6363         estimate D2E/DX2                !
 ! D34   D(5,3,6,11)           -71.3395         estimate D2E/DX2                !
 ! D35   D(3,6,7,8)            -95.7035         estimate D2E/DX2                !
 ! D36   D(3,6,7,28)            28.2303         estimate D2E/DX2                !
 ! D37   D(3,6,7,29)           145.8312         estimate D2E/DX2                !
 ! D38   D(11,6,7,8)            46.8513         estimate D2E/DX2                !
 ! D39   D(11,6,7,28)          170.7851         estimate D2E/DX2                !
 ! D40   D(11,6,7,29)          -71.614          estimate D2E/DX2                !
 ! D41   D(3,6,11,10)           96.7696         estimate D2E/DX2                !
 ! D42   D(3,6,11,34)         -144.1983         estimate D2E/DX2                !
 ! D43   D(3,6,11,35)          -26.6302         estimate D2E/DX2                !
 ! D44   D(7,6,11,10)          -46.7102         estimate D2E/DX2                !
 ! D45   D(7,6,11,34)           72.3219         estimate D2E/DX2                !
 ! D46   D(7,6,11,35)         -170.11           estimate D2E/DX2                !
 ! D47   D(6,7,8,9)            -53.9045         estimate D2E/DX2                !
 ! D48   D(6,7,8,30)          -171.2733         estimate D2E/DX2                !
 ! D49   D(6,7,8,31)            68.1467         estimate D2E/DX2                !
 ! D50   D(28,7,8,9)          -178.0749         estimate D2E/DX2                !
 ! D51   D(28,7,8,30)           64.5563         estimate D2E/DX2                !
 ! D52   D(28,7,8,31)          -56.0237         estimate D2E/DX2                !
 ! D53   D(29,7,8,9)            64.1812         estimate D2E/DX2                !
 ! D54   D(29,7,8,30)          -53.1876         estimate D2E/DX2                !
 ! D55   D(29,7,8,31)         -173.7676         estimate D2E/DX2                !
 ! D56   D(7,8,9,10)            59.0359         estimate D2E/DX2                !
 ! D57   D(30,8,9,10)          178.821          estimate D2E/DX2                !
 ! D58   D(31,8,9,10)          -63.7282         estimate D2E/DX2                !
 ! D59   D(8,9,10,11)          -58.9535         estimate D2E/DX2                !
 ! D60   D(8,9,10,32)           63.7727         estimate D2E/DX2                !
 ! D61   D(8,9,10,33)         -178.7396         estimate D2E/DX2                !
 ! D62   D(9,10,11,6)           53.6259         estimate D2E/DX2                !
 ! D63   D(9,10,11,34)         -65.0582         estimate D2E/DX2                !
 ! D64   D(9,10,11,35)         177.117          estimate D2E/DX2                !
 ! D65   D(32,10,11,6)         -68.4713         estimate D2E/DX2                !
 ! D66   D(32,10,11,34)        172.8446         estimate D2E/DX2                !
 ! D67   D(32,10,11,35)         55.0199         estimate D2E/DX2                !
 ! D68   D(33,10,11,6)         171.0652         estimate D2E/DX2                !
 ! D69   D(33,10,11,34)         52.3811         estimate D2E/DX2                !
 ! D70   D(33,10,11,35)        -65.4436         estimate D2E/DX2                !
 ! D71   D(2,12,13,14)         179.7205         estimate D2E/DX2                !
 ! D72   D(2,12,13,36)          -1.6604         estimate D2E/DX2                !
 ! D73   D(15,12,13,14)         -0.8753         estimate D2E/DX2                !
 ! D74   D(15,12,13,36)        177.7439         estimate D2E/DX2                !
 ! D75   D(2,12,15,16)        -179.4057         estimate D2E/DX2                !
 ! D76   D(2,12,15,38)           0.5339         estimate D2E/DX2                !
 ! D77   D(13,12,15,16)          1.1418         estimate D2E/DX2                !
 ! D78   D(13,12,15,38)       -178.9187         estimate D2E/DX2                !
 ! D79   D(12,13,14,17)         -0.2959         estimate D2E/DX2                !
 ! D80   D(12,13,14,37)        178.9395         estimate D2E/DX2                !
 ! D81   D(36,13,14,17)       -178.9072         estimate D2E/DX2                !
 ! D82   D(36,13,14,37)          0.3281         estimate D2E/DX2                !
 ! D83   D(13,14,17,16)          1.2419         estimate D2E/DX2                !
 ! D84   D(13,14,17,18)       -179.8169         estimate D2E/DX2                !
 ! D85   D(37,14,17,16)       -178.0224         estimate D2E/DX2                !
 ! D86   D(37,14,17,18)          0.9187         estimate D2E/DX2                !
 ! D87   D(12,15,16,17)         -0.2266         estimate D2E/DX2                !
 ! D88   D(12,15,16,39)       -179.3202         estimate D2E/DX2                !
 ! D89   D(38,15,16,17)        179.8353         estimate D2E/DX2                !
 ! D90   D(38,15,16,39)          0.7417         estimate D2E/DX2                !
 ! D91   D(15,16,17,14)         -0.9776         estimate D2E/DX2                !
 ! D92   D(15,16,17,18)       -179.937          estimate D2E/DX2                !
 ! D93   D(39,16,17,14)        178.1402         estimate D2E/DX2                !
 ! D94   D(39,16,17,18)         -0.8192         estimate D2E/DX2                !
 ! D95   D(14,17,18,19)        -14.7436         estimate D2E/DX2                !
 ! D96   D(14,17,18,20)        101.9145         estimate D2E/DX2                !
 ! D97   D(14,17,18,21)       -152.1852         estimate D2E/DX2                !
 ! D98   D(16,17,18,19)        164.2261         estimate D2E/DX2                !
 ! D99   D(16,17,18,20)        -79.1158         estimate D2E/DX2                !
 ! D100  D(16,17,18,21)         26.7844         estimate D2E/DX2                !
 ! D101  D(17,18,19,40)       -163.434          estimate D2E/DX2                !
 ! D102  D(20,18,19,40)         91.3433         estimate D2E/DX2                !
 ! D103  D(21,18,19,40)        -32.5936         estimate D2E/DX2                !
 ! D104  D(17,18,20,41)       -177.8009         estimate D2E/DX2                !
 ! D105  D(17,18,20,42)         63.3865         estimate D2E/DX2                !
 ! D106  D(17,18,20,43)        -57.4749         estimate D2E/DX2                !
 ! D107  D(19,18,20,41)        -70.2983         estimate D2E/DX2                !
 ! D108  D(19,18,20,42)        170.8891         estimate D2E/DX2                !
 ! D109  D(19,18,20,43)         50.0277         estimate D2E/DX2                !
 ! D110  D(21,18,20,41)         65.9418         estimate D2E/DX2                !
 ! D111  D(21,18,20,42)        -52.8708         estimate D2E/DX2                !
 ! D112  D(21,18,20,43)       -173.7322         estimate D2E/DX2                !
 ! D113  D(17,18,21,44)         88.2575         estimate D2E/DX2                !
 ! D114  D(19,18,21,44)        -37.917          estimate D2E/DX2                !
 ! D115  D(20,18,21,44)       -167.2436         estimate D2E/DX2                !
 --------------------------------------------------------------------------------
 Trust Radius=3.00D-01 FncErr=1.00D-07 GrdErr=1.00D-06 EigMax=2.50D+02 EigMin=1.00D-04
 Number of steps in this run=    251 maximum allowed number of steps=    264.
 GradGradGradGradGradGradGradGradGradGradGradGradGradGradGradGradGradGrad

                          Input orientation:                          
 ---------------------------------------------------------------------
 Center     Atomic      Atomic             Coordinates (Angstroms)
 Number     Number       Type             X           Y           Z
 ---------------------------------------------------------------------
      1          8           0       -1.516031   -2.440698   -0.943764
      2          6           0       -1.295268   -1.457670   -0.272616
      3          6           0       -2.417477   -0.801085    0.559445
      4          6           0       -1.970016   -0.919309    2.028485
      5          6           0       -3.697133   -1.633466    0.373572
      6          7           0       -2.517100    0.596175    0.163804
      7          6           0       -3.344566    1.510466    0.929082
      8          6           0       -4.757087    1.697642    0.356943
      9          8           0       -4.710551    2.078396   -1.000180
     10          6           0       -4.035004    1.102796   -1.763140
     11          6           0       -2.601013    0.894383   -1.256218
     12          6           0        0.089247   -0.922390   -0.158987
     13          6           0        0.403807    0.376113    0.242167
     14          6           0        1.725589    0.776235    0.321412
     15          6           0        1.122120   -1.802563   -0.495603
     16          6           0        2.441068   -1.403748   -0.410961
     17          6           0        2.730530   -0.117812    0.007470
     18         16           0        4.465398    0.386804    0.110297
     19          7           0        4.355259    1.917869    0.194859
     20          6           0        4.888395   -0.409101    1.703357
     21          7           0        5.388614   -0.379468   -0.849497
     22          1           0       -2.815980   -0.794472    2.700165
     23          1           0       -1.212132   -0.179351    2.266780
     24          1           0       -1.553265   -1.909836    2.199970
     25          1           0       -3.519143   -2.651173    0.712295
     26          1           0       -3.979303   -1.678263   -0.674692
     27          1           0       -4.513375   -1.211530    0.954039
     28          1           0       -3.406724    1.184519    1.965280
     29          1           0       -2.845710    2.488515    0.902163
     30          1           0       -5.271419    2.505451    0.881377
     31          1           0       -5.345668    0.773603    0.460096
     32          1           0       -4.597895    0.158132   -1.735507
     33          1           0       -4.019639    1.475622   -2.788845
     34          1           0       -2.047520    1.827771   -1.424200
     35          1           0       -2.120866    0.101057   -1.829727
     36          1           0       -0.387742    1.071017    0.467936
     37          1           0        2.004471    1.776495    0.611350
     38          1           0        0.864070   -2.799288   -0.821501
     39          1           0        3.252613   -2.064755   -0.676630
     40          1           0        5.214219    2.403612   -0.003057
     41          1           0        5.917271   -0.164113    1.938154
     42          1           0        4.781066   -1.477520    1.571769
     43          1           0        4.216785   -0.030620    2.464672
     44          1           0        5.468905    0.034126   -1.764005
 ---------------------------------------------------------------------
                    Distance matrix (angstroms):
                    1          2          3          4          5
     1  O    0.000000
     2  C    1.210586   0.000000
     3  C    2.400119   1.543627   0.000000
     4  C    3.369717   2.457679   1.540220   0.000000
     5  C    2.672864   2.493475   1.537832   2.496336   0.000000
     6  N    3.383998   2.429324   1.455608   2.464352   2.531359
     7  C    4.739493   3.801781   2.517816   3.000314   3.212041
     8  C    5.414991   4.726153   3.429055   4.172559   3.495719
     9  O    5.534469   4.969635   3.997753   5.066516   4.085600
    10  C    4.424132   4.035319   3.411093   4.767547   3.488097
    11  C    3.521019   2.864366   2.490970   3.804854   3.201205
    12  C    2.344793   1.488731   2.610464   3.004264   3.889206
    13  C    3.609242   2.552375   3.073451   3.241000   4.568740
    14  C    4.738927   3.803785   4.439549   4.409814   5.934248
    15  C    2.750983   2.452028   3.826857   4.088088   4.899925
    16  C    4.125261   3.739285   4.991027   5.063915   6.192397
    17  C    4.932944   4.252144   5.222406   5.178999   6.614083
    18  S    6.699500   6.060857   6.999056   6.841047   8.412949
    19  N    7.400379   6.598580   7.307229   7.170834   8.802553
    20  C    7.221586   6.575839   7.405265   6.885043   8.773750
    21  N    7.206364   6.794821   7.943421   7.919826   9.253065
    22  H    4.204538   3.404383   2.177505   1.087379   2.625524
    23  H    3.938735   2.844213   2.180459   1.085684   3.445855
    24  H    3.188458   2.526797   2.160443   1.088224   2.829891
    25  H    2.607544   2.709265   2.158670   2.670488   1.087264
    26  H    2.592569   2.722933   2.175277   3.452595   1.086500
    27  H    3.754541   3.452749   2.171855   2.776419   1.086841
    28  H    5.017913   4.055563   2.626329   2.548375   3.249448
    29  H    5.428870   4.399586   3.335012   3.694415   4.242058
    30  H    6.472902   5.731300   4.379703   4.893271   4.457227
    31  H    5.193136   4.682006   3.326231   4.089111   2.918755
    32  H    4.108364   3.957046   3.307737   4.715322   2.910224
    33  H    5.000994   4.728404   4.354465   5.757024   4.446495
    34  H    4.328178   3.561762   3.314001   4.412878   4.234781
    35  H    2.758854   2.352836   2.570988   3.993708   3.216786
    36  H    3.949440   2.786805   2.762782   2.983337   4.274950
    37  H    5.709381   4.704201   5.118617   5.007213   6.647757
    38  H    2.410066   2.600760   4.082693   4.437204   4.857151
    39  H    4.790894   4.605975   5.939248   5.992124   7.041868
    40  H    8.345570   7.573347   8.296341   8.172037   9.790405
    41  H    8.291096   7.653857   8.471990   7.923874   9.851076
    42  H    6.849018   6.350118   7.300780   6.789499   8.563870
    43  H    7.091621   6.317590   6.945282   6.265503   8.340978
    44  H    7.455661   7.085459   8.263838   8.404139   9.558575
                    6          7          8          9         10
     6  N    0.000000
     7  C    1.451302   0.000000
     8  C    2.503611   1.535446   0.000000
     9  O    2.891896   2.431154   1.410292   0.000000
    10  C    2.504757   2.809085   2.317325   1.410768   0.000000
    11  C    1.453421   2.389135   2.810012   2.432611   1.535166
    12  C    3.033691   4.346694   5.533326   5.722795   4.866634
    13  C    2.930233   3.976042   5.328643   5.531532   4.924669
    14  C    4.249433   5.158957   6.547927   6.698219   6.134854
    15  C    4.408252   5.740834   6.895168   7.023994   6.053403
    16  C    5.377126   6.615279   7.875387   7.976099   7.074649
    17  C    5.298287   6.356686   7.712484   7.823579   7.099112
    18  S    6.985842   7.932753   9.318442   9.396419   8.733799
    19  N    6.998369   7.745474   9.116448   9.145644   8.654167
    20  C    7.630345   8.489163   9.964262  10.277963   9.691722
    21  N    8.029881   9.110633  10.426175  10.395044   9.583132
    22  H    2.907982   2.954468   3.933093   5.053249   5.000673
    23  H    2.593625   3.031863   4.442666   5.292389   5.084560
    24  H    3.369725   4.064774   5.164796   6.009610   5.562483
    25  H    3.442412   4.170937   4.535523   5.169222   4.526166
    26  H    2.830932   3.625324   3.614685   3.840983   2.986990
    27  H    2.806667   2.962431   2.979798   3.831640   3.601111
    28  H    2.093537   1.088031   2.161834   3.360496   3.781868
    29  H    2.057695   1.098253   2.139183   2.695318   3.230863
    30  H    3.427319   2.169108   1.091844   2.009280   3.238770
    31  H    2.849573   2.183420   1.100416   2.058704   2.601727
    32  H    2.851135   3.240320   2.602648   2.059323   1.100000
    33  H    3.427709   3.778878   3.238689   2.009980   1.091470
    34  H    2.063756   2.705725   3.245174   2.708199   2.142559
    35  H    2.091963   3.330902   3.778924   3.362215   2.161444
    36  H    2.202757   3.024662   4.415445   4.675132   4.275655
    37  H    4.694472   5.365065   6.766802   6.912286   6.524364
    38  H    4.892066   6.273049   7.294416   7.409462   6.333551
    39  H    6.409093   7.673545   8.909501   8.982337   8.020178
    40  H    7.941534   8.655599  10.002746   9.980034   9.504637
    41  H    8.652455   9.465943  10.950264  11.252256  10.693569
    42  H    7.716593   8.681417  10.125898  10.457067   9.772550
    43  H    7.143674   7.868101   9.378688   9.805635   9.340826
    44  H    8.234599   9.333251  10.575283  10.410754   9.563804
                   11         12         13         14         15
    11  C    0.000000
    12  C    3.426671   0.000000
    13  C    3.397455   1.394984   0.000000
    14  C    4.606774   2.407016   1.383288   0.000000
    15  C    4.659804   1.398157   2.409752   2.771621   0.000000
    16  C    5.605216   2.413765   2.782969   2.408444   1.380522
    17  C    5.571966   2.766122   2.390123   1.381226   2.382951
    18  S    7.215204   4.575719   4.063746   2.775388   4.042023
    19  N    7.179336   5.137230   4.241842   2.869583   4.977101
    20  C    8.157781   5.173356   4.781545   3.649401   4.578426
    21  N    8.100757   5.371672   5.158579   4.015523   4.511475
    22  H    4.307135   4.078168   4.216521   5.362037   5.170862
    23  H    3.936167   2.851322   2.649312   3.650727   3.964128
    24  H    4.572380   3.039338   3.590082   4.636253   3.799383
    25  H    4.158001   4.094911   4.977450   6.277510   4.870367
    26  H    2.975964   4.170179   4.926737   6.289879   5.106079
    27  H    3.602393   4.744107   5.215941   6.578457   5.848896
    28  H    3.333377   4.601455   4.259435   5.404594   5.957267
    29  H    2.694391   4.623233   3.931564   4.915888   6.009225
    30  H    3.780995   6.447417   6.095150   7.229237   7.831500
    31  H    3.239360   5.726950   5.767317   7.072618   7.027252
    32  H    2.181587   5.061842   5.382911   6.678280   6.172541
    33  H    2.167783   5.435951   5.473831   6.570426   6.514840
    34  H    1.098083   3.705391   3.300468   4.288268   4.907977
    35  H    1.090330   2.953543   3.277556   4.458530   3.990065
    36  H    2.811134   2.143413   1.077225   2.138817   3.386082
    37  H    5.047417   3.397864   2.158586   1.078128   3.848837
    38  H    5.083206   2.135889   3.380296   3.851340   1.079935
    39  H    6.584631   3.402917   3.862347   3.376257   2.154186
    40  H    8.057669   6.111623   5.225988   3.863181   5.888954
    41  H    9.158908   6.240101   5.793661   4.590022   5.621492
    42  H    8.253395   5.031586   4.936010   3.997342   4.215159
    43  H    7.821957   4.971459   4.432128   3.383878   4.634647
    44  H    8.131511   5.694886   5.458654   4.348804   4.886390
                   16         17         18         19         20
    16  C    0.000000
    17  C    1.382934   0.000000
    18  S    2.752399   1.809689   0.000000
    19  N    3.881274   2.611293   1.537349   0.000000
    20  C    3.383648   2.759938   1.830363   2.823931   0.000000
    21  N    3.151110   2.805043   1.536459   2.726950   2.601569
    22  H    6.138963   6.202600   7.818011   8.065979   7.778144
    23  H    4.692048   4.544541   6.099614   6.299765   6.130796
    24  H    4.798727   5.135106   6.772414   7.320004   6.632784
    25  H    6.192082   6.780348   8.564146   9.118667   8.757613
    26  H    6.431646   6.922587   8.728899   9.118838   9.268330
    27  H    7.089742   7.386905   9.158871   9.435155   9.465656
    28  H    6.822193   6.572288   8.126968   7.995034   8.450871
    29  H    6.695075   6.219958   7.648304   7.258091   8.297860
    30  H    8.742678   8.466192   9.994440   9.668996  10.601513
    31  H    8.132211   8.137842   9.824917   9.771780  10.376923
    32  H    7.330818   7.537900   9.252166   9.326412  10.106297
    33  H    7.462295   7.478181   9.032519   8.901516  10.153085
    34  H    5.622881   5.353946   6.844645   6.604926   7.930455
    35  H    5.008850   5.192229   6.871988   7.024240   7.865919
    36  H    3.859934   3.368823   4.914166   4.825742   5.617351
    37  H    3.368929   2.116656   2.870271   2.391580   3.779726
    38  H    2.145459   3.370635   4.897855   5.955917   5.318184
    39  H    1.079869   2.128651   2.846093   4.223342   3.328860
    40  H    4.727869   3.539265   2.154321   1.006444   3.305959
    41  H    4.374818   3.726258   2.398438   3.132668   1.083391
    42  H    3.067940   2.915568   2.389822   3.688612   1.081829
    43  H    3.648002   2.873046   2.403982   2.994635   1.083471
    44  H    3.614693   3.264951   2.155091   2.936978   3.543450
                   21         22         23         24         25
    21  N    0.000000
    22  H    8.949173   0.000000
    23  H    7.302129   1.771588   0.000000
    24  H    7.735048   1.757464   1.765054   0.000000
    25  H    9.324590   2.809520   3.721374   2.574380   0.000000
    26  H    9.459138   3.677508   4.307693   3.768682   1.755573
    27  H   10.099230   2.470635   3.699578   3.286673   1.766214
    28  H    9.366269   2.192132   2.601399   3.614612   4.036724
    29  H    8.893691   3.743220   3.412955   4.764474   5.187095
    30  H   11.178326   4.497406   5.060169   5.920989   5.448838
    31  H   10.875174   3.725063   4.610677   4.960880   3.889587
    32  H   10.040139   4.874204   5.253150   5.388343   3.879128
    33  H    9.783540   6.060640   6.015012   6.514032   5.434972
    34  H    7.778064   4.947431   4.283660   5.229589   5.176024
    35  H    7.588416   4.669591   4.205448   4.539198   3.998978
    36  H    6.099658   3.789358   2.340700   3.639213   4.870326
    37  H    4.270208   5.848912   4.112459   5.363790   7.079883
    38  H    5.131063   5.473955   4.551062   3.970381   4.646184
    39  H    2.726275   7.060041   5.670305   5.603151   6.937556
    40  H    2.914174   9.056447   7.288473   8.322139  10.116036
    41  H    2.845497   8.789067   7.136990   7.676263   9.835350
    42  H    2.727153   7.710703   6.171443   6.380070   8.426721
    43  H    3.532505   7.078044   5.434558   6.074125   8.353604
    44  H    1.006892   9.447471   7.805707   8.294755   9.701953
                   26         27         28         29         30
    26  H    0.000000
    27  H    1.776468   0.000000
    28  H    3.936092   2.826364   0.000000
    29  H    4.597123   4.058833   1.773516   0.000000
    30  H    4.646975   3.794187   2.529188   2.425856   0.000000
    31  H    3.027597   2.208493   2.488762   3.063680   1.783897
    32  H    2.209147   3.019400   4.020968   3.931684   3.579332
    33  H    3.797139   4.633977   4.802303   4.003449   4.012235
    34  H    4.072569   4.579717   3.708070   2.546695   4.021002
    35  H    2.820261   3.898248   4.150831   3.699808   4.801789
    36  H    4.665131   4.739953   3.371820   2.870446   5.106743
    37  H    7.028144   7.178303   5.609331   4.910785   7.317299
    38  H    4.973581   5.881363   6.471209   6.685383   8.287597
    39  H    7.242236   7.981080   7.866654   7.772671   9.796596
    40  H   10.081350  10.421677   8.926432   8.111047  10.523363
    41  H   10.347067  10.529195   9.421063   9.214096  11.551196
    42  H    9.046046   9.318743   8.618655   8.622385  10.834812
    43  H    8.930072   8.938246   7.735880   7.659394   9.948089
    44  H    9.663721  10.420428   9.695760   9.070022  11.334021
                   31         32         33         34         35
    31  H    0.000000
    32  H    2.399716   0.000000
    33  H    3.578659   1.783167   0.000000
    34  H    3.942033   3.064151   2.423947   0.000000
    35  H    4.011852   2.479478   2.532721   1.775211   0.000000
    36  H    4.966845   4.838792   4.894998   2.628254   3.037071
    37  H    7.419785   7.191528   6.923999   4.534835   5.077830
    38  H    7.277973   6.278121   6.782029   5.500025   4.282332
    39  H    9.125725   8.227572   8.359508   6.618311   5.907170
    40  H   10.694982  10.213772   9.689474   7.421865   7.902022
    41  H   11.398148  11.143086  11.125441   8.871918   8.881379
    42  H   10.433318  10.078609  10.256140   8.156615   7.854855
    43  H    9.803346   9.766049   9.884679   7.603845   7.656698
    44  H   11.065642  10.067604   9.651978   7.734938   7.590351
                   36         37         38         39         40
    36  H    0.000000
    37  H    2.498190   0.000000
    38  H    4.267193   4.928627   0.000000
    39  H    4.939159   4.239334   2.503131   0.000000
    40  H    5.777509   3.327649   6.831091   4.926246   0.000000
    41  H    6.590924   4.564688   6.332036   4.189265   3.294813
    42  H    5.867714   4.384119   4.776784   2.781422   4.210806
    43  H    5.138309   3.405114   5.450242   3.864597   3.606944
    44  H    6.352718   4.547578   5.488265   3.240314   2.963151
                   41         42         43         44
    41  H    0.000000
    42  H    1.774891   0.000000
    43  H    1.785132   1.791426   0.000000
    44  H    3.734476   3.726336   4.410635   0.000000
 Stoichiometry    C15H23N3O2S
 Framework group  C1[X(C15H23N3O2S)]
 Deg. of freedom   126
 Full point group                 C1      NOp   1
 Largest Abelian subgroup         C1      NOp   1
 Largest concise Abelian subgroup C1      NOp   1
                         Standard orientation:                         
 ---------------------------------------------------------------------
 Center     Atomic      Atomic             Coordinates (Angstroms)
 Number     Number       Type             X           Y           Z
 ---------------------------------------------------------------------
      1          8           0        1.376761    2.458753   -1.058904
      2          6           0        1.179688    1.506745   -0.337543
      3          6           0        2.298256    0.964164    0.577441
      4          6           0        1.782395    1.144735    2.017426
      5          6           0        3.538860    1.853670    0.391408
      6          7           0        2.488635   -0.446513    0.273241
      7          6           0        3.329661   -1.266271    1.125854
      8          6           0        4.773409   -1.408590    0.622933
      9          8           0        4.805509   -1.871545   -0.708820
     10          6           0        4.112701   -0.982119   -1.556880
     11          6           0        2.649214   -0.823710   -1.121166
     12          6           0       -0.178152    0.903233   -0.246097
     13          6           0       -0.440490   -0.384495    0.221787
     14          6           0       -1.741420   -0.851868    0.273073
     15          6           0       -1.240739    1.703142   -0.677255
     16          6           0       -2.539142    1.237551   -0.620555
     17          6           0       -2.777849   -0.035231   -0.135221
     18         16           0       -4.486385   -0.628253   -0.070358
     19          7           0       -4.299084   -2.143089    0.113039
     20          6           0       -5.019049    0.236497    1.452371
     21          7           0       -5.406736    0.027073   -1.111610
     22          1           0        2.604109    1.107259    2.728605
     23          1           0        1.055201    0.379405    2.270743
     24          1           0        1.306801    2.119083    2.110638
     25          1           0        3.292838    2.878316    0.659206
     26          1           0        3.863086    1.851490   -0.645585
     27          1           0        4.350572    1.512996    1.028815
     28          1           0        3.329852   -0.876201    2.141560
     29          1           0        2.884903   -2.270342    1.139686
     30          1           0        5.306753   -2.153939    1.216333
     31          1           0        5.307264   -0.448830    0.692032
     32          1           0        4.623083   -0.007728   -1.565392
     33          1           0        4.161225   -1.415692   -2.557364
     34          1           0        2.153648   -1.794707   -1.252947
     35          1           0        2.152853   -0.093826   -1.761255
     36          1           0        0.376293   -1.019740    0.521357
     37          1           0       -1.979169   -1.846994    0.613014
     38          1           0       -1.022040    2.691446   -1.053667
     39          1           0       -3.372365    1.835525   -0.958614
     40          1           0       -5.121816   -2.686651   -0.088411
     41          1           0       -6.042658   -0.050743    1.660826
     42          1           0       -4.962873    1.299479    1.259324
     43          1           0       -4.361710   -0.058108    2.261706
     44          1           0       -5.425612   -0.444105   -2.001254
 ---------------------------------------------------------------------
 Rotational constants (GHZ):           0.6440590           0.1301975           0.1218473
 Standard basis: def2SVP (5D, 7F)
 There are   434 symmetry adapted cartesian basis functions of A   symmetry.
 There are   413 symmetry adapted basis functions of A   symmetry.
   413 basis functions,   698 primitive gaussians,   434 cartesian basis functions
    83 alpha electrons       83 beta electrons
       nuclear repulsion energy      1916.8642395552 Hartrees.
 NAtoms=   44 NActive=   44 NUniq=   44 SFac= 1.00D+00 NAtFMM=   60 NAOKFM=F Big=F
 Integral buffers will be    131072 words long.
 Raffenetti 2 integral format.
 Two-electron integral symmetry is turned on.
 Nuclear repulsion after empirical dispersion term =     1916.8101809928 Hartrees.
 One-electron integrals computed using PRISM.
   1 Symmetry operations used in ECPInt.
 ECPInt:  NShTT=   19503 NPrTT=   70103 LenC2=   17124 LenP2D=   43391.
 LDataN:  DoStor=T MaxTD1= 4 Len=   56
 NBasis=   413 RedAO= T EigKep=  2.40D-04  NBF=   413
 NBsUse=   413 1.00D-06 EigRej= -1.00D+00 NBFU=   413
 ExpMin= 1.22D-01 ExpMax= 9.18D+03 ExpMxC= 1.38D+03 IAcc=3 IRadAn=         5 AccDes= 0.00D+00
 Harris functional with IExCor= 1009 and IRadAn=       5 diagonalized for initial guess.
 HarFok:  IExCor= 1009 AccDes= 0.00D+00 IRadAn=         5 IDoV= 1 UseB2=F ITyADJ=14
 ICtDFT=  3500011 ScaDFX=  1.000000  1.000000  1.000000  1.000000
 FoFCou: FMM=F IPFlag=           0 FMFlag=      100000 FMFlg1=           0
         NFxFlg=           0 DoJE=T BraDBF=F KetDBF=T FulRan=T
         wScrn=  0.000000 ICntrl=       500 IOpCl=  0 I1Cent=   200000004 NGrid=           0
         NMat0=    1 NMatS0=      1 NMatT0=    0 NMatD0=    1 NMtDS0=    0 NMtDT0=    0
 Petite list used in FoFCou.
 Requested convergence on RMS density matrix=1.00D-08 within 128 cycles.
 Requested convergence on MAX density matrix=1.00D-06.
 Requested convergence on             energy=1.00D-06.
 No special actions if energy rises.
 Integral accuracy reduced to 1.0D-05 until final iterations.
 Initial convergence to 1.0D-05 achieved.  Increase integral accuracy.
 SCF Done:  E(RPBE1PBE) =  -1296.27151428     A.U. after   14 cycles
            NFock= 14  Conv=0.99D-08     -V/T= 2.0073

 **********************************************************************

            Population analysis using the SCF Density.

 **********************************************************************

 Orbital symmetries:
       Occupied  (A) (A) (A) (A) (A) (A) (A) (A) (A) (A) (A) (A)
                 (A) (A) (A) (A) (A) (A) (A) (A) (A) (A) (A) (A)
                 (A) (A) (A) (A) (A) (A) (A) (A) (A) (A) (A) (A)
                 (A) (A) (A) (A) (A) (A) (A) (A) (A) (A) (A) (A)
                 (A) (A) (A) (A) (A) (A) (A) (A) (A) (A) (A) (A)
                 (A) (A) (A) (A) (A) (A) (A) (A) (A) (A) (A) (A)
                 (A) (A) (A) (A) (A) (A) (A) (A) (A) (A) (A)
       Virtual   (A) (A) (A) (A) (A) (A) (A) (A) (A) (A) (A) (A)
                 (A) (A) (A) (A) (A) (A) (A) (A) (A) (A) (A) (A)
                 (A) (A) (A) (A) (A) (A) (A) (A) (A) (A) (A) (A)
                 (A) (A) (A) (A) (A) (A) (A) (A) (A) (A) (A) (A)
                 (A) (A) (A) (A) (A) (A) (A) (A) (A) (A) (A) (A)
                 (A) (A) (A) (A) (A) (A) (A) (A) (A) (A) (A) (A)
                 (A) (A) (A) (A) (A) (A) (A) (A) (A) (A) (A) (A)
                 (A) (A) (A) (A) (A) (A) (A) (A) (A) (A) (A) (A)
                 (A) (A) (A) (A) (A) (A) (A) (A) (A) (A) (A) (A)
                 (A) (A) (A) (A) (A) (A) (A) (A) (A) (A) (A) (A)
                 (A) (A) (A) (A) (A) (A) (A) (A) (A) (A) (A) (A)
                 (A) (A) (A) (A) (A) (A) (A) (A) (A) (A) (A) (A)
                 (A) (A) (A) (A) (A) (A) (A) (A) (A) (A) (A) (A)
                 (A) (A) (A) (A) (A) (A) (A) (A) (A) (A) (A) (A)
                 (A) (A) (A) (A) (A) (A) (A) (A) (A) (A) (A) (A)
                 (A) (A) (A) (A) (A) (A) (A) (A) (A) (A) (A) (A)
                 (A) (A) (A) (A) (A) (A) (A) (A) (A) (A) (A) (A)
                 (A) (A) (A) (A) (A) (A) (A) (A) (A) (A) (A) (A)
                 (A) (A) (A) (A) (A) (A) (A) (A) (A) (A) (A) (A)
                 (A) (A) (A) (A) (A) (A) (A) (A) (A) (A) (A) (A)
                 (A) (A) (A) (A) (A) (A) (A) (A) (A) (A) (A) (A)
                 (A) (A) (A) (A) (A) (A) (A) (A) (A) (A) (A) (A)
                 (A) (A) (A) (A) (A) (A) (A) (A) (A) (A) (A) (A)
                 (A) (A) (A) (A) (A) (A) (A) (A) (A) (A) (A) (A)
                 (A) (A) (A) (A) (A) (A) (A) (A) (A) (A) (A) (A)
                 (A) (A) (A) (A) (A) (A) (A) (A) (A) (A) (A) (A)
                 (A) (A) (A) (A) (A) (A) (A) (A) (A) (A) (A) (A)
                 (A) (A) (A) (A) (A) (A)
 The electronic state is 1-A.
 Alpha  occ. eigenvalues --  -89.18447 -19.21273 -19.21156 -14.39599 -14.34646
 Alpha  occ. eigenvalues --  -14.34604 -10.32814 -10.28666 -10.27816 -10.27637
 Alpha  occ. eigenvalues --  -10.26869 -10.26519 -10.26303 -10.25851 -10.25746
 Alpha  occ. eigenvalues --  -10.25573 -10.25329 -10.25057 -10.25010 -10.23829
 Alpha  occ. eigenvalues --  -10.22367  -8.15863  -6.09996  -6.09896  -6.09871
 Alpha  occ. eigenvalues --   -1.07526  -1.06372  -1.00700  -0.96061  -0.89994
 Alpha  occ. eigenvalues --   -0.85463  -0.82425  -0.80069  -0.79373  -0.78233
 Alpha  occ. eigenvalues --   -0.76353  -0.71494  -0.70907  -0.69128  -0.67501
 Alpha  occ. eigenvalues --   -0.64658  -0.63753  -0.61393  -0.59508  -0.56666
 Alpha  occ. eigenvalues --   -0.54676  -0.53963  -0.51524  -0.50467  -0.49865
 Alpha  occ. eigenvalues --   -0.49750  -0.49118  -0.48085  -0.47420  -0.47277
 Alpha  occ. eigenvalues --   -0.46732  -0.46056  -0.45145  -0.44543  -0.44015
 Alpha  occ. eigenvalues --   -0.43344  -0.42962  -0.41926  -0.41433  -0.40618
 Alpha  occ. eigenvalues --   -0.40194  -0.39372  -0.39077  -0.38821  -0.37765
 Alpha  occ. eigenvalues --   -0.37326  -0.36753  -0.35534  -0.34861  -0.32706
 Alpha  occ. eigenvalues --   -0.29175  -0.28645  -0.28605  -0.27278  -0.26987
 Alpha  occ. eigenvalues --   -0.25842  -0.24399  -0.21783
 Alpha virt. eigenvalues --   -0.06910  -0.01899   0.01510   0.05752   0.06651
 Alpha virt. eigenvalues --    0.07537   0.08134   0.08468   0.09034   0.09581
 Alpha virt. eigenvalues --    0.09633   0.10598   0.11127   0.11226   0.11378
 Alpha virt. eigenvalues --    0.12143   0.12699   0.13000   0.13455   0.13976
 Alpha virt. eigenvalues --    0.14071   0.14952   0.15696   0.15893   0.16347
 Alpha virt. eigenvalues --    0.16978   0.17367   0.18049   0.18661   0.19489
 Alpha virt. eigenvalues --    0.19883   0.20838   0.21726   0.22069   0.22739
 Alpha virt. eigenvalues --    0.23830   0.25359   0.25495   0.26199   0.27579
 Alpha virt. eigenvalues --    0.28172   0.29116   0.29291   0.31481   0.32198
 Alpha virt. eigenvalues --    0.33124   0.35244   0.36474   0.38451   0.40637
 Alpha virt. eigenvalues --    0.41624   0.42100   0.42372   0.42966   0.43465
 Alpha virt. eigenvalues --    0.45253   0.46533   0.47260   0.47313   0.47584
 Alpha virt. eigenvalues --    0.49257   0.49692   0.50145   0.51267   0.51386
 Alpha virt. eigenvalues --    0.52691   0.53294   0.54549   0.55309   0.55895
 Alpha virt. eigenvalues --    0.56694   0.57698   0.58459   0.59063   0.59699
 Alpha virt. eigenvalues --    0.60690   0.61523   0.62289   0.62872   0.63499
 Alpha virt. eigenvalues --    0.64279   0.64531   0.65005   0.65407   0.65889
 Alpha virt. eigenvalues --    0.66495   0.66520   0.66920   0.67088   0.67308
 Alpha virt. eigenvalues --    0.67814   0.68081   0.68611   0.68929   0.69339
 Alpha virt. eigenvalues --    0.69598   0.70358   0.70492   0.70864   0.71435
 Alpha virt. eigenvalues --    0.71833   0.72389   0.72750   0.73116   0.73830
 Alpha virt. eigenvalues --    0.74198   0.74831   0.75158   0.75634   0.76563
 Alpha virt. eigenvalues --    0.77697   0.78078   0.79235   0.79946   0.80979
 Alpha virt. eigenvalues --    0.81347   0.82394   0.82691   0.83872   0.85003
 Alpha virt. eigenvalues --    0.85435   0.85722   0.86261   0.87117   0.88735
 Alpha virt. eigenvalues --    0.90071   0.91101   0.93135   0.94266   0.96685
 Alpha virt. eigenvalues --    0.96823   0.97947   0.99541   1.00838   1.02641
 Alpha virt. eigenvalues --    1.05000   1.05791   1.07157   1.08186   1.10767
 Alpha virt. eigenvalues --    1.12475   1.12858   1.14101   1.15737   1.17116
 Alpha virt. eigenvalues --    1.17195   1.18424   1.20466   1.21507   1.22327
 Alpha virt. eigenvalues --    1.22600   1.23031   1.24013   1.24549   1.24847
 Alpha virt. eigenvalues --    1.25663   1.27272   1.30198   1.30534   1.32318
 Alpha virt. eigenvalues --    1.32982   1.33873   1.35181   1.36949   1.37745
 Alpha virt. eigenvalues --    1.39253   1.41350   1.43065   1.44249   1.47277
 Alpha virt. eigenvalues --    1.47538   1.47611   1.49876   1.50650   1.51486
 Alpha virt. eigenvalues --    1.51911   1.53982   1.54556   1.55470   1.56809
 Alpha virt. eigenvalues --    1.58236   1.59357   1.59673   1.60876   1.64893
 Alpha virt. eigenvalues --    1.66485   1.68059   1.68854   1.70822   1.71673
 Alpha virt. eigenvalues --    1.72470   1.73624   1.73922   1.74662   1.75935
 Alpha virt. eigenvalues --    1.76311   1.76677   1.77364   1.77824   1.77921
 Alpha virt. eigenvalues --    1.78216   1.78763   1.79011   1.80447   1.81034
 Alpha virt. eigenvalues --    1.81688   1.82618   1.83463   1.84436   1.85167
 Alpha virt. eigenvalues --    1.85405   1.85779   1.86991   1.88013   1.88463
 Alpha virt. eigenvalues --    1.89765   1.91037   1.91784   1.92486   1.92987
 Alpha virt. eigenvalues --    1.93542   1.94458   1.95118   1.95990   1.96875
 Alpha virt. eigenvalues --    1.97340   1.97855   1.98734   1.99481   2.01269
 Alpha virt. eigenvalues --    2.01749   2.02815   2.03736   2.04548   2.05790
 Alpha virt. eigenvalues --    2.06702   2.08363   2.09630   2.11184   2.13375
 Alpha virt. eigenvalues --    2.14658   2.15355   2.15646   2.16907   2.18269
 Alpha virt. eigenvalues --    2.18958   2.20141   2.21726   2.21826   2.22818
 Alpha virt. eigenvalues --    2.24818   2.27234   2.29463   2.30146   2.31553
 Alpha virt. eigenvalues --    2.33138   2.33242   2.34526   2.35467   2.36886
 Alpha virt. eigenvalues --    2.37288   2.38680   2.38830   2.41145   2.43518
 Alpha virt. eigenvalues --    2.43943   2.44655   2.45810   2.46340   2.48535
 Alpha virt. eigenvalues --    2.49765   2.51843   2.52721   2.54625   2.55216
 Alpha virt. eigenvalues --    2.56162   2.57499   2.58404   2.59379   2.59987
 Alpha virt. eigenvalues --    2.60495   2.61212   2.65746   2.66308   2.68578
 Alpha virt. eigenvalues --    2.69429   2.70865   2.72119   2.73680   2.74115
 Alpha virt. eigenvalues --    2.75550   2.76024   2.77286   2.78002   2.83604
 Alpha virt. eigenvalues --    2.83779   2.84421   2.85575   2.87014   2.89259
 Alpha virt. eigenvalues --    2.89437   2.90325   2.91852   2.94189   2.94466
 Alpha virt. eigenvalues --    2.95052   2.95341   2.95431   2.96836   2.99219
 Alpha virt. eigenvalues --    2.99618   3.02718   3.05070   3.06637   3.07609
 Alpha virt. eigenvalues --    3.10639   3.11141   3.14663   3.17416   3.20464
 Alpha virt. eigenvalues --    3.23202   3.24192   3.27465   3.28281   3.32419
 Alpha virt. eigenvalues --    3.32679   3.41101   3.55127   3.64062   3.66834
          Condensed to atoms (all electrons):
               1          2          3          4          5          6
     1  O    7.639468   0.758692  -0.136419   0.000511   0.022334   0.000984
     2  C    0.758692   5.157171   0.057698  -0.035685  -0.071098  -0.021634
     3  C   -0.136419   0.057698   5.768042   0.378256   0.347597   0.231281
     4  C    0.000511  -0.035685   0.378256   4.608899  -0.082732  -0.058511
     5  C    0.022334  -0.071098   0.347597  -0.082732   4.614378  -0.063529
     6  N    0.000984  -0.021634   0.231281  -0.058511  -0.063529   6.926756
     7  C   -0.000191   0.006140  -0.054396  -0.013006  -0.004357   0.344187
     8  C    0.000010  -0.000521  -0.004708  -0.000359   0.004649  -0.057524
     9  O   -0.000000   0.000085  -0.000439   0.000023   0.000168  -0.008167
    10  C   -0.000198  -0.002172  -0.001685  -0.000829   0.002575  -0.056041
    11  C   -0.001373  -0.009380  -0.075804   0.009076  -0.000901   0.341376
    12  C   -0.130222   0.185250  -0.172182   0.002505   0.018337  -0.008087
    13  C    0.000746  -0.073197  -0.011819  -0.006255   0.000240  -0.024700
    14  C   -0.000077   0.010873  -0.002229  -0.000655   0.000049   0.002185
    15  C    0.013898  -0.081875   0.021223  -0.002713  -0.000508   0.000009
    16  C    0.001457   0.017487  -0.000251  -0.000035  -0.000002  -0.000015
    17  C   -0.000031  -0.000248  -0.000155  -0.000008   0.000001  -0.000028
    18  S    0.000000   0.000020  -0.000001   0.000000   0.000000   0.000000
    19  N   -0.000000  -0.000000  -0.000000  -0.000000   0.000000   0.000000
    20  C   -0.000000  -0.000001  -0.000000   0.000000   0.000000  -0.000000
    21  N   -0.000000   0.000000   0.000000  -0.000000  -0.000000  -0.000000
    22  H   -0.000184   0.005939  -0.011954   0.386798  -0.009118  -0.004618
    23  H   -0.000061  -0.018284   0.003169   0.377870   0.008274  -0.004714
    24  H    0.000954  -0.001334  -0.030104   0.390313   0.001192   0.006859
    25  H    0.003730  -0.006136  -0.008005  -0.001717   0.365206   0.006933
    26  H    0.008119  -0.013073  -0.003243   0.008232   0.382629  -0.004909
    27  H    0.000979   0.011072  -0.022813  -0.007787   0.387540  -0.004388
    28  H   -0.000005   0.001342  -0.009612   0.010729  -0.004396  -0.023122
    29  H    0.000002  -0.000215   0.008362   0.000527  -0.001064  -0.050196
    30  H   -0.000000   0.000032  -0.000018   0.000052  -0.000104   0.005740
    31  H   -0.000003  -0.000267   0.001444   0.000105  -0.002110  -0.004616
    32  H   -0.000114  -0.000814   0.002626  -0.000097  -0.001342  -0.005032
    33  H   -0.000002   0.000186  -0.000155   0.000030  -0.000096   0.005706
    34  H    0.000035  -0.000013   0.008278  -0.000133  -0.001182  -0.052355
    35  H    0.002052   0.022296  -0.011442   0.001543  -0.004177  -0.025689
    36  H   -0.000028  -0.030853   0.008037  -0.008227   0.001379   0.038684
    37  H    0.000001  -0.000214   0.000065  -0.000007  -0.000001  -0.000041
    38  H    0.018425  -0.020239   0.003228  -0.000286  -0.000122  -0.000039
    39  H   -0.000012  -0.000300   0.000008  -0.000001  -0.000000  -0.000000
    40  H    0.000000   0.000000  -0.000000   0.000000   0.000000   0.000000
    41  H    0.000000   0.000000   0.000000   0.000000  -0.000000   0.000000
    42  H    0.000000  -0.000000   0.000000  -0.000000  -0.000000  -0.000000
    43  H   -0.000000  -0.000001   0.000000  -0.000000  -0.000000   0.000000
    44  H    0.000000  -0.000000  -0.000000   0.000000  -0.000000   0.000000
               7          8          9         10         11         12
     1  O   -0.000191   0.000010  -0.000000  -0.000198  -0.001373  -0.130222
     2  C    0.006140  -0.000521   0.000085  -0.002172  -0.009380   0.185250
     3  C   -0.054396  -0.004708  -0.000439  -0.001685  -0.075804  -0.172182
     4  C   -0.013006  -0.000359   0.000023  -0.000829   0.009076   0.002505
     5  C   -0.004357   0.004649   0.000168   0.002575  -0.000901   0.018337
     6  N    0.344187  -0.057524  -0.008167  -0.056041   0.341376  -0.008087
     7  C    4.693119   0.419658  -0.053971  -0.016228  -0.062793  -0.000766
     8  C    0.419658   4.509848   0.316961  -0.037386  -0.015887   0.000028
     9  O   -0.053971   0.316961   8.006654   0.317312  -0.053989  -0.000002
    10  C   -0.016228  -0.037386   0.317312   4.491739   0.416225   0.000109
    11  C   -0.062793  -0.015887  -0.053989   0.416225   4.735898   0.000779
    12  C   -0.000766   0.000028  -0.000002   0.000109   0.000779   5.769428
    13  C   -0.000492  -0.000087   0.000005   0.000022   0.000749   0.253819
    14  C   -0.000056   0.000004  -0.000000   0.000010  -0.000179   0.107038
    15  C    0.000044  -0.000001  -0.000000   0.000017  -0.000338   0.217932
    16  C    0.000000   0.000000   0.000000  -0.000000   0.000010   0.113103
    17  C   -0.000004  -0.000000  -0.000000  -0.000000  -0.000025  -0.209053
    18  S    0.000000   0.000000   0.000000   0.000000   0.000000   0.000302
    19  N   -0.000000   0.000000  -0.000000   0.000000  -0.000000  -0.000047
    20  C   -0.000000   0.000000   0.000000  -0.000000  -0.000000  -0.000141
    21  N    0.000000  -0.000000   0.000000   0.000000  -0.000000  -0.000036
    22  H    0.000097  -0.000574  -0.000006   0.000027  -0.000462  -0.000469
    23  H   -0.000152   0.000430  -0.000000   0.000018   0.000196   0.010408
    24  H    0.000447   0.000029   0.000000   0.000026  -0.000182  -0.000674
    25  H   -0.000117  -0.000106  -0.000010  -0.000014  -0.000177   0.000795
    26  H   -0.001141   0.000183  -0.000176  -0.003539   0.004227   0.001424
    27  H    0.003223  -0.003037  -0.000188   0.000154  -0.000726  -0.000471
    28  H    0.361490  -0.017544   0.004108   0.000552   0.006476  -0.000036
    29  H    0.353940  -0.033872   0.003271  -0.006712   0.003378   0.000277
    30  H   -0.018879   0.367375  -0.025878   0.006949   0.000301  -0.000001
    31  H   -0.038937   0.368753  -0.036141  -0.000492  -0.006920  -0.000001
    32  H   -0.006317  -0.001528  -0.035871   0.372575  -0.039772  -0.000038
    33  H    0.000262   0.006950  -0.025464   0.367678  -0.017768  -0.000023
    34  H    0.002522  -0.007197   0.002972  -0.030288   0.352590   0.001306
    35  H    0.006016   0.000321   0.003671  -0.015898   0.365965  -0.004005
    36  H   -0.001271   0.000526  -0.000117   0.001029  -0.004792  -0.059158
    37  H    0.000010  -0.000000   0.000000  -0.000000   0.000015   0.015543
    38  H    0.000004  -0.000000  -0.000000   0.000001  -0.000031  -0.078761
    39  H    0.000000  -0.000000  -0.000000  -0.000000  -0.000000   0.014492
    40  H    0.000000   0.000000  -0.000000  -0.000000  -0.000000   0.000007
    41  H    0.000000  -0.000000  -0.000000   0.000000   0.000000   0.000003
    42  H    0.000000  -0.000000  -0.000000   0.000000  -0.000000   0.000020
    43  H    0.000000   0.000000   0.000000  -0.000000   0.000000   0.000017
    44  H   -0.000000   0.000000   0.000000  -0.000000  -0.000000  -0.000002
              13         14         15         16         17         18
     1  O    0.000746  -0.000077   0.013898   0.001457  -0.000031   0.000000
     2  C   -0.073197   0.010873  -0.081875   0.017487  -0.000248   0.000020
     3  C   -0.011819  -0.002229   0.021223  -0.000251  -0.000155  -0.000001
     4  C   -0.006255  -0.000655  -0.002713  -0.000035  -0.000008   0.000000
     5  C    0.000240   0.000049  -0.000508  -0.000002   0.000001   0.000000
     6  N   -0.024700   0.002185   0.000009  -0.000015  -0.000028   0.000000
     7  C   -0.000492  -0.000056   0.000044   0.000000  -0.000004   0.000000
     8  C   -0.000087   0.000004  -0.000001   0.000000  -0.000000   0.000000
     9  O    0.000005  -0.000000  -0.000000   0.000000  -0.000000   0.000000
    10  C    0.000022   0.000010   0.000017  -0.000000  -0.000000   0.000000
    11  C    0.000749  -0.000179  -0.000338   0.000010  -0.000025   0.000000
    12  C    0.253819   0.107038   0.217932   0.113103  -0.209053   0.000302
    13  C    5.225788   0.200650   0.046002  -0.147706   0.118220   0.003745
    14  C    0.200650   5.140674  -0.135392   0.065040   0.220472  -0.032069
    15  C    0.046002  -0.135392   5.140203   0.227371   0.116918   0.000743
    16  C   -0.147706   0.065040   0.227371   5.210910   0.165780  -0.058274
    17  C    0.118220   0.220472   0.116918   0.165780   5.955543   0.118274
    18  S    0.003745  -0.032069   0.000743  -0.058274   0.118274  14.617998
    19  N    0.001979  -0.001024  -0.000032   0.006808  -0.103465   0.378764
    20  C   -0.000241  -0.006145  -0.000709  -0.002858  -0.118716   0.286356
    21  N    0.000027   0.003388   0.001471   0.007910  -0.065545   0.349914
    22  H    0.000278  -0.000015   0.000090   0.000001  -0.000001  -0.000000
    23  H    0.000099   0.000259  -0.000104  -0.000003  -0.000145   0.000000
    24  H   -0.000276   0.000107  -0.000480   0.000004   0.000004  -0.000000
    25  H   -0.000060  -0.000002   0.000018   0.000000   0.000000  -0.000000
    26  H   -0.000067  -0.000000  -0.000023  -0.000001   0.000000  -0.000000
    27  H    0.000001   0.000000   0.000003  -0.000000  -0.000000  -0.000000
    28  H    0.000235  -0.000018  -0.000001   0.000000  -0.000000   0.000000
    29  H    0.001340  -0.000194  -0.000002   0.000000   0.000002  -0.000000
    30  H    0.000004  -0.000000   0.000000   0.000000   0.000000  -0.000000
    31  H   -0.000001  -0.000000   0.000000   0.000000  -0.000000  -0.000000
    32  H   -0.000012  -0.000001   0.000000   0.000000  -0.000000   0.000000
    33  H    0.000024  -0.000001  -0.000001   0.000000   0.000000  -0.000000
    34  H    0.004075  -0.000630  -0.000007   0.000002   0.000008  -0.000000
    35  H   -0.000251  -0.000218  -0.000042  -0.000017   0.000028  -0.000000
    36  H    0.439481  -0.063759   0.015015  -0.002593   0.016916  -0.000100
    37  H   -0.063720   0.451324  -0.002040   0.013617  -0.067783  -0.012842
    38  H    0.013586  -0.002152   0.467737  -0.073502   0.016614  -0.000140
    39  H   -0.001910   0.012065  -0.052011   0.446691  -0.083043  -0.007580
    40  H   -0.000054  -0.000354  -0.000009  -0.000314   0.011593  -0.018831
    41  H    0.000001   0.000013  -0.000001   0.000060   0.007491  -0.007478
    42  H   -0.000026   0.000262   0.000275   0.003661   0.001066  -0.005600
    43  H    0.000201   0.002334   0.000022  -0.001445   0.005903  -0.015285
    44  H   -0.000030  -0.000039  -0.000118  -0.000953  -0.002235  -0.011969
              19         20         21         22         23         24
     1  O   -0.000000  -0.000000  -0.000000  -0.000184  -0.000061   0.000954
     2  C   -0.000000  -0.000001   0.000000   0.005939  -0.018284  -0.001334
     3  C   -0.000000  -0.000000   0.000000  -0.011954   0.003169  -0.030104
     4  C   -0.000000   0.000000  -0.000000   0.386798   0.377870   0.390313
     5  C    0.000000   0.000000  -0.000000  -0.009118   0.008274   0.001192
     6  N    0.000000  -0.000000  -0.000000  -0.004618  -0.004714   0.006859
     7  C   -0.000000  -0.000000   0.000000   0.000097  -0.000152   0.000447
     8  C    0.000000   0.000000  -0.000000  -0.000574   0.000430   0.000029
     9  O   -0.000000   0.000000   0.000000  -0.000006  -0.000000   0.000000
    10  C    0.000000  -0.000000   0.000000   0.000027   0.000018   0.000026
    11  C   -0.000000  -0.000000  -0.000000  -0.000462   0.000196  -0.000182
    12  C   -0.000047  -0.000141  -0.000036  -0.000469   0.010408  -0.000674
    13  C    0.001979  -0.000241   0.000027   0.000278   0.000099  -0.000276
    14  C   -0.001024  -0.006145   0.003388  -0.000015   0.000259   0.000107
    15  C   -0.000032  -0.000709   0.001471   0.000090  -0.000104  -0.000480
    16  C    0.006808  -0.002858   0.007910   0.000001  -0.000003   0.000004
    17  C   -0.103465  -0.118716  -0.065545  -0.000001  -0.000145   0.000004
    18  S    0.378764   0.286356   0.349914  -0.000000   0.000000  -0.000000
    19  N    6.864692  -0.048520  -0.040169  -0.000000  -0.000000   0.000000
    20  C   -0.048520   4.951751  -0.097921   0.000000  -0.000000   0.000000
    21  N   -0.040169  -0.097921   6.909391  -0.000000   0.000000  -0.000000
    22  H   -0.000000   0.000000  -0.000000   0.619414  -0.021858  -0.017182
    23  H   -0.000000  -0.000000   0.000000  -0.021858   0.613070  -0.017091
    24  H    0.000000   0.000000  -0.000000  -0.017182  -0.017091   0.614504
    25  H    0.000000  -0.000000   0.000000  -0.001282   0.000101   0.002830
    26  H    0.000000   0.000000  -0.000000   0.000191  -0.000490  -0.000120
    27  H    0.000000  -0.000000   0.000000   0.004534   0.000047  -0.000595
    28  H   -0.000000  -0.000000   0.000000   0.002924   0.000616  -0.000499
    29  H    0.000000   0.000000   0.000000  -0.000104  -0.000253  -0.000045
    30  H   -0.000000   0.000000   0.000000   0.000041  -0.000014  -0.000001
    31  H   -0.000000   0.000000   0.000000  -0.000020  -0.000006  -0.000018
    32  H   -0.000000   0.000000   0.000000   0.000014  -0.000005  -0.000002
    33  H    0.000000   0.000000   0.000000  -0.000000  -0.000002  -0.000001
    34  H    0.000000   0.000000   0.000000   0.000019  -0.000121  -0.000001
    35  H   -0.000000   0.000000  -0.000000  -0.000040   0.000014  -0.000060
    36  H   -0.000053   0.000010   0.000000   0.000022   0.003631   0.000325
    37  H    0.032388   0.000897   0.000375   0.000000   0.000069  -0.000002
    38  H    0.000001   0.000019  -0.000009   0.000010  -0.000002  -0.000106
    39  H    0.000670  -0.000245   0.021501   0.000000   0.000000  -0.000001
    40  H    0.334827  -0.004954  -0.000473   0.000000   0.000000  -0.000000
    41  H    0.000618   0.363314   0.007340  -0.000000  -0.000000   0.000000
    42  H    0.003438   0.355022   0.003766   0.000000   0.000000   0.000000
    43  H    0.003871   0.362410   0.006078   0.000000   0.000003  -0.000000
    44  H   -0.001196   0.009198   0.326751   0.000000  -0.000000  -0.000000
              25         26         27         28         29         30
     1  O    0.003730   0.008119   0.000979  -0.000005   0.000002  -0.000000
     2  C   -0.006136  -0.013073   0.011072   0.001342  -0.000215   0.000032
     3  C   -0.008005  -0.003243  -0.022813  -0.009612   0.008362  -0.000018
     4  C   -0.001717   0.008232  -0.007787   0.010729   0.000527   0.000052
     5  C    0.365206   0.382629   0.387540  -0.004396  -0.001064  -0.000104
     6  N    0.006933  -0.004909  -0.004388  -0.023122  -0.050196   0.005740
     7  C   -0.000117  -0.001141   0.003223   0.361490   0.353940  -0.018879
     8  C   -0.000106   0.000183  -0.003037  -0.017544  -0.033872   0.367375
     9  O   -0.000010  -0.000176  -0.000188   0.004108   0.003271  -0.025878
    10  C   -0.000014  -0.003539   0.000154   0.000552  -0.006712   0.006949
    11  C   -0.000177   0.004227  -0.000726   0.006476   0.003378   0.000301
    12  C    0.000795   0.001424  -0.000471  -0.000036   0.000277  -0.000001
    13  C   -0.000060  -0.000067   0.000001   0.000235   0.001340   0.000004
    14  C   -0.000002  -0.000000   0.000000  -0.000018  -0.000194  -0.000000
    15  C    0.000018  -0.000023   0.000003  -0.000001  -0.000002   0.000000
    16  C    0.000000  -0.000001  -0.000000   0.000000   0.000000   0.000000
    17  C    0.000000   0.000000  -0.000000  -0.000000   0.000002   0.000000
    18  S   -0.000000  -0.000000  -0.000000   0.000000  -0.000000  -0.000000
    19  N    0.000000   0.000000   0.000000  -0.000000   0.000000  -0.000000
    20  C   -0.000000   0.000000  -0.000000  -0.000000   0.000000   0.000000
    21  N    0.000000  -0.000000   0.000000   0.000000   0.000000   0.000000
    22  H   -0.001282   0.000191   0.004534   0.002924  -0.000104   0.000041
    23  H    0.000101  -0.000490   0.000047   0.000616  -0.000253  -0.000014
    24  H    0.002830  -0.000120  -0.000595  -0.000499  -0.000045  -0.000001
    25  H    0.638615  -0.014887  -0.019811  -0.000023   0.000062   0.000005
    26  H   -0.014887   0.613029  -0.026046   0.000049   0.000024  -0.000005
    27  H   -0.019811  -0.026046   0.643305   0.001673   0.000018   0.000073
    28  H   -0.000023   0.000049   0.001673   0.649452  -0.014246   0.000050
    29  H    0.000062   0.000024   0.000018  -0.014246   0.688955  -0.006437
    30  H    0.000005  -0.000005   0.000073   0.000050  -0.006437   0.662162
    31  H    0.000373   0.000670   0.005067  -0.002690   0.010857  -0.027657
    32  H    0.000319   0.005262   0.000265   0.000370   0.001043   0.000039
    33  H    0.000004   0.000080   0.000002   0.000060   0.000177  -0.000207
    34  H    0.000066  -0.000032   0.000013   0.000379   0.011273   0.000229
    35  H   -0.000036   0.002295   0.000032  -0.000219   0.000367   0.000060
    36  H   -0.000093  -0.000017  -0.000036  -0.001072  -0.004046  -0.000022
    37  H    0.000000  -0.000000  -0.000000   0.000001   0.000014   0.000000
    38  H   -0.000010  -0.000011  -0.000001   0.000000  -0.000000   0.000000
    39  H   -0.000000  -0.000000   0.000000   0.000000   0.000000   0.000000
    40  H   -0.000000  -0.000000  -0.000000  -0.000000  -0.000000  -0.000000
    41  H    0.000000  -0.000000   0.000000   0.000000  -0.000000  -0.000000
    42  H   -0.000000  -0.000000  -0.000000  -0.000000  -0.000000   0.000000
    43  H   -0.000000  -0.000000  -0.000000  -0.000000   0.000000  -0.000000
    44  H   -0.000000   0.000000  -0.000000   0.000000  -0.000000  -0.000000
              31         32         33         34         35         36
     1  O   -0.000003  -0.000114  -0.000002   0.000035   0.002052  -0.000028
     2  C   -0.000267  -0.000814   0.000186  -0.000013   0.022296  -0.030853
     3  C    0.001444   0.002626  -0.000155   0.008278  -0.011442   0.008037
     4  C    0.000105  -0.000097   0.000030  -0.000133   0.001543  -0.008227
     5  C   -0.002110  -0.001342  -0.000096  -0.001182  -0.004177   0.001379
     6  N   -0.004616  -0.005032   0.005706  -0.052355  -0.025689   0.038684
     7  C   -0.038937  -0.006317   0.000262   0.002522   0.006016  -0.001271
     8  C    0.368753  -0.001528   0.006950  -0.007197   0.000321   0.000526
     9  O   -0.036141  -0.035871  -0.025464   0.002972   0.003671  -0.000117
    10  C   -0.000492   0.372575   0.367678  -0.030288  -0.015898   0.001029
    11  C   -0.006920  -0.039772  -0.017768   0.352590   0.365965  -0.004792
    12  C   -0.000001  -0.000038  -0.000023   0.001306  -0.004005  -0.059158
    13  C   -0.000001  -0.000012   0.000024   0.004075  -0.000251   0.439481
    14  C   -0.000000  -0.000001  -0.000001  -0.000630  -0.000218  -0.063759
    15  C    0.000000   0.000000  -0.000001  -0.000007  -0.000042   0.015015
    16  C    0.000000   0.000000   0.000000   0.000002  -0.000017  -0.002593
    17  C   -0.000000  -0.000000   0.000000   0.000008   0.000028   0.016916
    18  S   -0.000000   0.000000  -0.000000  -0.000000  -0.000000  -0.000100
    19  N   -0.000000  -0.000000   0.000000   0.000000  -0.000000  -0.000053
    20  C    0.000000   0.000000   0.000000   0.000000   0.000000   0.000010
    21  N    0.000000   0.000000   0.000000   0.000000  -0.000000   0.000000
    22  H   -0.000020   0.000014  -0.000000   0.000019  -0.000040   0.000022
    23  H   -0.000006  -0.000005  -0.000002  -0.000121   0.000014   0.003631
    24  H   -0.000018  -0.000002  -0.000001  -0.000001  -0.000060   0.000325
    25  H    0.000373   0.000319   0.000004   0.000066  -0.000036  -0.000093
    26  H    0.000670   0.005262   0.000080  -0.000032   0.002295  -0.000017
    27  H    0.005067   0.000265   0.000002   0.000013   0.000032  -0.000036
    28  H   -0.002690   0.000370   0.000060   0.000379  -0.000219  -0.001072
    29  H    0.010857   0.001043   0.000177   0.011273   0.000367  -0.004046
    30  H   -0.027657   0.000039  -0.000207   0.000229   0.000060  -0.000022
    31  H    0.708338   0.012880  -0.000006   0.001056   0.000375  -0.000081
    32  H    0.012880   0.703077  -0.027758   0.010598  -0.002188  -0.000114
[...]
    26  H    0.000612   0.003362   0.000274   0.000203   0.001348  -0.000073
    27  H    0.004177   0.000172  -0.000014   0.000001   0.000164  -0.000028
    28  H    0.004834   0.000760   0.000151   0.000894   0.000139  -0.003324
    29  H    0.012115   0.001385   0.000567   0.013087   0.000960  -0.010265
    30  H   -0.032011   0.000299   0.000133   0.000549   0.000118  -0.000092
    31  H    0.636111   0.012716   0.000334   0.001272   0.000937  -0.000437
    32  H    0.012716   0.629605  -0.033168   0.010958   0.003552  -0.000317
    33  H    0.000334  -0.033168   0.595400  -0.002991   0.000411  -0.000121
    34  H    0.001272   0.010958  -0.002991   0.613889  -0.015456  -0.011123
    35  H    0.000937   0.003552   0.000411  -0.015456   0.555866  -0.002043
    36  H   -0.000437  -0.000317  -0.000121  -0.011123  -0.002043   0.531231
    37  H    0.000000   0.000000   0.000000   0.000215   0.000024  -0.009072
    38  H   -0.000000  -0.000001  -0.000000  -0.000012   0.000052   0.000041
    39  H    0.000000  -0.000000  -0.000000   0.000000  -0.000001   0.000109
    40  H   -0.000000  -0.000000  -0.000000  -0.000000   0.000000   0.000002
    41  H    0.000000   0.000000  -0.000000  -0.000000  -0.000000  -0.000001
    42  H   -0.000000  -0.000000   0.000000   0.000000   0.000000   0.000007
    43  H    0.000000   0.000000  -0.000000  -0.000000   0.000000  -0.000001
    44  H    0.000000   0.000000   0.000000   0.000000   0.000000  -0.000002
              37         38         39         40         41         42
     1  O    0.000007   0.027993  -0.000113   0.000000   0.000000   0.000000
     2  C    0.000409  -0.016449  -0.000329   0.000000  -0.000000   0.000022
     3  C    0.000155   0.005885  -0.000013  -0.000000  -0.000000   0.000000
     4  C   -0.000011  -0.000318  -0.000003   0.000000   0.000000   0.000000
     5  C   -0.000008  -0.000297   0.000000  -0.000000  -0.000000   0.000000
     6  N   -0.000391  -0.000110   0.000000   0.000000   0.000000  -0.000000
     7  C    0.000068   0.000012  -0.000000  -0.000000   0.000000  -0.000000
     8  C    0.000000  -0.000001   0.000000  -0.000000  -0.000000  -0.000000
     9  O    0.000001  -0.000000   0.000000  -0.000000   0.000000   0.000000
    10  C    0.000005   0.000004   0.000000  -0.000000   0.000000  -0.000000
    11  C    0.000057  -0.000101   0.000001  -0.000000   0.000000  -0.000000
    12  C    0.016646  -0.073483   0.012926  -0.000033  -0.000019  -0.000125
    13  C   -0.070018   0.013378  -0.001545  -0.000012   0.000063   0.000066
    14  C    0.444407  -0.004076   0.003761  -0.003583  -0.000689   0.001203
    15  C   -0.002887   0.464143  -0.065001   0.000097   0.000049   0.000611
    16  C    0.009650  -0.078621   0.458447  -0.001042  -0.000209  -0.010284
    17  C   -0.055776   0.015661  -0.073007   0.018972   0.007912   0.012519
    18  S   -0.001163  -0.000273  -0.001605  -0.019084  -0.014127  -0.012542
    19  N    0.025459  -0.000003   0.002182   0.311324   0.000868   0.004918
    20  C    0.001830   0.000034  -0.002708  -0.009954   0.372372   0.359748
    21  N    0.000936  -0.000021   0.021309  -0.000923   0.005168   0.002395
    22  H    0.000001   0.000019  -0.000000   0.000000  -0.000000   0.000000
    23  H    0.000056  -0.000007   0.000000  -0.000000   0.000000  -0.000000
    24  H   -0.000001  -0.000086   0.000001  -0.000000   0.000000  -0.000000
    25  H    0.000000  -0.000044   0.000000  -0.000000   0.000000  -0.000000
    26  H    0.000000  -0.000036   0.000000   0.000000  -0.000000  -0.000000
    27  H    0.000000  -0.000002   0.000000  -0.000000  -0.000000   0.000000
    28  H    0.000016  -0.000000  -0.000000  -0.000000  -0.000000  -0.000000
    29  H    0.000155  -0.000002   0.000000  -0.000000  -0.000000  -0.000000
    30  H    0.000000   0.000000  -0.000000  -0.000000  -0.000000   0.000000
    31  H    0.000000  -0.000000   0.000000  -0.000000   0.000000  -0.000000
    32  H    0.000000  -0.000001  -0.000000  -0.000000   0.000000  -0.000000
    33  H    0.000000  -0.000000  -0.000000  -0.000000  -0.000000   0.000000
    34  H    0.000215  -0.000012   0.000000  -0.000000  -0.000000   0.000000
    35  H    0.000024   0.000052  -0.000001   0.000000  -0.000000   0.000000
    36  H   -0.009072   0.000041   0.000109   0.000002  -0.000001   0.000007
    37  H    0.485970   0.000040  -0.000289  -0.001512  -0.000096  -0.000185
    38  H    0.000040   0.504007  -0.006635  -0.000000  -0.000001   0.000010
    39  H   -0.000289  -0.006635   0.496087  -0.000075  -0.000099  -0.000682
    40  H   -0.001512  -0.000000  -0.000075   0.488774   0.002075   0.000205
    41  H   -0.000096  -0.000001  -0.000099   0.002075   0.500594  -0.010583
    42  H   -0.000185   0.000010  -0.000682   0.000205  -0.010583   0.515230
    43  H    0.000259  -0.000003   0.000352   0.000083  -0.014318  -0.017177
    44  H    0.000032   0.000013  -0.003005  -0.000337  -0.000651  -0.000816
              43         44
     1  O    0.000000   0.000000
     2  C   -0.000007  -0.000001
     3  C    0.000001  -0.000000
     4  C   -0.000001  -0.000000
     5  C    0.000000  -0.000000
     6  N   -0.000000   0.000000
     7  C    0.000000   0.000000
     8  C   -0.000000   0.000000
     9  O    0.000000   0.000000
    10  C   -0.000000   0.000000
    11  C   -0.000000   0.000000
    12  C   -0.000015  -0.000035
    13  C    0.000015  -0.000005
    14  C   -0.007321   0.002621
    15  C   -0.000162  -0.000141
    16  C    0.004719  -0.005514
    17  C    0.007159   0.000778
    18  S   -0.022669  -0.024513
    19  N    0.003196  -0.002389
    20  C    0.376586   0.013546
    21  N    0.005508   0.312332
    22  H    0.000000   0.000000
    23  H    0.000002  -0.000000
    24  H   -0.000000  -0.000000
    25  H   -0.000000  -0.000000
    26  H   -0.000000   0.000000
    27  H   -0.000000  -0.000000
    28  H    0.000000   0.000000
    29  H   -0.000000   0.000000
    30  H   -0.000000   0.000000
    31  H    0.000000   0.000000
    32  H    0.000000   0.000000
    33  H   -0.000000   0.000000
    34  H   -0.000000   0.000000
    35  H    0.000000   0.000000
    36  H   -0.000001  -0.000002
    37  H    0.000259   0.000032
    38  H   -0.000003   0.000013
    39  H    0.000352  -0.003005
    40  H    0.000083  -0.000337
    41  H   -0.014318  -0.000651
    42  H   -0.017177  -0.000816
    43  H    0.511800  -0.000597
    44  H   -0.000597   0.490714
 Mulliken charges:
               1
     1  O   -0.290025
     2  C    0.105131
     3  C    0.175786
     4  C   -0.428203
     5  C   -0.372961
     6  N   -0.163131
     7  C   -0.145011
     8  C   -0.065981
     9  O   -0.273618
    10  C   -0.050777
    11  C   -0.168836
    12  C    0.123061
    13  C   -0.142465
    14  C   -0.234685
    15  C   -0.197394
    16  C   -0.174933
    17  C    0.136229
    18  S    0.458325
    19  N   -0.552928
    20  C   -0.344554
    21  N   -0.559015
    22  H    0.134775
    23  H    0.150333
    24  H    0.145903
    25  H    0.132882
    26  H    0.130554
    27  H    0.120082
    28  H    0.112875
    29  H    0.094451
    30  H    0.113181
    31  H    0.082210
    32  H    0.086351
    33  H    0.112836
    34  H    0.102973
    35  H    0.128619
    36  H    0.160994
    37  H    0.155008
    38  H    0.149290
    39  H    0.159935
    40  H    0.215022
    41  H    0.151694
    42  H    0.155459
    43  H    0.152590
    44  H    0.217967
 Sum of Mulliken charges =  -0.00000
 Mulliken charges with hydrogens summed into heavy atoms:
               1
     1  O   -0.290025
     2  C    0.105131
     3  C    0.175786
     4  C    0.002809
     5  C    0.010557
     6  N   -0.163131
     7  C    0.062315
     8  C    0.129410
     9  O   -0.273618
    10  C    0.148409
    11  C    0.062757
    12  C    0.123061
    13  C    0.018529
    14  C   -0.079677
    15  C   -0.048105
    16  C   -0.014998
    17  C    0.136229
    18  S    0.458325
    19  N   -0.337906
    20  C    0.115189
    21  N   -0.341048
 Electronic spatial extent (au):  <R**2>=           8962.0939
 Charge=              0.0000 electrons
 Dipole moment (field-independent basis, Debye):
    X=              0.7622    Y=              0.3533    Z=              3.1255  Tot=              3.2365
 Quadrupole moment (field-independent basis, Debye-Ang):
   XX=           -137.5070   YY=           -144.7254   ZZ=           -128.0907
   XY=              1.2443   XZ=             -2.3302   YZ=              2.0436
 Traceless Quadrupole moment (field-independent basis, Debye-Ang):
   XX=             -0.7326   YY=             -7.9510   ZZ=              8.6837
   XY=              1.2443   XZ=             -2.3302   YZ=              2.0436
 Octapole moment (field-independent basis, Debye-Ang**2):
  XXX=             13.9070  YYY=             -3.1666  ZZZ=            -12.1287  XYY=            -22.1497
  XXY=              6.0853  XXZ=             75.5790  XZZ=              4.9313  YZZ=             -9.0448
  YYZ=             13.7651  XYZ=             -9.8174
 Hexadecapole moment (field-independent basis, Debye-Ang**3):
 XXXX=          -9749.6359 YYYY=          -1692.3685 ZZZZ=           -861.0509 XXXY=            317.2141
 XXXZ=           -240.6695 YYYX=            -16.3270 YYYZ=              5.5438 ZZZX=             -2.2190
 ZZZY=             14.6329 XXYY=          -1908.4276 XXZZ=          -1612.7170 YYZZ=           -420.1563
 XXYZ=            -12.2757 YYXZ=             54.1254 ZZXY=            -12.0610
 N-N= 1.911641319705D+03 E-N=-6.863601352837D+03  KE= 1.292081332237D+03
 Breneman (CHELPG) radii used.
 Read replacement radii for each type of atom:
 Atom Element Radius
    1     8    1.70
    2     6    1.50
    3     6    1.50
    4     6    1.50
    5     6    1.50
    6     7    1.70
    7     6    1.50
    8     6    1.50
    9     8    1.70
   10     6    1.50
   11     6    1.50
   12     6    1.50
   13     6    1.50
   14     6    1.50
   15     6    1.50
   16     6    1.50
   17     6    1.50
   18    16    2.00
   19     7    1.70
   20     6    1.50
   21     7    1.70
   22     1    1.45
   23     1    1.45
   24     1    1.45
   25     1    1.45
   26     1    1.45
   27     1    1.45
   28     1    1.45
   29     1    1.45
   30     1    1.45
   31     1    1.45
   32     1    1.45
   33     1    1.45
   34     1    1.45
   35     1    1.45
   36     1    1.45
   37     1    1.45
   38     1    1.45
   39     1    1.45
   40     1    1.45
   41     1    1.45
   42     1    1.45
   43     1    1.45
   44     1    1.45
 Generate Potential Derived Charges using the Breneman model, NDens= 1.
 Grid spacing= 0.300 Box extension= 2.800
 NStep X,Y,Z=   57     39     38   Total possible points=       84474
 Number of Points to Fit=   22676

 **********************************************************************

            Electrostatic Properties Using The SCF Density.

 **********************************************************************

       Atomic Center    1 is at   1.318598  2.606482 -0.918772
       Atomic Center    2 is at   1.187565  1.596656 -0.262544
       Atomic Center    3 is at   2.394395  1.042551  0.533657
       Atomic Center    4 is at   2.059417  1.285128  2.013562
       Atomic Center    5 is at   3.631927  1.870356  0.168720
       Atomic Center    6 is at   2.519640 -0.377992  0.245378
       Atomic Center    7 is at   3.247016 -1.273209  1.118996
       Atomic Center    8 is at   4.643615 -1.598090  0.604930
       Atomic Center    9 is at   4.590335 -2.084817 -0.710392
       Atomic Center   10 is at   4.008030 -1.148472 -1.580895
       Atomic Center   11 is at   2.592514 -0.796728 -1.139818
       Atomic Center   12 is at  -0.170046  0.950881 -0.174993
       Atomic Center   13 is at  -0.430091 -0.301605  0.402498
       Atomic Center   14 is at  -1.727486 -0.804289  0.449097
       Atomic Center   15 is at  -1.233378  1.683087 -0.724340
       Atomic Center   16 is at  -2.530744  1.189130 -0.685840
       Atomic Center   17 is at  -2.764135 -0.047056 -0.087560
       Atomic Center   18 is at  -4.468483 -0.633736 -0.071793
       Atomic Center   19 is at  -4.258351 -2.150471  0.160041
       Atomic Center   20 is at  -5.109589  0.233060  1.367380
       Atomic Center   21 is at  -5.343123 -0.003488 -1.187202
       Atomic Center   22 is at   2.942272  1.119552  2.648330
       Atomic Center   23 is at   1.245204  0.636987  2.364924
       Atomic Center   24 is at   1.753799  2.331769  2.156522
       Atomic Center   25 is at   3.488238  2.931635  0.412765
       Atomic Center   26 is at   3.845505  1.813832 -0.907326
       Atomic Center   27 is at   4.503489  1.495179  0.724589
       Atomic Center   28 is at   3.302249 -0.862049  2.135724
       Atomic Center   29 is at   2.689621 -2.228791  1.189967
       Atomic Center   30 is at   5.108583 -2.383143  1.220893
       Atomic Center   31 is at   5.290312 -0.697546  0.654337
       Atomic Center   32 is at   4.633036 -0.233849 -1.628050
       Atomic Center   33 is at   3.996787 -1.603533 -2.582905
       Atomic Center   34 is at   1.956354 -1.693530 -1.276288
       Atomic Center   35 is at   2.179861 -0.013750 -1.795189
       Atomic Center   36 is at   0.404908 -0.887596  0.785530
       Atomic Center   37 is at  -1.953436 -1.784975  0.870548
       Atomic Center   38 is at  -1.008607  2.646051 -1.186505
       Atomic Center   39 is at  -3.369173  1.734476 -1.128083
       Atomic Center   40 is at  -5.176948 -2.600184  0.140228
       Atomic Center   41 is at  -6.160261 -0.074173  1.455835
       Atomic Center   42 is at  -5.044393  1.316383  1.210340
       Atomic Center   43 is at  -4.525368 -0.090442  2.237290
       Atomic Center   44 is at  -5.098987 -0.470582 -2.066083
   22676 points will be used for fitting atomic charges
 Fitting point charges to electrostatic potential
 Charges from ESP fit, RMS=   0.00276 RRMS=   0.20722:
 ESP charges:
               1
     1  O   -0.460450
     2  C    0.453873
     3  C    0.386853
     4  C   -0.409907
     5  C   -0.435610
     6  N    0.020912
     7  C   -0.117833
     8  C    0.201811
     9  O   -0.444433
    10  C    0.297112
    11  C   -0.145231
    12  C   -0.113039
    13  C   -0.058354
    14  C   -0.137261
    15  C   -0.003973
    16  C   -0.208842
    17  C    0.154184
    18  S    0.647377
    19  N   -0.793169
    20  C   -0.296697
    21  N   -0.746067
    22  H    0.127368
    23  H    0.060674
    24  H    0.099354
    25  H    0.099672
    26  H    0.109086
    27  H    0.098706
    28  H    0.026299
    29  H    0.059553
    30  H    0.037022
    31  H   -0.009449
    32  H   -0.032865
    33  H    0.020385
    34  H    0.036249
    35  H    0.019051
    36  H    0.039283
    37  H    0.143167
    38  H    0.089457
    39  H    0.142689
    40  H    0.356000
    41  H    0.156539
    42  H    0.118288
    43  H    0.093073
    44  H    0.319142
 Sum of ESP charges =  -0.00000
 ESP charges with hydrogens summed into heavy atoms:
               1
     1  O   -0.460450
     2  C    0.453873
     3  C    0.386853
     4  C   -0.122511
     5  C   -0.128146
     6  N    0.020912
     7  C   -0.031981
     8  C    0.229384
     9  O   -0.444433
    10  C    0.284632
    11  C   -0.089931
    12  C   -0.113039
    13  C   -0.019071
    14  C    0.005906
    15  C    0.085484
    16  C   -0.066153
    17  C    0.154184
    18  S    0.647377
    19  N   -0.437170
    20  C    0.071204
    21  N   -0.426925
 Charge=  -0.00000 Dipole=     0.7970     0.3581     3.1013 Tot=     3.2220
 -----------------------------------------------------------------

              Electrostatic Properties (Atomic Units)

 -----------------------------------------------------------------
    Center     Electric         -------- Electric Field --------
               Potential          X             Y             Z
 -----------------------------------------------------------------
    1 Atom    -22.355866
    2 Atom    -14.673752
    3 Atom    -14.700666
    4 Atom    -14.754959
    5 Atom    -14.773577
    6 Atom    -18.367873
    7 Atom    -14.729140
    8 Atom    -14.715799
    9 Atom    -22.339385
   10 Atom    -14.717449
   11 Atom    -14.731266
   12 Atom    -14.735901
   13 Atom    -14.745167
   14 Atom    -14.744361
   15 Atom    -14.745910
   16 Atom    -14.742346
   17 Atom    -14.724085
   18 Atom    -59.071801
   19 Atom    -18.422798
   20 Atom    -14.733229
   21 Atom    -18.423894
   22 Atom     -1.098197
   23 Atom     -1.101276
   24 Atom     -1.098549
   25 Atom     -1.117316
   26 Atom     -1.116291
   27 Atom     -1.112641
   28 Atom     -1.096194
   29 Atom     -1.112746
   30 Atom     -1.108573
   31 Atom     -1.113379
   32 Atom     -1.115797
   33 Atom     -1.110459
   34 Atom     -1.114860
   35 Atom     -1.097233
   36 Atom     -1.091327
   37 Atom     -1.090790
   38 Atom     -1.093344
   39 Atom     -1.084986
   40 Atom     -1.046504
   41 Atom     -1.072373
   42 Atom     -1.074518
   43 Atom     -1.075430
   44 Atom     -1.050052
 -----------------------------------------------------------------
 Unable to Open any file for archive entry.
 1\1\GINC-NOTCH048\SP\RPBE1PBE\def2TZVP\C15H23N3O2S1\U1414944\10-Feb-20
 25\0\\#N Guess=Read Geom=Check Integral(Ultrafine) Density Pop=(ChelpG
 ,ReadRadii) NMR pbe1pbe EmpiricalDispersion=GD3BJ def2TZVP\\SDI0001_5\
 \0,1\O,0,-1.440529479,-2.6287143062,-0.6694019415\C,0,-1.2861790899,-1
 .56514621,-0.1103393799\C,0,-2.4916095842,-0.8878063551,0.5864788394\C
 ,0,-2.2121194679,-0.9964933076,2.0935444097\C,0,-3.751919342,-1.697747
 0599,0.2616110399\N,0,-2.5470955305,0.5012671816,0.157374262\C,0,-3.26
 14430082,1.5063789514,0.9144439955\C,0,-4.6266937285,1.8342238918,0.32
 37586205\O,0,-4.5129560812,2.1864798369,-1.0300485396\C,0,-3.945336817
 7,1.1465392771,-1.7849853344\C,0,-2.5601465145,0.7840403588,-1.2636422
 346\C,0,0.0946074407,-0.9683052617,-0.0395787465\C,0,0.3905682376,0.32
 36695476,0.4219930975\C,0,1.7063229378,0.7765852145,0.4638678624\C,0,1
 .1416579832,-1.7927173658,-0.4784548179\C,0,2.4572536214,-1.3492762663
 ,-0.4437886085\C,0,2.7252718366,-0.0704022023,0.03913406\S,0,4.4519509
 611,0.4468374459,0.0560982814\N,0,4.3001324907,1.9861767277,0.13208400
 49\C,0,5.0116176758,-0.2987057479,1.5937946642\N,0,5.3320092855,-0.324
 4765862,-0.9621923284\H,0,-3.1058068553,-0.7342544354,2.6786367664\H,0
 ,-1.3818381737,-0.3497287585,2.407891713\H,0,-1.9560982305,-2.03526035
 81,2.3479311985\H,0,-3.6612811519,-2.7346794633,0.6124278694\H,0,-3.93
 03309044,-1.7390870582,-0.8215077939\H,0,-4.6229651868,-1.2353153391,0
 .7482378453\H,0,-3.3648866634,1.1999188029,1.9638345524\H,0,-2.6659928
 607,2.4414141422,0.9112238671\H,0,-5.0759462756,2.693988745,0.84422948
 03\H,0,-5.3125948523,0.9693221948,0.4383114087\H,0,-4.607268002,0.2572
 621189,-1.7643696704\H,0,-3.8843856398,1.4998485624,-2.8255084782\H,0,
 -1.882302246,1.6370618587,-1.4647904933\H,0,-2.1618595842,-0.075467019
 1,-1.8253022654\H,0,-0.4297147359,0.9772400924,0.7174629105\H,0,1.9612
 912468,1.7842766335,0.7954834852\H,0,0.8898549995,-2.7868459014,-0.852
 2496647\H,0,3.284489883,-1.9684029711,-0.8019876315\H,0,5.2373422461,2
 .3949179644,0.1000899395\H,0,6.0713481748,-0.0262141061,1.6878598627\H
 ,0,4.9048100903,-1.3887831206,1.5406583503\H,0,4.4158330769,0.13187803
 37,2.4076436534\H,0,5.1347367393,0.063070128,-1.8901475896\\Version=ES
 64L-G16RevC.01\State=1-A\HF=-1297.4255586\RMSD=3.342e-09\Dipole=-0.342
 5094,-0.0051549,1.2263812\Quadrupole=-0.5694081,-6.1671802,6.7365883,0
 .879151,1.3737695,-0.3109126\PG=C01 [X(C15H23N3O2S1)]\\@
 The archive entry for this job was punched.


 IN THE WOODS WE RETURN TO REASON AND FAITH.

                                 -- EMERSON
 Job cpu time:       0 days  2 hours 44 minutes 58.6 seconds.
 Elapsed time:       0 days  0 hours 11 minutes 17.5 seconds.
 File lengths (MBytes):  RWF=    373 Int=      0 D2E=      0 Chk=     58 Scr=      2
 Normal termination of Gaussian 16 at Mon Feb 10 20:48:03 2025.
