 Entering Gaussian System, Link 0=g16
 Input=SDI0432_1.com
 Output=SDI0432_1.log
 Initial command:
 /uufs/chpc.utah.edu/sys/installdir/gaussian16/C01/AVX/g16/l1.exe "/scratch/general/vast/u1414944/3119886-notchpeak.peaks/Gau-1081581.inp" -scrdir="/scratch/general/vast/u1414944/3119886-notchpeak.peaks/"
 Entering Link 1 = /uufs/chpc.utah.edu/sys/installdir/gaussian16/C01/AVX/g16/l1.exe PID=   1081582.
  
 Copyright (c) 1988-2019, Gaussian, Inc.  All Rights Reserved.
  
 This is part of the Gaussian(R) 16 program.  It is based on
 the Gaussian(R) 09 system (copyright 2009, Gaussian, Inc.),
 the Gaussian(R) 03 system (copyright 2003, Gaussian, Inc.),
 the Gaussian(R) 98 system (copyright 1998, Gaussian, Inc.),
 the Gaussian(R) 94 system (copyright 1995, Gaussian, Inc.),
 the Gaussian 92(TM) system (copyright 1992, Gaussian, Inc.),
 the Gaussian 90(TM) system (copyright 1990, Gaussian, Inc.),
 the Gaussian 88(TM) system (copyright 1988, Gaussian, Inc.),
 the Gaussian 86(TM) system (copyright 1986, Carnegie Mellon
 University), and the Gaussian 82(TM) system (copyright 1983,
 Carnegie Mellon University). Gaussian is a federally registered
 trademark of Gaussian, Inc.
  
 This software contains proprietary and confidential information,
 including trade secrets, belonging to Gaussian, Inc.
  
 This software is provided under written license and may be
 used, copied, transmitted, or stored only in accord with that
 written license.
  
 The following legend is applicable only to US Government
 contracts under FAR:
  
                    RESTRICTED RIGHTS LEGEND
  
 Use, reproduction and disclosure by the US Government is
 subject to restrictions as set forth in subparagraphs (a)
 and (c) of the Commercial Computer Software - Restricted
 Rights clause in FAR 52.227-19.
  
 Gaussian, Inc.
 340 Quinnipiac St., Bldg. 40, Wallingford CT 06492
  
  
 ---------------------------------------------------------------
 Warning -- This program may not be used in any manner that
 competes with the business of Gaussian, Inc. or will provide
 assistance to any competitor of Gaussian, Inc.  The licensee
 of this program is prohibited from giving any competitor of
 Gaussian, Inc. access to this program.  By using this program,
 the user acknowledges that Gaussian, Inc. is engaged in the
 business of creating and licensing software in the field of
 computational chemistry and represents and warrants to the
 licensee that it is not a competitor of Gaussian, Inc. and that
 it will not use this program in any manner prohibited above.
 ---------------------------------------------------------------
  

 Cite this work as:
 Gaussian 16, Revision C.01,
 M. J. Frisch, G. W. Trucks, H. B. Schlegel, G. E. Scuseria, 
 M. A. Robb, J. R. Cheeseman, G. Scalmani, V. Barone, 
 G. A. Petersson, H. Nakatsuji, X. Li, M. Caricato, A. V. Marenich, 
 J. Bloino, B. G. Janesko, R. Gomperts, B. Mennucci, H. P. Hratchian, 
 J. V. Ortiz, A. F. Izmaylov, J. L. Sonnenberg, D. Williams-Young, 
 F. Ding, F. Lipparini, F. Egidi, J. Goings, B. Peng, A. Petrone, 
 T. Henderson, D. Ranasinghe, V. G. Zakrzewski, J. Gao, N. Rega, 
 G. Zheng, W. Liang, M. Hada, M. Ehara, K. Toyota, R. Fukuda, 
 J. Hasegawa, M. Ishida, T. Nakajima, Y. Honda, O. Kitao, H. Nakai, 
 T. Vreven, K. Throssell, J. A. Montgomery, Jr., J. E. Peralta, 
 F. Ogliaro, M. J. Bearpark, J. J. Heyd, E. N. Brothers, K. N. Kudin, 
 V. N. Staroverov, T. A. Keith, R. Kobayashi, J. Normand, 
 K. Raghavachari, A. P. Rendell, J. C. Burant, S. S. Iyengar, 
 J. Tomasi, M. Cossi, J. M. Millam, M. Klene, C. Adamo, R. Cammi, 
 J. W. Ochterski, R. L. Martin, K. Morokuma, O. Farkas, 
 J. B. Foresman, and D. J. Fox, Gaussian, Inc., Wallingford CT, 2019.
 
 ******************************************
 Gaussian 16:  ES64L-G16RevC.01  3-Jul-2019
                10-Feb-2025 
 ******************************************
 %NProcShared=16
 Will use up to   16 processors via shared memory.
 %Mem=40GB
 %chk=SDI0432_1.chk
 ----------------------------------------------------------------------
 #N OPT FREQ=NORAMAN Integral(Ultrafine) pbe1pbe EmpiricalDispersion=GD
 3BJ def2SVP
 ----------------------------------------------------------------------
 1/18=20,19=15,26=4,38=1/1,3;
 2/9=110,12=2,17=6,18=5,40=1/2;
 3/5=43,7=101,11=2,25=1,30=1,71=1,74=-13,75=-5,124=41/1,2,3;
 4//1;
 5/5=2,38=5/2;
 6/7=2,8=2,9=2,10=2,28=1/1;
 7//1,2,3,16;
 1/18=20,19=15,26=4/3(2);
 2/9=110/2;
 99//99;
 2/9=110/2;
 3/5=43,7=101,11=2,25=1,30=1,71=1,74=-13,75=-5,124=41/1,2,3;
 4/5=5,16=3,69=1/1;
 5/5=2,38=5/2;
 7//1,2,3,16;
 1/18=20,19=15,26=4/3(-5);
 2/9=110/2;
 6/7=2,8=2,9=2,10=2,19=2,28=1/1;
 99/9=1/99;
 ---------
 SDI0432_1
 ---------
 Symbolic Z-matrix:
 Charge =  0 Multiplicity = 1
 N                    -1.77995  -1.0509    1.50322 
 S                    -1.40407  -0.96428   0.02797 
 C                     0.3419   -0.47469  -0.00007 
 C                     0.97733  -0.18903   1.19309 
 C                     2.30861   0.18271   1.18417 
 C                     3.01556   0.26802  -0.01182 
 C                     4.45307   0.68883  -0.01164 
 C                     2.35983  -0.02959  -1.20072 
 C                     1.02643  -0.40117  -1.19791 
 C                    -2.13564   0.57933  -0.71694 
 C                    -1.89901   1.74002   0.22397 
 C                    -2.65881   2.99134  -0.20368 
 N                    -1.7371   -2.22423  -0.78066 
 H                    -2.41554  -1.80361   1.70273 
 H                     0.40784  -0.27017   2.10517 
 H                     2.80959   0.40813   2.11445 
 H                     4.52446   1.76944   0.11492 
 H                     4.93855   0.4228   -0.94708 
 H                     4.99004   0.22158   0.81098 
 H                     2.8973    0.02667  -2.13646 
 H                     0.52597  -0.64106  -2.12521 
 H                    -1.67107   0.72604  -1.68973 
 H                    -3.19679   0.3716   -0.84375 
 H                    -0.82891   1.95672   0.2666 
 H                    -2.21524   1.43067   1.22232 
 H                    -2.34744   3.3081   -1.19719 
 H                    -3.72924   2.80002  -0.22432 
 H                    -2.46851   3.80497   0.49164 
 H                    -1.50659  -2.16921  -1.75916 
 

 GradGradGradGradGradGradGradGradGradGradGradGradGradGradGradGradGradGrad
 Berny optimization.
 Initialization pass.
                           ----------------------------
                           !    Initial Parameters    !
                           ! (Angstroms and Degrees)  !
 --------------------------                            --------------------------
 ! Name  Definition              Value          Derivative Info.                !
 --------------------------------------------------------------------------------
 ! R1    R(1,2)                  1.5248         estimate D2E/DX2                !
 ! R2    R(1,14)                 1.0052         estimate D2E/DX2                !
 ! R3    R(2,3)                  1.8135         estimate D2E/DX2                !
 ! R4    R(2,10)                 1.8636         estimate D2E/DX2                !
 ! R5    R(2,13)                 1.5337         estimate D2E/DX2                !
 ! R6    R(3,4)                  1.3817         estimate D2E/DX2                !
 ! R7    R(3,9)                  1.3816         estimate D2E/DX2                !
 ! R8    R(4,5)                  1.3822         estimate D2E/DX2                !
 ! R9    R(4,15)                 1.0783         estimate D2E/DX2                !
 ! R10   R(5,6)                  1.3919         estimate D2E/DX2                !
 ! R11   R(5,16)                 1.0804         estimate D2E/DX2                !
 ! R12   R(6,7)                  1.4978         estimate D2E/DX2                !
 ! R13   R(6,8)                  1.39           estimate D2E/DX2                !
 ! R14   R(7,17)                 1.0903         estimate D2E/DX2                !
 ! R15   R(7,18)                 1.087          estimate D2E/DX2                !
 ! R16   R(7,19)                 1.0878         estimate D2E/DX2                !
 ! R17   R(8,9)                  1.3842         estimate D2E/DX2                !
 ! R18   R(8,20)                 1.0806         estimate D2E/DX2                !
 ! R19   R(9,21)                 1.0807         estimate D2E/DX2                !
 ! R20   R(10,11)                1.5128         estimate D2E/DX2                !
 ! R21   R(10,22)                1.088          estimate D2E/DX2                !
 ! R22   R(10,23)                1.0887         estimate D2E/DX2                !
 ! R23   R(11,12)                1.5251         estimate D2E/DX2                !
 ! R24   R(11,24)                1.0927         estimate D2E/DX2                !
 ! R25   R(11,25)                1.092          estimate D2E/DX2                !
 ! R26   R(12,26)                1.0883         estimate D2E/DX2                !
 ! R27   R(12,27)                1.0876         estimate D2E/DX2                !
 ! R28   R(12,28)                1.087          estimate D2E/DX2                !
 ! R29   R(13,29)                1.0068         estimate D2E/DX2                !
 ! A1    A(2,1,14)             112.9812         estimate D2E/DX2                !
 ! A2    A(1,2,3)              105.5222         estimate D2E/DX2                !
 ! A3    A(1,2,10)             109.6947         estimate D2E/DX2                !
 ! A4    A(1,2,13)             114.1991         estimate D2E/DX2                !
 ! A5    A(3,2,10)              98.5194         estimate D2E/DX2                !
 ! A6    A(3,2,13)             115.0037         estimate D2E/DX2                !
 ! A7    A(10,2,13)            112.6107         estimate D2E/DX2                !
 ! A8    A(2,3,4)              119.0275         estimate D2E/DX2                !
 ! A9    A(2,3,9)              120.3166         estimate D2E/DX2                !
 ! A10   A(4,3,9)              120.6534         estimate D2E/DX2                !
 ! A11   A(3,4,5)              119.5367         estimate D2E/DX2                !
 ! A12   A(3,4,15)             118.1634         estimate D2E/DX2                !
 ! A13   A(5,4,15)             122.2994         estimate D2E/DX2                !
 ! A14   A(4,5,6)              120.7434         estimate D2E/DX2                !
 ! A15   A(4,5,16)             119.8135         estimate D2E/DX2                !
 ! A16   A(6,5,16)             119.443          estimate D2E/DX2                !
 ! A17   A(5,6,7)              120.3017         estimate D2E/DX2                !
 ! A18   A(5,6,8)              118.8302         estimate D2E/DX2                !
 ! A19   A(7,6,8)              120.8645         estimate D2E/DX2                !
 ! A20   A(6,7,17)             109.9551         estimate D2E/DX2                !
 ! A21   A(6,7,18)             111.0873         estimate D2E/DX2                !
 ! A22   A(6,7,19)             110.6802         estimate D2E/DX2                !
 ! A23   A(17,7,18)            108.2531         estimate D2E/DX2                !
 ! A24   A(17,7,19)            107.7941         estimate D2E/DX2                !
 ! A25   A(18,7,19)            108.9773         estimate D2E/DX2                !
 ! A26   A(6,8,9)              120.676          estimate D2E/DX2                !
 ! A27   A(6,8,20)             119.6636         estimate D2E/DX2                !
 ! A28   A(9,8,20)             119.6601         estimate D2E/DX2                !
 ! A29   A(3,9,8)              119.5588         estimate D2E/DX2                !
 ! A30   A(3,9,21)             120.1773         estimate D2E/DX2                !
 ! A31   A(8,9,21)             120.2615         estimate D2E/DX2                !
 ! A32   A(2,10,11)            108.9961         estimate D2E/DX2                !
 ! A33   A(2,10,22)            107.5463         estimate D2E/DX2                !
 ! A34   A(2,10,23)            105.7321         estimate D2E/DX2                !
 ! A35   A(11,10,22)           112.6984         estimate D2E/DX2                !
 ! A36   A(11,10,23)           111.796          estimate D2E/DX2                !
 ! A37   A(22,10,23)           109.7422         estimate D2E/DX2                !
 ! A38   A(10,11,12)           112.1592         estimate D2E/DX2                !
 ! A39   A(10,11,24)           109.2459         estimate D2E/DX2                !
 ! A40   A(10,11,25)           107.8182         estimate D2E/DX2                !
 ! A41   A(12,11,24)           109.641          estimate D2E/DX2                !
 ! A42   A(12,11,25)           110.1527         estimate D2E/DX2                !
 ! A43   A(24,11,25)           107.7059         estimate D2E/DX2                !
 ! A44   A(11,12,26)           110.6255         estimate D2E/DX2                !
 ! A45   A(11,12,27)           110.5681         estimate D2E/DX2                !
 ! A46   A(11,12,28)           110.3363         estimate D2E/DX2                !
 ! A47   A(26,12,27)           108.3894         estimate D2E/DX2                !
 ! A48   A(26,12,28)           108.421          estimate D2E/DX2                !
 ! A49   A(27,12,28)           108.428          estimate D2E/DX2                !
 ! A50   A(2,13,29)            114.6969         estimate D2E/DX2                !
 ! D1    D(14,1,2,3)          -143.1163         estimate D2E/DX2                !
 ! D2    D(14,1,2,10)          111.652          estimate D2E/DX2                !
 ! D3    D(14,1,2,13)          -15.8332         estimate D2E/DX2                !
 ! D4    D(1,2,3,4)             -4.2088         estimate D2E/DX2                !
 ! D5    D(1,2,3,9)            175.2194         estimate D2E/DX2                !
 ! D6    D(10,2,3,4)           109.0741         estimate D2E/DX2                !
 ! D7    D(10,2,3,9)           -71.4976         estimate D2E/DX2                !
 ! D8    D(13,2,3,4)          -131.0038         estimate D2E/DX2                !
 ! D9    D(13,2,3,9)            48.4245         estimate D2E/DX2                !
 ! D10   D(1,2,10,11)           45.0163         estimate D2E/DX2                !
 ! D11   D(1,2,10,22)          167.4869         estimate D2E/DX2                !
 ! D12   D(1,2,10,23)          -75.3113         estimate D2E/DX2                !
 ! D13   D(3,2,10,11)          -64.9233         estimate D2E/DX2                !
 ! D14   D(3,2,10,22)           57.5473         estimate D2E/DX2                !
 ! D15   D(3,2,10,23)          174.7491         estimate D2E/DX2                !
 ! D16   D(13,2,10,11)         173.3839         estimate D2E/DX2                !
 ! D17   D(13,2,10,22)         -64.1455         estimate D2E/DX2                !
 ! D18   D(13,2,10,23)          53.0563         estimate D2E/DX2                !
 ! D19   D(1,2,13,29)          178.9925         estimate D2E/DX2                !
 ! D20   D(3,2,13,29)          -58.7771         estimate D2E/DX2                !
 ! D21   D(10,2,13,29)          53.0196         estimate D2E/DX2                !
 ! D22   D(2,3,4,5)            179.8776         estimate D2E/DX2                !
 ! D23   D(2,3,4,15)             0.1214         estimate D2E/DX2                !
 ! D24   D(9,3,4,5)              0.4514         estimate D2E/DX2                !
 ! D25   D(9,3,4,15)          -179.3049         estimate D2E/DX2                !
 ! D26   D(2,3,9,8)           -179.8095         estimate D2E/DX2                !
 ! D27   D(2,3,9,21)            -0.3663         estimate D2E/DX2                !
 ! D28   D(4,3,9,8)             -0.3906         estimate D2E/DX2                !
 ! D29   D(4,3,9,21)           179.0526         estimate D2E/DX2                !
 ! D30   D(3,4,5,6)             -0.203          estimate D2E/DX2                !
 ! D31   D(3,4,5,16)           179.9331         estimate D2E/DX2                !
 ! D32   D(15,4,5,6)           179.5428         estimate D2E/DX2                !
 ! D33   D(15,4,5,16)           -0.3211         estimate D2E/DX2                !
 ! D34   D(4,5,6,7)            179.2148         estimate D2E/DX2                !
 ! D35   D(4,5,6,8)             -0.1004         estimate D2E/DX2                !
 ! D36   D(16,5,6,7)            -0.9208         estimate D2E/DX2                !
 ! D37   D(16,5,6,8)           179.764          estimate D2E/DX2                !
 ! D38   D(5,6,7,17)           -77.3343         estimate D2E/DX2                !
 ! D39   D(5,6,7,18)           162.8542         estimate D2E/DX2                !
 ! D40   D(5,6,7,19)            41.6496         estimate D2E/DX2                !
 ! D41   D(8,6,7,17)           101.9668         estimate D2E/DX2                !
 ! D42   D(8,6,7,18)           -17.8446         estimate D2E/DX2                !
 ! D43   D(8,6,7,19)          -139.0493         estimate D2E/DX2                !
 ! D44   D(5,6,8,9)              0.162          estimate D2E/DX2                !
 ! D45   D(5,6,8,20)          -179.6437         estimate D2E/DX2                !
 ! D46   D(7,6,8,9)           -179.1492         estimate D2E/DX2                !
 ! D47   D(7,6,8,20)             1.045          estimate D2E/DX2                !
 ! D48   D(6,8,9,3)              0.0804         estimate D2E/DX2                !
 ! D49   D(6,8,9,21)          -179.3624         estimate D2E/DX2                !
 ! D50   D(20,8,9,3)           179.8861         estimate D2E/DX2                !
 ! D51   D(20,8,9,21)            0.4433         estimate D2E/DX2                !
 ! D52   D(2,10,11,12)        -170.8248         estimate D2E/DX2                !
 ! D53   D(2,10,11,24)          67.3988         estimate D2E/DX2                !
 ! D54   D(2,10,11,25)         -49.3823         estimate D2E/DX2                !
 ! D55   D(22,10,11,12)         69.861          estimate D2E/DX2                !
 ! D56   D(22,10,11,24)        -51.9154         estimate D2E/DX2                !
 ! D57   D(22,10,11,25)       -168.6965         estimate D2E/DX2                !
 ! D58   D(23,10,11,12)        -54.3056         estimate D2E/DX2                !
 ! D59   D(23,10,11,24)       -176.082          estimate D2E/DX2                !
 ! D60   D(23,10,11,25)         67.1369         estimate D2E/DX2                !
 ! D61   D(10,11,12,26)        -60.0597         estimate D2E/DX2                !
 ! D62   D(10,11,12,27)         60.0238         estimate D2E/DX2                !
 ! D63   D(10,11,12,28)        179.9679         estimate D2E/DX2                !
 ! D64   D(24,11,12,26)         61.4905         estimate D2E/DX2                !
 ! D65   D(24,11,12,27)       -178.4259         estimate D2E/DX2                !
 ! D66   D(24,11,12,28)        -58.4818         estimate D2E/DX2                !
 ! D67   D(25,11,12,26)        179.8469         estimate D2E/DX2                !
 ! D68   D(25,11,12,27)        -60.0695         estimate D2E/DX2                !
 ! D69   D(25,11,12,28)         59.8746         estimate D2E/DX2                !
 --------------------------------------------------------------------------------
 Trust Radius=3.00D-01 FncErr=1.00D-07 GrdErr=1.00D-06 EigMax=2.50D+02 EigMin=1.00D-04
 Number of steps in this run=    158 maximum allowed number of steps=    174.
 GradGradGradGradGradGradGradGradGradGradGradGradGradGradGradGradGradGrad

                          Input orientation:                          
 ---------------------------------------------------------------------
 Center     Atomic      Atomic             Coordinates (Angstroms)
 Number     Number       Type             X           Y           Z
 ---------------------------------------------------------------------
      1          7           0       -1.779946   -1.050897    1.503223
      2         16           0       -1.404071   -0.964284    0.027972
      3          6           0        0.341900   -0.474695   -0.000070
      4          6           0        0.977326   -0.189030    1.193087
      5          6           0        2.308607    0.182711    1.184174
      6          6           0        3.015557    0.268024   -0.011822
      7          6           0        4.453072    0.688829   -0.011643
      8          6           0        2.359834   -0.029586   -1.200715
      9          6           0        1.026428   -0.401166   -1.197913
     10          6           0       -2.135642    0.579333   -0.716942
     11          6           0       -1.899014    1.740017    0.223970
     12          6           0       -2.658813    2.991340   -0.203680
     13          7           0       -1.737104   -2.224225   -0.780665
     14          1           0       -2.415539   -1.803614    1.702730
     15          1           0        0.407839   -0.270170    2.105166
     16          1           0        2.809588    0.408132    2.114449
     17          1           0        4.524458    1.769439    0.114925
     18          1           0        4.938554    0.422803   -0.947076
     19          1           0        4.990035    0.221579    0.810978
     20          1           0        2.897297    0.026665   -2.136461
     21          1           0        0.525965   -0.641060   -2.125214
     22          1           0       -1.671072    0.726039   -1.689733
     23          1           0       -3.196794    0.371599   -0.843746
     24          1           0       -0.828912    1.956719    0.266599
     25          1           0       -2.215243    1.430672    1.222323
     26          1           0       -2.347441    3.308098   -1.197190
     27          1           0       -3.729242    2.800020   -0.224324
     28          1           0       -2.468505    3.804967    0.491640
     29          1           0       -1.506586   -2.169207   -1.759161
 ---------------------------------------------------------------------
                    Distance matrix (angstroms):
                    1          2          3          4          5
     1  N    0.000000
     2  S    1.524844   0.000000
     3  C    2.663480   1.813533   0.000000
     4  C    2.905434   2.762167   1.381664   0.000000
     5  C    4.282504   4.054181   2.388002   1.382237   0.000000
     6  C    5.199207   4.588386   2.774926   2.411450   1.391928
     7  C    6.646199   6.086089   4.272664   3.781907   2.506963
     8  C    5.048973   4.068208   2.389922   2.768942   2.394868
     9  C    3.948927   2.779789   1.381599   2.400895   2.767533
    10  C    2.777283   1.863558   2.786233   3.732179   4.850041
    11  C    3.072436   2.756198   3.158613   3.596351   4.588166
    12  C    4.474997   4.156321   4.589023   5.028639   5.872801
    13  N    2.568011   1.533706   2.827091   3.925028   5.101148
    14  H    1.005169   2.128933   3.502716   3.791853   5.150916
    15  H    2.399639   2.842454   2.116175   1.078326   2.160150
    16  H    4.854501   4.898147   3.367501   2.136047   1.080374
    17  H    7.044655   6.529033   4.747963   4.192873   2.927627
    18  H    7.301643   6.565336   4.778238   4.543784   3.393596
    19  H    6.923225   6.550112   4.769461   4.051721   2.707553
    20  H    6.023706   4.916149   3.368320   3.849507   3.376022
    21  H    4.318651   2.909592   2.139578   3.379228   3.848176
    22  H    3.655725   2.424664   2.889426   4.020201   4.938866
    23  H    3.088563   2.399653   3.735018   4.678277   5.870058
    24  H    3.388134   2.986639   2.711768   2.953830   3.719284
    25  H    2.535068   2.796478   3.415208   3.580054   4.692982
    26  H    5.158984   4.543591   4.793242   5.384924   6.092431
    27  H    4.649057   4.431710   5.229554   5.752847   6.729769
    28  H    5.007677   4.908540   5.143507   5.321447   6.034993
    29  H    3.459551   2.157821   3.063115   4.336668   5.361943
                    6          7          8          9         10
     6  C    0.000000
     7  C    1.497840   0.000000
     8  C    1.389968   2.512301   0.000000
     9  C    2.410656   3.786451   1.384215   0.000000
    10  C    5.208547   6.627261   4.562250   3.345355   0.000000
    11  C    5.135695   6.442786   4.826904   3.894179   1.512778
    12  C    6.296962   7.477789   5.941959   5.106721   2.520897
    13  N    5.421274   6.884443   4.666668   3.336878   2.832460
    14  H    6.060377   7.505275   5.863562   4.714629   3.407578
    15  H    3.401689   4.665240   3.846689   3.363056   3.892973
    16  H    2.140814   2.701869   3.374047   3.847905   5.700999
    17  H    2.132392   1.090336   3.106927   4.321028   6.816545
    18  H    2.143963   1.086968   2.630359   4.005817   7.079669
    19  H    2.139561   1.087823   3.320836   4.487052   7.296424
    20  H    2.141572   2.715465   1.080579   2.136366   5.258417
    21  H    3.389827   4.653810   2.142819   1.080694   3.249114
    22  H    4.998966   6.350000   4.130171   2.964622   1.087966
    23  H    6.268663   7.701524   5.582516   4.307924   1.088704
    24  H    4.208224   5.439146   4.033177   3.338668   2.138245
    25  H    5.498740   6.821981   5.379108   4.440902   2.119402
    26  H    6.277650   7.383296   5.770492   5.014143   2.778787
    27  H    7.207529   8.452964   6.785046   5.814797   2.777352
    28  H    6.545104   7.607354   6.393803   5.723697   3.460663
    29  H    5.426146   6.836644   4.454104   3.139607   3.006061
                   11         12         13         14         15
    11  C    0.000000
    12  C    1.525119   0.000000
    13  N    4.092765   5.327718   0.000000
    14  H    3.874384   5.165768   2.608532   0.000000
    15  H    3.591841   5.037119   4.092325   3.238034   0.000000
    16  H    5.245833   6.476889   5.998617   5.688874   2.495713
    17  H    6.424465   7.293417   7.480548   7.965638   5.006758
    18  H    7.061072   8.054192   7.183235   8.127797   5.506703
    19  H    7.078787   8.197926   7.332782   7.729111   4.786780
    20  H    5.613537   6.587510   5.327510   6.805551   4.927160
    21  H    4.131430   5.198984   3.071760   4.965595   4.248250
    22  H    2.177698   2.883673   3.087852   4.296764   4.440221
    23  H    2.167214   2.749936   2.978755   3.438961   4.701205
    24  H    1.092655   2.154098   4.404755   4.326657   3.141483
    25  H    1.091973   2.160075   4.195098   3.275898   3.248513
    26  H    2.163252   1.088279   5.581452   5.877395   5.594741
    27  H    2.162015   1.087588   5.433338   5.160697   5.654027
    28  H    2.158700   1.087049   6.205229   5.738094   5.242477
    29  H    4.401005   5.511660   1.006787   3.597853   4.712152
                   16         17         18         19         20
    16  H    0.000000
    17  H    2.965136   0.000000
    18  H    3.729028   1.764299   0.000000
    19  H    2.547193   1.759865   1.770281   0.000000
    20  H    4.268893   3.279276   2.395473   3.620075   0.000000
    21  H    4.928538   5.178481   4.689430   5.412327   2.463574
    22  H    5.886356   6.536824   6.658127   7.132909   4.643133
    23  H    6.695438   7.905108   8.136165   8.353729   6.239233
    24  H    4.364786   5.358792   6.090121   6.096491   4.835745
    25  H    5.204845   6.838470   7.543137   7.317592   6.276203
    26  H    6.780244   7.163247   7.840485   8.209622   6.257579
    27  H    7.344881   8.324707   9.016885   9.151284   7.433624
    28  H    6.483076   7.292930   8.268825   8.280850   7.069251
    29  H    6.346408   7.443025   6.994128   7.384278   4.935422
                   21         22         23         24         25
    21  H    0.000000
    22  H    2.624038   0.000000
    23  H    4.065289   1.780210   0.000000
    24  H    3.782184   2.459887   3.058159   0.000000
    25  H    4.797114   3.045111   2.520658   1.764100   0.000000
    26  H    4.971271   2.714240   3.077231   2.504962   3.065330
    27  H    5.793203   3.268773   2.562110   3.060078   2.502018
    28  H    5.965060   3.856693   3.755220   2.480913   2.497062
    29  H    2.569143   2.900746   3.185983   4.646096   4.727639
                   26         27         28         29
    26  H    0.000000
    27  H    1.764649   0.000000
    28  H    1.764563   1.764080   0.000000
    29  H    5.569894   5.655894   6.456172   0.000000
 Stoichiometry    C10H16N2S
 Framework group  C1[X(C10H16N2S)]
 Deg. of freedom    81
 Full point group                 C1      NOp   1
 Largest Abelian subgroup         C1      NOp   1
 Largest concise Abelian subgroup C1      NOp   1
                         Standard orientation:                         
 ---------------------------------------------------------------------
 Center     Atomic      Atomic             Coordinates (Angstroms)
 Number     Number       Type             X           Y           Z
 ---------------------------------------------------------------------
      1          7           0       -1.755506   -1.141224    1.521531
      2         16           0       -1.386100   -1.050818    0.044875
      3          6           0        0.349351   -0.525558    0.010022
      4          6           0        0.982498   -0.223749    1.200413
      5          6           0        2.305828    0.175223    1.186311
      6          6           0        3.007138    0.271868   -0.012141
      7          6           0        4.435699    0.722099   -0.017615
      8          6           0        2.353956   -0.042289   -1.198173
      9          6           0        1.028480   -0.441160   -1.190176
     10          6           0       -2.151546    0.475476   -0.701695
     11          6           0       -1.935872    1.643261    0.235460
     12          6           0       -2.722545    2.877583   -0.193004
     13          7           0       -1.695706   -2.319467   -0.759444
     14          1           0       -2.374878   -1.906302    1.724999
     15          1           0        0.417649   -0.314151    2.114503
     16          1           0        2.804976    0.413345    2.114405
     17          1           0        4.485269    1.804278    0.105934
     18          1           0        4.923620    0.463622   -0.953896
     19          1           0        4.984714    0.268151    0.804500
     20          1           0        2.887225    0.022509   -2.135763
     21          1           0        0.530157   -0.693733   -2.115259
     22          1           0       -1.693128    0.629115   -1.676333
     23          1           0       -3.208598    0.245663   -0.824591
     24          1           0       -0.870319    1.882001    0.274130
     25          1           0       -2.242561    1.330131    1.235608
     26          1           0       -2.420850    3.198036   -1.188313
     27          1           0       -3.788878    2.664270   -0.209754
     28          1           0       -2.546820    3.696783    0.499605
     29          1           0       -1.469423   -2.262318   -1.738806
 ---------------------------------------------------------------------
 Rotational constants (GHZ):           1.0640196           0.4495392           0.3881350
 Standard basis: def2SVP (5D, 7F)
 There are   279 symmetry adapted cartesian basis functions of A   symmetry.
 There are   266 symmetry adapted basis functions of A   symmetry.
   266 basis functions,   449 primitive gaussians,   279 cartesian basis functions
    53 alpha electrons       53 beta electrons
       nuclear repulsion energy       930.4924163438 Hartrees.
 NAtoms=   29 NActive=   29 NUniq=   29 SFac= 1.00D+00 NAtFMM=   60 NAOKFM=F Big=F
 Integral buffers will be    131072 words long.
 Raffenetti 2 integral format.
 Two-electron integral symmetry is turned on.
 Nuclear repulsion after empirical dispersion term =      930.4607987451 Hartrees.
 One-electron integrals computed using PRISM.
   1 Symmetry operations used in ECPInt.
 ECPInt:  NShTT=    8256 NPrTT=   29630 LenC2=    7877 LenP2D=   20879.
 LDataN:  DoStor=T MaxTD1= 4 Len=   56
 NBasis=   266 RedAO= T EigKep=  2.47D-04  NBF=   266
 NBsUse=   266 1.00D-06 EigRej= -1.00D+00 NBFU=   266
 ExpMin= 1.22D-01 ExpMax= 9.18D+03 ExpMxC= 1.38D+03 IAcc=3 IRadAn=         5 AccDes= 0.00D+00
 Harris functional with IExCor= 1009 and IRadAn=       5 diagonalized for initial guess.
 HarFok:  IExCor= 1009 AccDes= 0.00D+00 IRadAn=         5 IDoV= 1 UseB2=F ITyADJ=14
 ICtDFT=  3500011 ScaDFX=  1.000000  1.000000  1.000000  1.000000
 FoFCou: FMM=F IPFlag=           0 FMFlag=      100000 FMFlg1=           0
         NFxFlg=           0 DoJE=T BraDBF=F KetDBF=T FulRan=T
         wScrn=  0.000000 ICntrl=       500 IOpCl=  0 I1Cent=   200000004 NGrid=           0
         NMat0=    1 NMatS0=      1 NMatT0=    0 NMatD0=    1 NMtDS0=    0 NMtDT0=    0
 Petite list used in FoFCou.
 Requested convergence on RMS density matrix=1.00D-08 within 128 cycles.
 Requested convergence on MAX density matrix=1.00D-06.
 Requested convergence on             energy=1.00D-06.
 No special actions if energy rises.
 Integral accuracy reduced to 1.0D-05 until final iterations.
 Initial convergence to 1.0D-05 achieved.  Increase integral accuracy.
 SCF Done:  E(RPBE1PBE) =  -897.069732297     A.U. after   14 cycles
            NFock= 14  Conv=0.98D-08     -V/T= 2.0065

 **********************************************************************

            Population analysis using the SCF Density.

 **********************************************************************

 Orbital symmetries:
       Occupied  (A) (A) (A) (A) (A) (A) (A) (A) (A) (A) (A) (A)
                 (A) (A) (A) (A) (A) (A) (A) (A) (A) (A) (A) (A)
                 (A) (A) (A) (A) (A) (A) (A) (A) (A) (A) (A) (A)
                 (A) (A) (A) (A) (A) (A) (A) (A) (A) (A) (A) (A)
                 (A) (A) (A) (A) (A)
       Virtual   (A) (A) (A) (A) (A) (A) (A) (A) (A) (A) (A) (A)
                 (A) (A) (A) (A) (A) (A) (A) (A) (A) (A) (A) (A)
                 (A) (A) (A) (A) (A) (A) (A) (A) (A) (A) (A) (A)
                 (A) (A) (A) (A) (A) (A) (A) (A) (A) (A) (A) (A)
                 (A) (A) (A) (A) (A) (A) (A) (A) (A) (A) (A) (A)
                 (A) (A) (A) (A) (A) (A) (A) (A) (A) (A) (A) (A)
                 (A) (A) (A) (A) (A) (A) (A) (A) (A) (A) (A) (A)
                 (A) (A) (A) (A) (A) (A) (A) (A) (A) (A) (A) (A)
                 (A) (A) (A) (A) (A) (A) (A) (A) (A) (A) (A) (A)
                 (A) (A) (A) (A) (A) (A) (A) (A) (A) (A) (A) (A)
                 (A) (A) (A) (A) (A) (A) (A) (A) (A) (A) (A) (A)
                 (A) (A) (A) (A) (A) (A) (A) (A) (A) (A) (A) (A)
                 (A) (A) (A) (A) (A) (A) (A) (A) (A) (A) (A) (A)
                 (A) (A) (A) (A) (A) (A) (A) (A) (A) (A) (A) (A)
                 (A) (A) (A) (A) (A) (A) (A) (A) (A) (A) (A) (A)
                 (A) (A) (A) (A) (A) (A) (A) (A) (A) (A) (A) (A)
                 (A) (A) (A) (A) (A) (A) (A) (A) (A) (A) (A) (A)
                 (A) (A) (A) (A) (A) (A) (A) (A) (A)
 The electronic state is 1-A.
 Alpha  occ. eigenvalues --  -89.17390 -14.33891 -14.33247 -10.25938 -10.25736
 Alpha  occ. eigenvalues --  -10.25695 -10.25521 -10.24795 -10.24569 -10.24403
 Alpha  occ. eigenvalues --  -10.23975 -10.23248 -10.22610  -8.14859  -6.08987
 Alpha  occ. eigenvalues --   -6.08893  -6.08856  -1.00091  -0.89770  -0.84410
 Alpha  occ. eigenvalues --   -0.82011  -0.80896  -0.77900  -0.73486  -0.71341
 Alpha  occ. eigenvalues --   -0.64619  -0.64095  -0.61199  -0.59478  -0.54413
 Alpha  occ. eigenvalues --   -0.51696  -0.50462  -0.49398  -0.48042  -0.47604
 Alpha  occ. eigenvalues --   -0.45342  -0.44917  -0.44838  -0.43559  -0.41459
 Alpha  occ. eigenvalues --   -0.41059  -0.39122  -0.38925  -0.37868  -0.36641
 Alpha  occ. eigenvalues --   -0.36251  -0.35065  -0.30267  -0.28322  -0.28211
 Alpha  occ. eigenvalues --   -0.26520  -0.24032  -0.23943
 Alpha virt. eigenvalues --   -0.02746  -0.01530   0.05211   0.06832   0.07311
 Alpha virt. eigenvalues --    0.08392   0.08737   0.10341   0.10540   0.10827
 Alpha virt. eigenvalues --    0.11739   0.12366   0.12833   0.13953   0.14981
 Alpha virt. eigenvalues --    0.15616   0.16468   0.16768   0.16831   0.18057
 Alpha virt. eigenvalues --    0.19089   0.19801   0.21320   0.23120   0.23737
 Alpha virt. eigenvalues --    0.25488   0.29793   0.30668   0.31971   0.33370
 Alpha virt. eigenvalues --    0.36029   0.39270   0.40145   0.41367   0.42227
 Alpha virt. eigenvalues --    0.42791   0.43245   0.43806   0.44642   0.45957
 Alpha virt. eigenvalues --    0.47283   0.48893   0.49516   0.50151   0.52578
 Alpha virt. eigenvalues --    0.54385   0.55021   0.56255   0.59783   0.60280
 Alpha virt. eigenvalues --    0.60568   0.61408   0.62864   0.63571   0.64066
 Alpha virt. eigenvalues --    0.65224   0.65346   0.65661   0.67177   0.67478
 Alpha virt. eigenvalues --    0.68085   0.68275   0.69180   0.69690   0.69927
 Alpha virt. eigenvalues --    0.70358   0.70512   0.71346   0.71642   0.72413
 Alpha virt. eigenvalues --    0.72687   0.73021   0.75355   0.75708   0.76441
 Alpha virt. eigenvalues --    0.77976   0.78675   0.79917   0.80469   0.82413
 Alpha virt. eigenvalues --    0.83345   0.84998   0.85880   0.88549   0.88854
 Alpha virt. eigenvalues --    0.90501   0.92898   0.94740   0.96496   0.99821
 Alpha virt. eigenvalues --    1.01720   1.02094   1.04335   1.05197   1.06686
 Alpha virt. eigenvalues --    1.07489   1.11008   1.13704   1.16690   1.17880
 Alpha virt. eigenvalues --    1.19627   1.21543   1.24086   1.24823   1.26390
 Alpha virt. eigenvalues --    1.27639   1.28160   1.30167   1.30790   1.33967
 Alpha virt. eigenvalues --    1.36895   1.39258   1.41654   1.46248   1.47556
 Alpha virt. eigenvalues --    1.47968   1.50844   1.52103   1.53081   1.54786
 Alpha virt. eigenvalues --    1.54922   1.57700   1.67533   1.68315   1.70091
 Alpha virt. eigenvalues --    1.71444   1.72552   1.73456   1.74887   1.75227
 Alpha virt. eigenvalues --    1.76141   1.76828   1.78032   1.78694   1.79693
 Alpha virt. eigenvalues --    1.80228   1.80527   1.80890   1.81489   1.83664
 Alpha virt. eigenvalues --    1.85547   1.85986   1.86687   1.88170   1.89750
 Alpha virt. eigenvalues --    1.91113   1.92260   1.95816   1.98291   1.98831
 Alpha virt. eigenvalues --    1.99384   2.00577   2.02269   2.03809   2.06839
 Alpha virt. eigenvalues --    2.08224   2.10708   2.12317   2.14396   2.16144
 Alpha virt. eigenvalues --    2.17073   2.19031   2.20225   2.23224   2.24685
 Alpha virt. eigenvalues --    2.26853   2.29756   2.31539   2.32935   2.36074
 Alpha virt. eigenvalues --    2.36316   2.38494   2.39318   2.40529   2.42700
 Alpha virt. eigenvalues --    2.44294   2.45466   2.47573   2.49636   2.50196
 Alpha virt. eigenvalues --    2.52908   2.58153   2.59936   2.60465   2.61494
 Alpha virt. eigenvalues --    2.61920   2.62702   2.65901   2.66778   2.67049
 Alpha virt. eigenvalues --    2.68056   2.75932   2.77048   2.79300   2.83926
 Alpha virt. eigenvalues --    2.86251   2.87018   2.88590   2.90807   2.92782
 Alpha virt. eigenvalues --    2.95311   2.96386   2.97343   2.97420   3.01921
 Alpha virt. eigenvalues --    3.04418   3.06626   3.10146   3.16266   3.25577
 Alpha virt. eigenvalues --    3.27706   3.34586   3.61599
          Condensed to atoms (all electrons):
               1          2          3          4          5          6
     1  N    6.852075   0.406313  -0.100200  -0.001266   0.002116  -0.000061
     2  S    0.406313  14.634258   0.088341  -0.031799   0.004703   0.000555
     3  C   -0.100200   0.088341   5.951565   0.293574   0.103126  -0.196720
     4  C   -0.001266  -0.031799   0.293574   5.031259   0.240293   0.113150
     5  C    0.002116   0.004703   0.103126   0.240293   5.167264   0.250539
     6  C   -0.000061   0.000555  -0.196720   0.113150   0.250539   5.308558
     7  C    0.000000   0.000015   0.000956   0.008114  -0.079499   0.411211
     8  C   -0.000023   0.000684   0.093737  -0.118651   0.055399   0.297004
     9  C    0.007534  -0.039959   0.144210   0.052305  -0.133580   0.092268
    10  C   -0.079645   0.232983  -0.127439  -0.003696  -0.000496  -0.000193
    11  C   -0.006190  -0.053468  -0.001382  -0.000708   0.000273   0.000066
    12  C    0.000210   0.003649  -0.001210   0.000093   0.000008  -0.000004
    13  N   -0.065523   0.359382  -0.034467   0.001384  -0.000042  -0.000021
    14  H    0.338714  -0.018607   0.008274   0.000016  -0.000065   0.000007
    15  H    0.035131  -0.014709  -0.059785   0.446255  -0.068176   0.013724
    16  H   -0.000010  -0.000161   0.017669  -0.069343   0.460128  -0.082652
    17  H    0.000000  -0.000000   0.000153  -0.000068  -0.003867  -0.016343
    18  H    0.000000  -0.000000  -0.000013  -0.000516   0.008687  -0.017585
    19  H    0.000000  -0.000000   0.000030   0.000620  -0.007291  -0.019154
    20  H    0.000001  -0.000155   0.017369  -0.001883   0.015063  -0.073229
    21  H    0.000389  -0.002148  -0.097201   0.012168  -0.001457   0.015517
    22  H    0.004269  -0.009973   0.002142   0.000300  -0.000058   0.000041
    23  H    0.000461  -0.007766   0.009455  -0.000040   0.000002   0.000003
    24  H   -0.000193  -0.004924   0.006919   0.000169  -0.000400  -0.000026
    25  H    0.033112  -0.001991  -0.001736   0.001614   0.000094   0.000010
    26  H   -0.000018   0.000059  -0.000035   0.000014  -0.000001   0.000000
    27  H    0.000043  -0.000029   0.000027  -0.000009  -0.000000  -0.000000
    28  H    0.000005  -0.000197   0.000061   0.000007   0.000001   0.000000
    29  H    0.004704  -0.007519  -0.010541  -0.000768  -0.000028   0.000005
               7          8          9         10         11         12
     1  N    0.000000  -0.000023   0.007534  -0.079645  -0.006190   0.000210
     2  S    0.000015   0.000684  -0.039959   0.232983  -0.053468   0.003649
     3  C    0.000956   0.093737   0.144210  -0.127439  -0.001382  -0.001210
     4  C    0.008114  -0.118651   0.052305  -0.003696  -0.000708   0.000093
     5  C   -0.079499   0.055399  -0.133580  -0.000496   0.000273   0.000008
     6  C    0.411211   0.297004   0.092268  -0.000193   0.000066  -0.000004
     7  C    4.566200  -0.077297   0.011527  -0.000000  -0.000000   0.000000
     8  C   -0.077297   5.025513   0.335368  -0.000356  -0.000186  -0.000011
     9  C    0.011527   0.335368   5.130062  -0.007582   0.002233  -0.000089
    10  C   -0.000000  -0.000356  -0.007582   5.307287   0.263318  -0.036085
    11  C   -0.000000  -0.000186   0.002233   0.263318   4.849135   0.389531
    12  C    0.000000  -0.000011  -0.000089  -0.036085   0.389531   4.571084
    13  N   -0.000000   0.000276  -0.000370  -0.061194   0.004630  -0.000069
    14  H   -0.000000  -0.000009  -0.000457   0.002745  -0.000820   0.000001
    15  H   -0.000203  -0.002276   0.015841   0.000929   0.000065   0.000073
    16  H   -0.013369   0.015134  -0.001961   0.000015  -0.000013   0.000001
    17  H    0.386368  -0.000862  -0.000572  -0.000000  -0.000000   0.000000
    18  H    0.390026  -0.011226   0.000726   0.000000   0.000000  -0.000000
    19  H    0.389503   0.006087  -0.000563   0.000000   0.000000  -0.000000
    20  H   -0.015859   0.453336  -0.069122   0.000040  -0.000004   0.000000
    21  H   -0.000334  -0.045627   0.441717  -0.000105   0.000003   0.000018
    22  H   -0.000001   0.000607   0.004426   0.332062  -0.017623  -0.005921
    23  H    0.000000  -0.000014  -0.000222   0.338433  -0.008332  -0.009919
    24  H   -0.000009   0.000103  -0.000533  -0.024062   0.382618  -0.020121
    25  H    0.000000   0.000015  -0.000195  -0.042005   0.383499  -0.019142
    26  H    0.000000   0.000003   0.000010  -0.007539  -0.023672   0.392376
    27  H   -0.000000   0.000000  -0.000002  -0.006933  -0.028866   0.400792
    28  H    0.000000   0.000000   0.000004   0.006592  -0.013977   0.386813
    29  H   -0.000000   0.000541   0.005908   0.000163   0.000067  -0.000027
              13         14         15         16         17         18
     1  N   -0.065523   0.338714   0.035131  -0.000010   0.000000   0.000000
     2  S    0.359382  -0.018607  -0.014709  -0.000161  -0.000000  -0.000000
     3  C   -0.034467   0.008274  -0.059785   0.017669   0.000153  -0.000013
     4  C    0.001384   0.000016   0.446255  -0.069343  -0.000068  -0.000516
     5  C   -0.000042  -0.000065  -0.068176   0.460128  -0.003867   0.008687
     6  C   -0.000021   0.000007   0.013724  -0.082652  -0.016343  -0.017585
     7  C   -0.000000  -0.000000  -0.000203  -0.013369   0.386368   0.390026
     8  C    0.000276  -0.000009  -0.002276   0.015134  -0.000862  -0.011226
     9  C   -0.000370  -0.000457   0.015841  -0.001961  -0.000572   0.000726
    10  C   -0.061194   0.002745   0.000929   0.000015  -0.000000   0.000000
    11  C    0.004630  -0.000820   0.000065  -0.000013  -0.000000   0.000000
    12  C   -0.000069   0.000001   0.000073   0.000001   0.000000  -0.000000
    13  N    6.875395   0.006389   0.000530   0.000001   0.000000   0.000000
    14  H    0.006389   0.530593  -0.000905  -0.000002  -0.000000  -0.000000
    15  H    0.000530  -0.000905   0.604458  -0.010811   0.000002   0.000009
    16  H    0.000001  -0.000002  -0.010811   0.673518   0.001451   0.000116
    17  H    0.000000  -0.000000   0.000002   0.001451   0.606987  -0.019052
    18  H    0.000000  -0.000000   0.000009   0.000116  -0.019052   0.623784
    19  H   -0.000000   0.000000  -0.000004   0.004260  -0.018898  -0.021737
    20  H    0.000002  -0.000000   0.000026  -0.000269   0.000586   0.006307
    21  H    0.002580  -0.000042  -0.000235   0.000046   0.000012   0.000002
    22  H    0.001865  -0.000174  -0.000117   0.000000   0.000000   0.000000
    23  H    0.007903   0.000792  -0.000056  -0.000000   0.000000  -0.000000
    24  H   -0.000071  -0.000016   0.000068   0.000019   0.000000   0.000000
    25  H    0.000547  -0.000502   0.000270  -0.000006  -0.000000  -0.000000
    26  H   -0.000000   0.000001  -0.000003  -0.000000   0.000000  -0.000000
    27  H   -0.000008  -0.000004   0.000000   0.000000  -0.000000   0.000000
    28  H    0.000002  -0.000002  -0.000005  -0.000000   0.000000  -0.000000
    29  H    0.317771  -0.000250  -0.000089   0.000000  -0.000000   0.000000
              19         20         21         22         23         24
     1  N    0.000000   0.000001   0.000389   0.004269   0.000461  -0.000193
     2  S   -0.000000  -0.000155  -0.002148  -0.009973  -0.007766  -0.004924
     3  C    0.000030   0.017369  -0.097201   0.002142   0.009455   0.006919
     4  C    0.000620  -0.001883   0.012168   0.000300  -0.000040   0.000169
     5  C   -0.007291   0.015063  -0.001457  -0.000058   0.000002  -0.000400
     6  C   -0.019154  -0.073229   0.015517   0.000041   0.000003  -0.000026
     7  C    0.389503  -0.015859  -0.000334  -0.000001   0.000000  -0.000009
     8  C    0.006087   0.453336  -0.045627   0.000607  -0.000014   0.000103
     9  C   -0.000563  -0.069122   0.441717   0.004426  -0.000222  -0.000533
    10  C    0.000000   0.000040  -0.000105   0.332062   0.338433  -0.024062
    11  C    0.000000  -0.000004   0.000003  -0.017623  -0.008332   0.382618
    12  C   -0.000000   0.000000   0.000018  -0.005921  -0.009919  -0.020121
    13  N   -0.000000   0.000002   0.002580   0.001865   0.007903  -0.000071
    14  H    0.000000  -0.000000  -0.000042  -0.000174   0.000792  -0.000016
    15  H   -0.000004   0.000026  -0.000235  -0.000117  -0.000056   0.000068
    16  H    0.004260  -0.000269   0.000046   0.000000  -0.000000   0.000019
    17  H   -0.018898   0.000586   0.000012   0.000000   0.000000   0.000000
    18  H   -0.021737   0.006307   0.000002   0.000000  -0.000000   0.000000
    19  H    0.613824   0.000178   0.000010   0.000000  -0.000000   0.000000
    20  H    0.000178   0.676020  -0.013083  -0.000025  -0.000001  -0.000002
    21  H    0.000010  -0.013083   0.679183   0.002188  -0.000332   0.000058
    22  H    0.000000  -0.000025   0.002188   0.640582  -0.013985  -0.010506
    23  H   -0.000000  -0.000001  -0.000332  -0.013985   0.604016   0.007051
    24  H    0.000000  -0.000002   0.000058  -0.010506   0.007051   0.635027
    25  H    0.000000  -0.000000  -0.000025   0.009398  -0.004519  -0.023901
    26  H   -0.000000  -0.000000  -0.000012   0.005883  -0.001313  -0.008647
    27  H    0.000000   0.000000   0.000001  -0.001245   0.006886   0.007933
    28  H   -0.000000  -0.000000  -0.000001  -0.000023   0.000246  -0.006459
    29  H   -0.000000  -0.000002   0.003688   0.000897  -0.000427   0.000014
              25         26         27         28         29
     1  N    0.033112  -0.000018   0.000043   0.000005   0.004704
     2  S   -0.001991   0.000059  -0.000029  -0.000197  -0.007519
     3  C   -0.001736  -0.000035   0.000027   0.000061  -0.010541
     4  C    0.001614   0.000014  -0.000009   0.000007  -0.000768
     5  C    0.000094  -0.000001  -0.000000   0.000001  -0.000028
     6  C    0.000010   0.000000  -0.000000   0.000000   0.000005
     7  C    0.000000   0.000000  -0.000000   0.000000  -0.000000
     8  C    0.000015   0.000003   0.000000   0.000000   0.000541
     9  C   -0.000195   0.000010  -0.000002   0.000004   0.005908
    10  C   -0.042005  -0.007539  -0.006933   0.006592   0.000163
    11  C    0.383499  -0.023672  -0.028866  -0.013977   0.000067
    12  C   -0.019142   0.392376   0.400792   0.386813  -0.000027
    13  N    0.000547  -0.000000  -0.000008   0.000002   0.317771
    14  H   -0.000502   0.000001  -0.000004  -0.000002  -0.000250
    15  H    0.000270  -0.000003   0.000000  -0.000005  -0.000089
    16  H   -0.000006  -0.000000   0.000000  -0.000000   0.000000
    17  H   -0.000000   0.000000  -0.000000   0.000000  -0.000000
    18  H   -0.000000  -0.000000   0.000000  -0.000000   0.000000
    19  H    0.000000  -0.000000   0.000000  -0.000000  -0.000000
    20  H   -0.000000  -0.000000   0.000000  -0.000000  -0.000002
    21  H   -0.000025  -0.000012   0.000001  -0.000001   0.003688
    22  H    0.009398   0.005883  -0.001245  -0.000023   0.000897
    23  H   -0.004519  -0.001313   0.006886   0.000246  -0.000427
    24  H   -0.023901  -0.008647   0.007933  -0.006459   0.000014
    25  H    0.604791   0.007078  -0.008099  -0.005392  -0.000103
    26  H    0.007078   0.650111  -0.026498  -0.021951   0.000004
    27  H   -0.008099  -0.026498   0.638420  -0.021803   0.000000
    28  H   -0.005392  -0.021951  -0.021803   0.630771   0.000000
    29  H   -0.000103   0.000004   0.000000   0.000000   0.576305
 Mulliken charges:
               1
     1  N   -0.431947
     2  S    0.462465
     3  C   -0.106881
     4  C    0.027412
     5  C   -0.012736
     6  C   -0.096672
     7  C    0.022652
     8  C   -0.027270
     9  C    0.011066
    10  C   -0.087238
    11  C   -0.120193
    12  C   -0.052052
    13  N   -0.416889
    14  H    0.134321
    15  H    0.039993
    16  H    0.006240
    17  H    0.064102
    18  H    0.040473
    19  H    0.053134
    20  H    0.004707
    21  H    0.003023
    22  H    0.054991
    23  H    0.071679
    24  H    0.059892
    25  H    0.067188
    26  H    0.034149
    27  H    0.039393
    28  H    0.045309
    29  H    0.109688
 Sum of Mulliken charges =  -0.00000
 Mulliken charges with hydrogens summed into heavy atoms:
               1
     1  N   -0.297626
     2  S    0.462465
     3  C   -0.106881
     4  C    0.067405
     5  C   -0.006496
     6  C   -0.096672
     7  C    0.180361
     8  C   -0.022562
     9  C    0.014089
    10  C    0.039433
    11  C    0.006886
    12  C    0.066799
    13  N   -0.307201
 Electronic spatial extent (au):  <R**2>=           3173.9524
 Charge=             -0.0000 electrons
 Dipole moment (field-independent basis, Debye):
    X=              2.1913    Y=              3.0020    Z=             -2.0646  Tot=              4.2516
 Quadrupole moment (field-independent basis, Debye-Ang):
   XX=            -78.5316   YY=            -94.7979   ZZ=            -82.4951
   XY=             -2.3552   XZ=              2.0956   YZ=              0.9135
 Traceless Quadrupole moment (field-independent basis, Debye-Ang):
   XX=              6.7433   YY=             -9.5230   ZZ=              2.7798
   XY=             -2.3552   XZ=              2.0956   YZ=              0.9135
 Octapole moment (field-independent basis, Debye-Ang**2):
  XXX=             16.7492  YYY=             18.8817  ZZZ=            -12.2248  XYY=              4.5699
  XXY=             13.3612  XXZ=              2.2294  XZZ=              5.2863  YZZ=             -7.1499
  YYZ=              6.1928  XYZ=              4.9065
 Hexadecapole moment (field-independent basis, Debye-Ang**3):
 XXXX=          -2637.2765 YYYY=          -1068.3598 ZZZZ=           -490.3897 XXXY=             30.6117
 XXXZ=            -11.3372 YYYX=            -12.2258 YYYZ=             -8.4585 ZZZX=             11.7232
 ZZZY=             16.2262 XXYY=           -659.6884 XXZZ=           -524.6858 YYZZ=           -237.2199
 XXYZ=            -13.4198 YYXZ=            -20.7747 ZZXY=             16.8402
 N-N= 9.304607987451D+02 E-N=-3.962157450753D+03  KE= 8.912500269975D+02
   1 Symmetry operations used in ECPInt.
 ECPInt:  NShTT=    8256 NPrTT=   29630 LenC2=    7877 LenP2D=   20879.
 LDataN:  DoStor=T MaxTD1= 5 Len=  102
 Calling FoFJK, ICntrl=      2127 FMM=F ISym2X=0 I1Cent= 0 IOpClX= 0 NMat=1 NMatS=1 NMatT=0.
 ***** Axes restored to original set *****
 -------------------------------------------------------------------
 Center     Atomic                   Forces (Hartrees/Bohr)
 Number     Number              X              Y              Z
 -------------------------------------------------------------------
      1        7           0.009612141    0.016985477    0.011422584
      2       16          -0.006450537   -0.000338629   -0.006137140
      3        6          -0.009944414   -0.000752864    0.002216927
      4        6           0.000168206   -0.000379653    0.002595536
      5        6          -0.001020465   -0.000892229   -0.003023822
      6        6           0.009097439    0.002303415    0.000738573
      7        6          -0.008429527   -0.002144886   -0.000268976
      8        6          -0.002535855   -0.000503157    0.000400254
      9        6          -0.002108492   -0.000574180   -0.001916884
     10        6           0.012374270   -0.004979549    0.016320559
     11        6          -0.007828506    0.006550065   -0.008451979
     12        6           0.007600721   -0.010478314    0.003077170
     13        7          -0.001694193   -0.006351878    0.003426553
     14        1          -0.006815196   -0.008731541   -0.003782840
     15        1          -0.005564301   -0.000973589    0.008835146
     16        1           0.004003260    0.001663728    0.008255376
     17        1           0.002162510    0.007912556    0.000847955
     18        1           0.004822643   -0.001380714   -0.006341539
     19        1           0.005270689   -0.002841846    0.005618437
     20        1           0.004504851    0.000112395   -0.007729829
     21        1          -0.003476932   -0.002186263   -0.008794033
     22        1           0.003172470    0.000152523   -0.009071860
     23        1          -0.007429970   -0.006124246   -0.000452717
     24        1           0.006004818    0.001055853    0.001849869
     25        1          -0.000374982   -0.002008392    0.006042633
     26        1           0.001265075    0.004202790   -0.008039210
     27        1          -0.009284783   -0.000136021   -0.000586606
     28        1           0.000664653    0.007464416    0.004857387
     29        1           0.002234408    0.003374735   -0.011907522
 -------------------------------------------------------------------
 Cartesian Forces:  Max     0.016985477 RMS     0.005996657

 GradGradGradGradGradGradGradGradGradGradGradGradGradGradGradGradGradGrad
 Berny optimization.
 FormGI is forming the generalized inverse of G from B-inverse, IUseBI=4.
 Internal  Forces:  Max     0.012997993 RMS     0.004281205
 Search for a local minimum.
 Step number   1 out of a maximum of  158
 All quantities printed in internal units (Hartrees-Bohrs-Radians)
 Mixed Optimization -- RFO/linear search
 Second derivative matrix not updated -- first step.
 ITU=  0
     Eigenvalues ---    0.00230   0.00230   0.00434   0.00597   0.00795
     Eigenvalues ---    0.01482   0.01659   0.02222   0.02256   0.02265
     Eigenvalues ---    0.02294   0.02314   0.02327   0.02329   0.03496
     Eigenvalues ---    0.03613   0.03738   0.04037   0.04972   0.04975
     Eigenvalues ---    0.05644   0.05672   0.06759   0.07247   0.07423
     Eigenvalues ---    0.07728   0.07841   0.08295   0.09339   0.11659
     Eigenvalues ---    0.12150   0.15999   0.16000   0.16000   0.16000
     Eigenvalues ---    0.16000   0.16000   0.16000   0.16000   0.16000
     Eigenvalues ---    0.16000   0.16000   0.16000   0.16265   0.19518
     Eigenvalues ---    0.21688   0.21940   0.21941   0.22000   0.22978
     Eigenvalues ---    0.23999   0.24998   0.24999   0.25079   0.29879
     Eigenvalues ---    0.31073   0.32605   0.34508   0.34586   0.34774
     Eigenvalues ---    0.34963   0.35012   0.35049   0.35065   0.35093
     Eigenvalues ---    0.35156   0.35165   0.35911   0.35925   0.35949
     Eigenvalues ---    0.36197   0.43480   0.43621   0.46515   0.46791
     Eigenvalues ---    0.47442   0.48111   0.48506   0.48774   0.66516
     Eigenvalues ---    0.69004
 RFO step:  Lambda=-9.22739908D-03 EMin= 2.30000000D-03
 Linear search not attempted -- first point.
 Iteration  1 RMS(Cart)=  0.06924387 RMS(Int)=  0.00109809
 Iteration  2 RMS(Cart)=  0.00231186 RMS(Int)=  0.00019273
 Iteration  3 RMS(Cart)=  0.00000464 RMS(Int)=  0.00019272
 Iteration  4 RMS(Cart)=  0.00000000 RMS(Int)=  0.00019272
 Variable       Old X    -DE/DX   Delta X   Delta X   Delta X     New X
                                 (Linear)    (Quad)   (Total)
    R1        2.88154   0.00623   0.00000   0.00891   0.00891   2.89045
    R2        1.89949   0.01010   0.00000   0.02116   0.02116   1.92066
    R3        3.42708  -0.00313   0.00000  -0.01204  -0.01204   3.41504
    R4        3.52161  -0.00820   0.00000  -0.03627  -0.03627   3.48535
    R5        2.89829   0.00680   0.00000   0.01008   0.01008   2.90837
    R6        2.61097   0.00992   0.00000   0.02011   0.02012   2.63109
    R7        2.61084   0.00986   0.00000   0.01991   0.01992   2.63076
    R8        2.61205   0.00981   0.00000   0.01984   0.01984   2.63189
    R9        2.03774   0.01048   0.00000   0.02825   0.02825   2.06599
   R10        2.63036   0.00995   0.00000   0.02068   0.02067   2.65103
   R11        2.04161   0.00931   0.00000   0.02526   0.02526   2.06687
   R12        2.83051   0.00411   0.00000   0.01225   0.01225   2.84276
   R13        2.62666   0.01052   0.00000   0.02164   0.02163   2.64829
   R14        2.06044   0.00808   0.00000   0.02264   0.02264   2.08308
   R15        2.05407   0.00795   0.00000   0.02203   0.02203   2.07610
   R16        2.05569   0.00807   0.00000   0.02243   0.02243   2.07811
   R17        2.61579   0.00856   0.00000   0.01730   0.01730   2.63309
   R18        2.04200   0.00894   0.00000   0.02426   0.02426   2.06626
   R19        2.04221   0.00964   0.00000   0.02618   0.02618   2.06839
   R20        2.85874   0.00402   0.00000   0.01256   0.01256   2.87129
   R21        2.05596   0.00949   0.00000   0.02637   0.02637   2.08233
   R22        2.05735   0.00846   0.00000   0.02358   0.02358   2.08094
   R23        2.88206   0.00093   0.00000   0.00303   0.00303   2.88509
   R24        2.06482   0.00616   0.00000   0.01739   0.01739   2.08221
   R25        2.06353   0.00620   0.00000   0.01747   0.01747   2.08100
   R26        2.05655   0.00892   0.00000   0.02483   0.02483   2.08138
   R27        2.05524   0.00917   0.00000   0.02547   0.02547   2.08071
   R28        2.05423   0.00881   0.00000   0.02442   0.02442   2.07864
   R29        1.90255   0.01227   0.00000   0.02586   0.02586   1.92842
    A1        1.97189  -0.01120   0.00000  -0.06616  -0.06616   1.90573
    A2        1.84171  -0.00236   0.00000  -0.00941  -0.00938   1.83233
    A3        1.91453  -0.00144   0.00000  -0.00477  -0.00466   1.90988
    A4        1.99315   0.00658   0.00000   0.05252   0.05269   2.04584
    A5        1.71949   0.00307   0.00000  -0.00086  -0.00120   1.71828
    A6        2.00719  -0.00196   0.00000  -0.01607  -0.01644   1.99075
    A7        1.96543  -0.00447   0.00000  -0.02875  -0.02897   1.93646
    A8        2.07742   0.00196   0.00000   0.00726   0.00714   2.08456
    A9        2.09992  -0.00335   0.00000  -0.01322  -0.01333   2.08659
   A10        2.10580   0.00139   0.00000   0.00573   0.00567   2.11147
   A11        2.08631  -0.00187   0.00000  -0.00769  -0.00767   2.07864
   A12        2.06234   0.00084   0.00000   0.00329   0.00328   2.06562
   A13        2.13453   0.00103   0.00000   0.00437   0.00435   2.13888
   A14        2.10737   0.00182   0.00000   0.00790   0.00790   2.11527
   A15        2.09114  -0.00136   0.00000  -0.00659  -0.00659   2.08455
   A16        2.08467  -0.00046   0.00000  -0.00131  -0.00131   2.08336
   A17        2.09966   0.00111   0.00000   0.00455   0.00456   2.10422
   A18        2.07398  -0.00173   0.00000  -0.00716  -0.00717   2.06680
   A19        2.10948   0.00061   0.00000   0.00262   0.00263   2.11211
   A20        1.91908   0.00175   0.00000   0.01056   0.01051   1.92959
   A21        1.93884   0.00137   0.00000   0.00789   0.00786   1.94670
   A22        1.93173   0.00146   0.00000   0.00856   0.00852   1.94025
   A23        1.88937  -0.00160   0.00000  -0.00934  -0.00939   1.87999
   A24        1.88136  -0.00155   0.00000  -0.00881  -0.00886   1.87250
   A25        1.90201  -0.00160   0.00000  -0.00990  -0.00992   1.89209
   A26        2.10619   0.00129   0.00000   0.00509   0.00508   2.11128
   A27        2.08852  -0.00060   0.00000  -0.00229  -0.00230   2.08623
   A28        2.08846  -0.00069   0.00000  -0.00281  -0.00282   2.08565
   A29        2.08669  -0.00090   0.00000  -0.00393  -0.00392   2.08277
   A30        2.09749   0.00156   0.00000   0.00851   0.00850   2.10599
   A31        2.09896  -0.00066   0.00000  -0.00462  -0.00464   2.09432
   A32        1.90234   0.01300   0.00000   0.06088   0.06073   1.96307
   A33        1.87704  -0.00403   0.00000  -0.01227  -0.01322   1.86382
   A34        1.84537  -0.00739   0.00000  -0.05117  -0.05157   1.79381
   A35        1.96696  -0.00287   0.00000   0.00190   0.00169   1.96865
   A36        1.95121  -0.00075   0.00000   0.00649   0.00749   1.95869
   A37        1.91536   0.00176   0.00000  -0.00907  -0.00985   1.90552
   A38        1.95755   0.00043   0.00000   0.00480   0.00478   1.96233
   A39        1.90670   0.00032   0.00000   0.00328   0.00328   1.90998
   A40        1.88178  -0.00035   0.00000  -0.00087  -0.00090   1.88088
   A41        1.91360  -0.00026   0.00000  -0.00101  -0.00102   1.91257
   A42        1.92253   0.00057   0.00000   0.00634   0.00633   1.92886
   A43        1.87982  -0.00075   0.00000  -0.01331  -0.01330   1.86652
   A44        1.93078   0.00233   0.00000   0.01437   0.01430   1.94508
   A45        1.92978   0.00143   0.00000   0.00834   0.00829   1.93807
   A46        1.92573   0.00125   0.00000   0.00698   0.00694   1.93267
   A47        1.89175  -0.00185   0.00000  -0.01010  -0.01017   1.88158
   A48        1.89230  -0.00182   0.00000  -0.01049  -0.01054   1.88176
   A49        1.89243  -0.00154   0.00000  -0.01022  -0.01024   1.88219
   A50        2.00184  -0.00441   0.00000  -0.02606  -0.02606   1.97578
    D1       -2.49785   0.00024   0.00000  -0.01216  -0.01226  -2.51011
    D2        1.94869  -0.00162   0.00000  -0.00515  -0.00501   1.94369
    D3       -0.27634   0.00041   0.00000  -0.00399  -0.00402  -0.28036
    D4       -0.07346   0.00279   0.00000   0.06115   0.06105  -0.01241
    D5        3.05816   0.00217   0.00000   0.03537   0.03535   3.09350
    D6        1.90370   0.00170   0.00000   0.05305   0.05301   1.95671
    D7       -1.24787   0.00108   0.00000   0.02727   0.02731  -1.22056
    D8       -2.28645  -0.00256   0.00000   0.01125   0.01128  -2.27517
    D9        0.84517  -0.00318   0.00000  -0.01452  -0.01443   0.83074
   D10        0.78568  -0.00191   0.00000  -0.02421  -0.02452   0.76117
   D11        2.92320  -0.00013   0.00000   0.00678   0.00650   2.92970
   D12       -1.31443  -0.00372   0.00000  -0.03517  -0.03452  -1.34895
   D13       -1.13312  -0.00023   0.00000  -0.01210  -0.01236  -1.14549
   D14        1.00439   0.00155   0.00000   0.01889   0.01866   1.02305
   D15        3.04995  -0.00204   0.00000  -0.02306  -0.02237   3.02758
   D16        3.02612   0.00221   0.00000   0.01961   0.01919   3.04531
   D17       -1.11955   0.00399   0.00000   0.05059   0.05021  -1.06934
   D18        0.92601   0.00040   0.00000   0.00865   0.00919   0.93520
   D19        3.12401  -0.00117   0.00000  -0.02122  -0.02135   3.10266
   D20       -1.02585  -0.00055   0.00000  -0.00361  -0.00381  -1.02966
   D21        0.92537  -0.00088   0.00000  -0.03414  -0.03381   0.89156
   D22        3.13946  -0.00051   0.00000  -0.01858  -0.01875   3.12071
   D23        0.00212  -0.00031   0.00000  -0.01308  -0.01322  -0.01110
   D24        0.00788   0.00014   0.00000   0.00740   0.00744   0.01532
   D25       -3.12946   0.00034   0.00000   0.01290   0.01297  -3.11649
   D26       -3.13827   0.00043   0.00000   0.01698   0.01688  -3.12139
   D27       -0.00639   0.00023   0.00000   0.01148   0.01137   0.00498
   D28       -0.00682  -0.00020   0.00000  -0.00921  -0.00923  -0.01604
   D29        3.12506  -0.00039   0.00000  -0.01471  -0.01473   3.11033
   D30       -0.00354   0.00006   0.00000   0.00057   0.00056  -0.00298
   D31        3.14043   0.00009   0.00000   0.00178   0.00179  -3.14097
   D32        3.13361  -0.00015   0.00000  -0.00517  -0.00521   3.12840
   D33       -0.00560  -0.00012   0.00000  -0.00395  -0.00398  -0.00959
   D34        3.12789  -0.00016   0.00000  -0.00496  -0.00495   3.12294
   D35       -0.00175  -0.00019   0.00000  -0.00651  -0.00649  -0.00824
   D36       -0.01607  -0.00018   0.00000  -0.00617  -0.00619  -0.02226
   D37        3.13747  -0.00021   0.00000  -0.00772  -0.00773   3.12975
   D38       -1.34974  -0.00001   0.00000  -0.00012  -0.00012  -1.34986
   D39        2.84234  -0.00004   0.00000  -0.00039  -0.00039   2.84195
   D40        0.72692   0.00008   0.00000   0.00100   0.00101   0.72793
   D41        1.77966  -0.00000   0.00000   0.00140   0.00139   1.78105
   D42       -0.31145  -0.00002   0.00000   0.00112   0.00112  -0.31033
   D43       -2.42687   0.00009   0.00000   0.00251   0.00252  -2.42435
   D44        0.00283   0.00013   0.00000   0.00469   0.00469   0.00752
   D45       -3.13537   0.00030   0.00000   0.01061   0.01057  -3.12480
   D46       -3.12674   0.00010   0.00000   0.00312   0.00313  -3.12361
   D47        0.01824   0.00027   0.00000   0.00904   0.00902   0.02726
   D48        0.00140   0.00005   0.00000   0.00304   0.00300   0.00440
   D49       -3.13046   0.00024   0.00000   0.00847   0.00839  -3.12208
   D50        3.13960  -0.00012   0.00000  -0.00288  -0.00288   3.13672
   D51        0.00774   0.00006   0.00000   0.00255   0.00251   0.01024
   D52       -2.98145   0.00078   0.00000   0.00508   0.00507  -2.97638
   D53        1.17633   0.00061   0.00000   0.00089   0.00088   1.17721
   D54       -0.86188   0.00153   0.00000   0.01541   0.01540  -0.84648
   D55        1.21930  -0.00110   0.00000  -0.02171  -0.02191   1.19740
   D56       -0.90609  -0.00127   0.00000  -0.02589  -0.02610  -0.93220
   D57       -2.94431  -0.00036   0.00000  -0.01137  -0.01158  -2.95589
   D58       -0.94781  -0.00066   0.00000  -0.01616  -0.01594  -0.96375
   D59       -3.07321  -0.00083   0.00000  -0.02035  -0.02013  -3.09335
   D60        1.17176   0.00008   0.00000  -0.00583  -0.00561   1.16615
   D61       -1.04824  -0.00013   0.00000  -0.00071  -0.00071  -1.04895
   D62        1.04761   0.00002   0.00000   0.00145   0.00148   1.04909
   D63        3.14103  -0.00017   0.00000  -0.00141  -0.00141   3.13962
   D64        1.07321   0.00038   0.00000   0.00597   0.00596   1.07918
   D65       -3.11412   0.00052   0.00000   0.00813   0.00815  -3.10597
   D66       -1.02070   0.00033   0.00000   0.00527   0.00526  -1.01544
   D67        3.13892  -0.00036   0.00000  -0.00712  -0.00713   3.13179
   D68       -1.04841  -0.00021   0.00000  -0.00495  -0.00495  -1.05336
   D69        1.04501  -0.00040   0.00000  -0.00782  -0.00784   1.03717
         Item               Value     Threshold  Converged?
 Maximum Force            0.012998     0.000450     NO 
 RMS     Force            0.004281     0.000300     NO 
 Maximum Displacement     0.233949     0.001800     NO 
 RMS     Displacement     0.070215     0.001200     NO 
 Predicted change in Energy=-4.843161D-03
 GradGradGradGradGradGradGradGradGradGradGradGradGradGradGradGradGradGrad

                          Input orientation:                          
 ---------------------------------------------------------------------
 Center     Atomic      Atomic             Coordinates (Angstroms)
 Number     Number       Type             X           Y           Z
 ---------------------------------------------------------------------
      1          7           0       -1.760636   -1.032565    1.546301
      2         16           0       -1.394915   -0.957002    0.063031
      3          6           0        0.343666   -0.464678    0.034944
      4          6           0        1.009967   -0.237386    1.236158
      5          6           0        2.356484    0.117255    1.207187
      6          6           0        3.048389    0.244695   -0.006509
      7          6           0        4.496488    0.651807   -0.022376
      8          6           0        2.355000   -0.003619   -1.198782
      9          6           0        1.008048   -0.359957   -1.183941
     10          6           0       -2.121264    0.571252   -0.670825
     11          6           0       -1.943986    1.786271    0.224132
     12          6           0       -2.738945    2.993259   -0.267913
     13          7           0       -1.712479   -2.188361   -0.803895
     14          1           0       -2.408027   -1.802415    1.691971
     15          1           0        0.452546   -0.354684    2.169308
     16          1           0        2.885470    0.296521    2.147560
     17          1           0        4.595414    1.736757    0.145561
     18          1           0        4.970643    0.417995   -0.985436
     19          1           0        5.060204    0.145079    0.774349
     20          1           0        2.880645    0.074945   -2.154338
     21          1           0        0.486713   -0.568157   -2.123564
     22          1           0       -1.657447    0.699826   -1.662075
     23          1           0       -3.180671    0.299817   -0.799608
     24          1           0       -0.874853    2.046613    0.281311
     25          1           0       -2.260372    1.504036    1.240459
     26          1           0       -2.427473    3.295023   -1.280360
     27          1           0       -3.816788    2.770545   -0.299578
     28          1           0       -2.592306    3.854753    0.400115
     29          1           0       -1.476977   -2.058572   -1.788304
 ---------------------------------------------------------------------
                    Distance matrix (angstroms):
                    1          2          3          4          5
     1  N    0.000000
     2  S    1.529560   0.000000
     3  C    2.652317   1.807163   0.000000
     4  C    2.899093   2.770836   1.392312   0.000000
     5  C    4.288096   4.066463   2.400882   1.392738   0.000000
     6  C    5.212421   4.603462   2.796507   2.435526   1.402866
     7  C    6.667043   6.107716   4.300669   3.811876   2.525310
     8  C    5.052987   4.069764   2.404188   2.791539   2.409004
     9  C    3.946167   2.772297   1.392138   2.423201   2.786307
    10  C    2.760060   1.844366   2.765346   3.754342   4.876809
    11  C    3.118907   2.802316   3.214951   3.720917   4.716572
    12  C    4.522799   4.185749   4.642363   5.172392   6.034129
    13  N    2.619467   1.539043   2.811133   3.921712   5.090852
    14  H    1.016368   2.096322   3.479525   3.786788   5.159527
    15  H    2.397048   2.865712   2.139968   1.093273   2.184807
    16  H    4.869732   4.923239   3.391657   2.152492   1.093739
    17  H    7.073231   6.568652   4.789145   4.235808   2.960176
    18  H    7.336480   6.596228   4.819668   4.588241   3.425181
    19  H    6.964669   6.587042   4.812926   4.094382   2.738289
    20  H    6.038444   4.925653   3.394173   3.884900   3.402409
    21  H    4.328298   2.910828   2.165716   3.416275   3.880687
    22  H    3.647671   2.406240   2.870609   4.048854   4.968269
    23  H    3.048775   2.347906   3.701605   4.689816   5.892422
    24  H    3.444728   3.056111   2.802154   3.111419   3.875720
    25  H    2.603386   2.862178   3.479959   3.705090   4.820750
    26  H    5.211785   4.577181   4.852276   5.534146   6.258781
    27  H    4.700923   4.459995   5.280904   5.890985   6.886187
    28  H    5.088349   4.969945   5.235529   5.515518   6.253861
    29  H    3.500392   2.155836   3.029765   4.318446   5.329410
                    6          7          8          9         10
     6  C    0.000000
     7  C    1.504322   0.000000
     8  C    1.401414   2.529720   0.000000
     9  C    2.432065   3.813413   1.393370   0.000000
    10  C    5.222381   6.649933   4.543804   3.305000   0.000000
    11  C    5.230053   6.544270   4.869258   3.911964   1.519423
    12  C    6.412189   7.608822   5.982982   5.111078   2.531795
    13  N    5.405686   6.872307   4.633942   3.299812   2.792898
    14  H    6.070253   7.525591   5.854788   4.692667   3.361448
    15  H    3.439743   4.708500   3.884148   3.398954   3.943122
    16  H    2.160844   2.725845   3.401395   3.880023   5.752057
    17  H    2.154683   1.102318   3.139366   4.362680   6.865759
    18  H    2.164114   1.098624   2.657980   4.043114   7.100535
    19  H    2.160339   1.099691   3.351639   4.528789   7.337822
    20  H    2.161047   2.736600   1.093418   2.153470   5.240823
    21  H    3.421232   4.688454   2.159727   1.094545   3.195347
    22  H    5.009285   6.368818   4.099904   2.908026   1.101922
    23  H    6.279588   7.724426   5.558333   4.257743   1.101184
    24  H    4.326843   5.557788   4.101960   3.388784   2.153321
    25  H    5.596768   6.926486   5.433653   4.476020   2.131301
    26  H    6.396269   7.517336   5.810314   5.017069   2.807886
    27  H    7.320960   8.583498   6.826091   5.819036   2.801699
    28  H    6.709344   7.790273   6.474515   5.765029   3.485710
    29  H    5.381335   6.793154   4.387986   3.070162   2.929136
                   11         12         13         14         15
    11  C    0.000000
    12  C    1.526725   0.000000
    13  N    4.111950   5.309435   0.000000
    14  H    3.904939   5.191256   2.619558   0.000000
    15  H    3.756429   5.228229   4.109701   3.241397   0.000000
    16  H    5.407640   6.688868   6.002238   5.712636   2.518662
    17  H    6.540059   7.452689   7.489828   7.997831   5.062907
    18  H    7.151735   8.159937   7.175665   8.157419   5.564408
    19  H    7.214909   8.368104   7.335191   7.772338   4.840060
    20  H    5.644716   6.607190   5.295568   6.803575   4.977365
    21  H    4.118652   5.150921   3.033650   4.945828   4.298312
    22  H    2.195505   2.893641   3.013491   4.251377   4.499284
    23  H    2.187917   2.780728   2.889055   3.350272   4.737415
    24  H    1.101859   2.161626   4.451325   4.376711   3.330577
    25  H    1.101216   2.173016   4.255980   3.340402   3.417239
    26  H    2.184854   1.101420   5.550292   5.900763   5.789221
    27  H    2.179554   1.101067   5.410472   5.182937   5.838636
    28  H    2.174835   1.099971   6.224385   5.805721   5.488217
    29  H    4.364723   5.424495   1.020474   3.611756   4.721121
                   16         17         18         19         20
    16  H    0.000000
    17  H    3.001032   0.000000
    18  H    3.765417   1.777381   0.000000
    19  H    2.576453   1.773370   1.783072   0.000000
    20  H    4.307604   3.315356   2.419113   3.651384   0.000000
    21  H    4.974355   5.229051   4.730059   5.461083   2.478999
    22  H    5.942565   6.590982   6.668497   7.167339   4.607286
    23  H    6.744174   7.964021   8.154288   8.391264   6.214935
    24  H    4.548157   5.480717   6.198940   6.251705   4.891179
    25  H    5.362892   6.946565   7.643407   7.460218   6.324319
    26  H    6.997786   7.333647   7.943324   8.379098   6.269678
    27  H    7.551791   8.487167   9.122709   9.319194   7.453992
    28  H    6.761701   7.497601   8.421950   8.512499   7.124982
    29  H    6.329964   7.417431   6.953401   7.359213   4.865671
                   21         22         23         24         25
    21  H    0.000000
    22  H    2.533412   0.000000
    23  H    3.994489   1.795568   0.000000
    24  H    3.804511   2.490590   3.088119   0.000000
    25  H    4.812183   3.071641   2.541450   1.770316   0.000000
    26  H    4.911988   2.733806   3.125650   2.531398   3.096786
    27  H    5.744038   3.287404   2.599841   3.084881   2.529464
    28  H    5.950751   3.883317   3.797773   2.496624   2.518378
    29  H    2.487934   2.767176   3.072798   4.636637   4.741233
                   26         27         28         29
    26  H    0.000000
    27  H    1.779664   0.000000
    28  H    1.778894   1.778886   0.000000
    29  H    5.460991   5.568787   6.403167   0.000000
 Stoichiometry    C10H16N2S
 Framework group  C1[X(C10H16N2S)]
 Deg. of freedom    81
 Full point group                 C1      NOp   1
 Largest Abelian subgroup         C1      NOp   1
 Largest concise Abelian subgroup C1      NOp   1
                         Standard orientation:                         
 ---------------------------------------------------------------------
 Center     Atomic      Atomic             Coordinates (Angstroms)
 Number     Number       Type             X           Y           Z
 ---------------------------------------------------------------------
      1          7           0       -1.714359   -1.224629    1.507276
      2         16           0       -1.361663   -1.072996    0.026680
      3          6           0        0.355913   -0.511290    0.010645
      4          6           0        1.020607   -0.307867    1.217018
      5          6           0        2.351860    0.100854    1.196273
      6          6           0        3.030203    0.306020   -0.014424
      7          6           0        4.460973    0.770614   -0.020382
      8          6           0        2.339333    0.080162   -1.212609
      9          6           0        1.007619   -0.329683   -1.206050
     10          6           0       -2.152564    0.454406   -0.639058
     11          6           0       -2.017494    1.637240    0.305031
     12          6           0       -2.862684    2.831129   -0.132203
     13          7           0       -1.636076   -2.278880   -0.889395
     14          1           0       -2.329893   -2.024967    1.623817
     15          1           0        0.474394   -0.485903    2.147180
     16          1           0        2.879528    0.261725    2.140705
     17          1           0        4.518107    1.850713    0.192278
     18          1           0        4.937645    0.596057   -0.994697
     19          1           0        5.049472    0.253977    0.751677
     20          1           0        2.855176    0.219198   -2.166620
     21          1           0        0.488742   -0.519167   -2.150979
     22          1           0       -1.700708    0.642398   -1.626336
     23          1           0       -3.201257    0.146712   -0.773862
     24          1           0       -0.959116    1.937223    0.367783
     25          1           0       -2.315809    1.300652    1.310215
     26          1           0       -2.570025    3.186858   -1.132670
     27          1           0       -3.931082    2.567306   -0.167848
     28          1           0       -2.745769    3.669243    0.570528
[...]
    18  H    0.000000   0.000006  -0.000197  -0.000437   0.006900  -0.051848
    19  H   -0.000000  -0.000003   0.000090  -0.000052  -0.002108  -0.026691
    20  H    0.000003  -0.000422   0.011012  -0.001930   0.012367  -0.055973
    21  H    0.002283   0.018164  -0.133715   0.002716   0.001745   0.009985
    22  H    0.006054  -0.010439   0.007487   0.001082   0.000009  -0.000075
    23  H   -0.004998  -0.024937   0.011757  -0.000031  -0.000013   0.000014
    24  H    0.000438  -0.004130   0.007296  -0.012827   0.003217  -0.000939
    25  H    0.024453   0.002780  -0.005728   0.003930  -0.000139   0.000148
    26  H   -0.000031  -0.000041   0.000140   0.000081  -0.000016   0.000003
    27  H    0.000148  -0.000070  -0.000024  -0.000076   0.000002  -0.000001
    28  H    0.000090  -0.000020   0.000113  -0.000019   0.000008  -0.000001
    29  H    0.007675   0.019415  -0.010487  -0.003260   0.000212  -0.000154
               7          8          9         10         11         12
     1  N   -0.000009  -0.000725   0.024876  -0.026223  -0.034502  -0.000248
     2  S   -0.000054   0.017886   0.041372   0.276053  -0.015919   0.002524
     3  C   -0.002170   0.008336   0.115650  -0.094926   0.024696  -0.002288
     4  C    0.016217  -0.110087  -0.062871  -0.001388  -0.005569   0.001709
     5  C   -0.093262   0.016580  -0.076841  -0.000399   0.001160  -0.000081
     6  C    0.327646   0.454507   0.007801  -0.000184   0.000102   0.000030
     7  C    4.999654  -0.064908   0.016937  -0.000009   0.000010  -0.000000
     8  C   -0.064908   5.100244   0.391789  -0.000580  -0.000334  -0.000104
     9  C    0.016937   0.391789   5.272590   0.027782  -0.014536   0.000999
    10  C   -0.000009  -0.000580   0.027782   5.287899   0.269728  -0.020817
    11  C    0.000010  -0.000334  -0.014536   0.269728   5.033886   0.286028
    12  C   -0.000000  -0.000104   0.000999  -0.020817   0.286028   4.951407
    13  N   -0.000006   0.004464   0.038848  -0.069304   0.006993  -0.000568
    14  H    0.000000   0.000053  -0.001842  -0.006803   0.000118  -0.000163
    15  H   -0.000240  -0.004768   0.016476   0.001144  -0.000143   0.000298
    16  H   -0.007219   0.011465  -0.000797   0.000050  -0.000060  -0.000000
    17  H    0.411042   0.000566  -0.000563  -0.000000  -0.000001   0.000000
    18  H    0.417129  -0.003376   0.001940   0.000000  -0.000001   0.000000
    19  H    0.393752  -0.004630  -0.000440   0.000000   0.000000  -0.000000
    20  H   -0.008969   0.420955  -0.044135   0.000032   0.000013  -0.000001
    21  H   -0.000852  -0.029475   0.436814   0.000600  -0.001815   0.000101
    22  H    0.000001   0.000927  -0.006695   0.344978  -0.019161  -0.008767
    23  H    0.000000  -0.000091  -0.001834   0.373784  -0.019817  -0.007062
    24  H   -0.000033   0.000455   0.005035  -0.031970   0.399915  -0.030184
    25  H    0.000002  -0.000090  -0.000481  -0.048951   0.409808  -0.038501
    26  H    0.000000  -0.000006  -0.000066  -0.006061  -0.029935   0.401198
    27  H   -0.000000   0.000002   0.000032  -0.003279  -0.042869   0.412312
    28  H    0.000000   0.000002  -0.000047   0.008202  -0.036398   0.404742
    29  H   -0.000002   0.001178   0.003056  -0.006159   0.002032  -0.000187
              13         14         15         16         17         18
     1  N   -0.095518   0.303937   0.022742  -0.000113   0.000000   0.000000
     2  S    0.424557  -0.009779  -0.006941  -0.000416  -0.000000   0.000006
     3  C   -0.090495   0.016192  -0.049890   0.013774   0.000059  -0.000197
     4  C    0.007196  -0.001195   0.440097  -0.062407   0.001051  -0.000437
     5  C   -0.000258  -0.000072  -0.072402   0.448059  -0.001246   0.006900
     6  C    0.000162   0.000014   0.012304  -0.071695  -0.042496  -0.051848
     7  C   -0.000006   0.000000  -0.000240  -0.007219   0.411042   0.417129
     8  C    0.004464   0.000053  -0.004768   0.011465   0.000566  -0.003376
     9  C    0.038848  -0.001842   0.016476  -0.000797  -0.000563   0.001940
    10  C   -0.069304  -0.006803   0.001144   0.000050  -0.000000   0.000000
    11  C    0.006993   0.000118  -0.000143  -0.000060  -0.000001  -0.000001
    12  C   -0.000568  -0.000163   0.000298  -0.000000   0.000000   0.000000
    13  N    7.021011   0.000203   0.000899   0.000006   0.000000   0.000001
    14  H    0.000203   0.479975  -0.001334  -0.000003  -0.000000  -0.000000
    15  H    0.000899  -0.001334   0.493246  -0.007452  -0.000006   0.000012
    16  H    0.000006  -0.000003  -0.007452   0.557222   0.001292   0.000140
    17  H    0.000000  -0.000000  -0.000006   0.001292   0.543719  -0.021185
    18  H    0.000001  -0.000000   0.000012   0.000140  -0.021185   0.537329
    19  H   -0.000000   0.000000  -0.000002   0.000543  -0.028532  -0.022032
    20  H   -0.000074  -0.000000   0.000052  -0.000273  -0.000006   0.003139
    21  H    0.023764  -0.000149  -0.000092   0.000156   0.000023   0.000046
    22  H    0.002296   0.000142  -0.000129   0.000007  -0.000000   0.000000
    23  H    0.009949   0.001746  -0.000099  -0.000002   0.000000  -0.000000
    24  H   -0.000058  -0.000052  -0.001108   0.000067  -0.000001   0.000001
    25  H    0.001585  -0.000135   0.000182  -0.000020  -0.000000  -0.000000
    26  H    0.000009   0.000004  -0.000003  -0.000000   0.000000  -0.000000
    27  H   -0.000039  -0.000004  -0.000002   0.000000  -0.000000   0.000000
    28  H    0.000019   0.000001  -0.000010  -0.000001  -0.000000  -0.000000
    29  H    0.272593   0.000264  -0.000111   0.000001  -0.000000   0.000000
              19         20         21         22         23         24
     1  N   -0.000000   0.000003   0.002283   0.006054  -0.004998   0.000438
     2  S   -0.000003  -0.000422   0.018164  -0.010439  -0.024937  -0.004130
     3  C    0.000090   0.011012  -0.133715   0.007487   0.011757   0.007296
     4  C   -0.000052  -0.001930   0.002716   0.001082  -0.000031  -0.012827
     5  C   -0.002108   0.012367   0.001745   0.000009  -0.000013   0.003217
     6  C   -0.026691  -0.055973   0.009985  -0.000075   0.000014  -0.000939
     7  C    0.393752  -0.008969  -0.000852   0.000001   0.000000  -0.000033
     8  C   -0.004630   0.420955  -0.029475   0.000927  -0.000091   0.000455
     9  C   -0.000440  -0.044135   0.436814  -0.006695  -0.001834   0.005035
    10  C    0.000000   0.000032   0.000600   0.344978   0.373784  -0.031970
    11  C    0.000000   0.000013  -0.001815  -0.019161  -0.019817   0.399915
    12  C   -0.000000  -0.000001   0.000101  -0.008767  -0.007062  -0.030184
    13  N   -0.000000  -0.000074   0.023764   0.002296   0.009949  -0.000058
    14  H    0.000000  -0.000000  -0.000149   0.000142   0.001746  -0.000052
    15  H   -0.000002   0.000052  -0.000092  -0.000129  -0.000099  -0.001108
    16  H    0.000543  -0.000273   0.000156   0.000007  -0.000002   0.000067
    17  H   -0.028532  -0.000006   0.000023  -0.000000   0.000000  -0.000001
    18  H   -0.022032   0.003139   0.000046   0.000000  -0.000000   0.000001
    19  H    0.546663   0.000225   0.000005   0.000000  -0.000000   0.000000
    20  H    0.000225   0.554266  -0.007696  -0.000009  -0.000001  -0.000009
    21  H    0.000005  -0.007696   0.563690   0.001981  -0.000726   0.000201
    22  H    0.000000  -0.000009   0.001981   0.568958  -0.023608  -0.005110
    23  H   -0.000000  -0.000001  -0.000726  -0.023608   0.541960   0.006269
    24  H    0.000000  -0.000009   0.000201  -0.005110   0.006269   0.567853
    25  H    0.000000  -0.000000  -0.000033   0.008454  -0.002962  -0.024322
    26  H   -0.000000   0.000000  -0.000006   0.003607   0.000010  -0.005821
    27  H    0.000000  -0.000000   0.000002   0.000174   0.003844   0.007766
    28  H   -0.000000   0.000000  -0.000004   0.000111   0.000223  -0.004445
    29  H    0.000000   0.000003   0.001495   0.000023  -0.000265   0.000015
              25         26         27         28         29
     1  N    0.024453  -0.000031   0.000148   0.000090   0.007675
     2  S    0.002780  -0.000041  -0.000070  -0.000020   0.019415
     3  C   -0.005728   0.000140  -0.000024   0.000113  -0.010487
     4  C    0.003930   0.000081  -0.000076  -0.000019  -0.003260
     5  C   -0.000139  -0.000016   0.000002   0.000008   0.000212
     6  C    0.000148   0.000003  -0.000001  -0.000001  -0.000154
     7  C    0.000002   0.000000  -0.000000   0.000000  -0.000002
     8  C   -0.000090  -0.000006   0.000002   0.000002   0.001178
     9  C   -0.000481  -0.000066   0.000032  -0.000047   0.003056
    10  C   -0.048951  -0.006061  -0.003279   0.008202  -0.006159
    11  C    0.409808  -0.029935  -0.042869  -0.036398   0.002032
    12  C   -0.038501   0.401198   0.412312   0.404742  -0.000187
    13  N    0.001585   0.000009  -0.000039   0.000019   0.272593
    14  H   -0.000135   0.000004  -0.000004   0.000001   0.000264
    15  H    0.000182  -0.000003  -0.000002  -0.000010  -0.000111
    16  H   -0.000020  -0.000000   0.000000  -0.000001   0.000001
    17  H   -0.000000   0.000000  -0.000000  -0.000000  -0.000000
    18  H   -0.000000  -0.000000   0.000000  -0.000000   0.000000
    19  H    0.000000  -0.000000   0.000000  -0.000000   0.000000
    20  H   -0.000000   0.000000  -0.000000   0.000000   0.000003
    21  H   -0.000033  -0.000006   0.000002  -0.000004   0.001495
    22  H    0.008454   0.003607   0.000174   0.000111   0.000023
    23  H   -0.002962   0.000010   0.003844   0.000223  -0.000265
    24  H   -0.024322  -0.005821   0.007766  -0.004445   0.000015
    25  H    0.546266   0.006929  -0.005262  -0.002561  -0.000253
    26  H    0.006929   0.564219  -0.028528  -0.022724   0.000009
    27  H   -0.005262  -0.028528   0.558059  -0.022704  -0.000003
    28  H   -0.002561  -0.022724  -0.022704   0.542437   0.000001
    29  H   -0.000253   0.000009  -0.000003   0.000001   0.499335
 Mulliken charges:
               1
     1  N   -0.553111
     2  S    0.506070
     3  C    0.158735
     4  C   -0.148106
     5  C   -0.178894
     6  C    0.188236
     7  C   -0.404657
     8  C   -0.210237
     9  C   -0.190850
    10  C   -0.273201
    11  C   -0.213430
    12  C   -0.352376
    13  N   -0.558237
    14  H    0.218879
    15  H    0.157279
    16  H    0.117677
    17  H    0.136282
    18  H    0.132433
    19  H    0.143211
    20  H    0.117430
    21  H    0.110792
    22  H    0.127701
    23  H    0.136889
    24  H    0.122479
    25  H    0.124901
    26  H    0.117028
    27  H    0.120520
    28  H    0.132984
    29  H    0.213574
 Sum of Mulliken charges =  -0.00000
 Mulliken charges with hydrogens summed into heavy atoms:
               1
     1  N   -0.334232
     2  S    0.506070
     3  C    0.158735
     4  C    0.009173
     5  C   -0.061217
     6  C    0.188236
     7  C    0.007269
     8  C   -0.092808
     9  C   -0.080058
    10  C   -0.008611
    11  C    0.033950
    12  C    0.018155
    13  N   -0.344663
 Electronic spatial extent (au):  <R**2>=           3223.9250
 Charge=             -0.0000 electrons
 Dipole moment (field-independent basis, Debye):
    X=              1.0773    Y=              3.7956    Z=             -2.1610  Tot=              4.4986
 Quadrupole moment (field-independent basis, Debye-Ang):
   XX=            -74.1348   YY=            -97.4652   ZZ=            -84.7460
   XY=             -2.1500   XZ=              1.7884   YZ=              3.3501
 Traceless Quadrupole moment (field-independent basis, Debye-Ang):
   XX=             11.3139   YY=            -12.0166   ZZ=              0.7027
   XY=             -2.1500   XZ=              1.7884   YZ=              3.3501
 Octapole moment (field-independent basis, Debye-Ang**2):
  XXX=              6.4276  YYY=             30.5683  ZZZ=            -13.9486  XYY=              6.3831
  XXY=              7.3309  XXZ=              0.0124  XZZ=              1.6138  YZZ=             -2.4507
  YYZ=              4.1825  XYZ=              5.0294
 Hexadecapole moment (field-independent basis, Debye-Ang**3):
 XXXX=          -2707.3389 YYYY=          -1106.2845 ZZZZ=           -509.9236 XXXY=             43.1753
 XXXZ=            -24.0689 YYYX=            -28.4019 YYYZ=             -4.2151 ZZZX=              7.6394
 ZZZY=             28.4175 XXYY=           -669.6067 XXZZ=           -537.1723 YYZZ=           -247.9065
 XXYZ=              2.3329 YYXZ=             -8.9823 ZZXY=             17.2344
 N-N= 9.260981068180D+02 E-N=-3.958037870826D+03  KE= 8.942856181203D+02
 Breneman (CHELPG) radii used.
 Read replacement radii for each type of atom:
 Atom Element Radius
    1     7    1.70
    2    16    2.00
    3     6    1.50
    4     6    1.50
    5     6    1.50
    6     6    1.50
    7     6    1.50
    8     6    1.50
    9     6    1.50
   10     6    1.50
   11     6    1.50
   12     6    1.50
   13     7    1.70
   14     1    1.45
   15     1    1.45
   16     1    1.45
   17     1    1.45
   18     1    1.45
   19     1    1.45
   20     1    1.45
   21     1    1.45
   22     1    1.45
   23     1    1.45
   24     1    1.45
   25     1    1.45
   26     1    1.45
   27     1    1.45
   28     1    1.45
   29     1    1.45
 Generate Potential Derived Charges using the Breneman model, NDens= 1.
 Grid spacing= 0.300 Box extension= 2.800
 NStep X,Y,Z=   51     40     34   Total possible points=       69360
 Number of Points to Fit=   17617

 **********************************************************************

            Electrostatic Properties Using The SCF Density.

 **********************************************************************

       Atomic Center    1 is at  -1.608446 -1.128818  1.667454
       Atomic Center    2 is at  -1.328539 -1.066977  0.151794
       Atomic Center    3 is at   0.373354 -0.498301  0.112004
       Atomic Center    4 is at   0.957408  0.142159  1.203095
       Atomic Center    5 is at   2.279904  0.561656  1.107361
       Atomic Center    6 is at   3.031382  0.346074 -0.056809
       Atomic Center    7 is at   4.464740  0.783083 -0.130912
       Atomic Center    8 is at   2.421418 -0.315117 -1.128968
       Atomic Center    9 is at   1.099709 -0.745481 -1.046865
       Atomic Center   10 is at  -2.170119  0.340639 -0.676656
       Atomic Center   11 is at  -2.080724  1.634159  0.103967
       Atomic Center   12 is at  -2.950582  2.733751 -0.486291
       Atomic Center   13 is at  -1.584272 -2.334155 -0.698393
       Atomic Center   14 is at  -2.509008 -1.596745  1.792293
       Atomic Center   15 is at   0.368392  0.282814  2.110642
       Atomic Center   16 is at   2.744831  1.064619  1.959947
       Atomic Center   17 is at   4.599498  1.790222  0.291125
       Atomic Center   18 is at   4.832446  0.792062 -1.166432
       Atomic Center   19 is at   5.111394  0.101164  0.445609
       Atomic Center   20 is at   2.995876 -0.508657 -2.038750
       Atomic Center   21 is at   0.636184 -1.300345 -1.866846
       Atomic Center   22 is at  -1.744968  0.419910 -1.690591
       Atomic Center   23 is at  -3.209526 -0.019147 -0.762919
       Atomic Center   24 is at  -1.029665  1.964812  0.140891
       Atomic Center   25 is at  -2.373714  1.422887  1.145662
       Atomic Center   26 is at  -2.656499  2.971225 -1.521032
       Atomic Center   27 is at  -4.012571  2.441357 -0.502172
       Atomic Center   28 is at  -2.869186  3.659329  0.102860
       Atomic Center   29 is at  -1.836767 -2.068778 -1.651977
   17617 points will be used for fitting atomic charges
 Fitting point charges to electrostatic potential
 Charges from ESP fit, RMS=   0.00270 RRMS=   0.16185:
 ESP charges:
               1
     1  N   -0.758023
     2  S    0.733191
     3  C    0.078013
     4  C   -0.022335
     5  C   -0.226569
     6  C    0.209125
     7  C   -0.254952
     8  C   -0.224366
     9  C   -0.106224
    10  C   -0.366622
    11  C    0.445071
    12  C   -0.272207
    13  N   -0.790053
    14  H    0.348866
    15  H    0.095228
    16  H    0.128425
    17  H    0.075124
    18  H    0.074570
    19  H    0.083960
    20  H    0.132697
    21  H    0.104916
    22  H    0.079026
    23  H    0.111389
    24  H   -0.121244
    25  H   -0.062204
    26  H    0.061917
    27  H    0.053234
    28  H    0.055964
    29  H    0.334084
 Sum of ESP charges =   0.00000
 ESP charges with hydrogens summed into heavy atoms:
               1
     1  N   -0.409157
     2  S    0.733191
     3  C    0.078013
     4  C    0.072893
     5  C   -0.098144
     6  C    0.209125
     7  C   -0.021298
     8  C   -0.091668
     9  C   -0.001309
    10  C   -0.176207
    11  C    0.261622
    12  C   -0.101092
    13  N   -0.455969
 Charge=   0.00000 Dipole=     1.1176     3.6778    -2.1486 Tot=     4.4036
 -----------------------------------------------------------------

              Electrostatic Properties (Atomic Units)

 -----------------------------------------------------------------
    Center     Electric         -------- Electric Field --------
               Potential          X             Y             Z
 -----------------------------------------------------------------
    1 Atom    -18.431313
    2 Atom    -59.081116
    3 Atom    -14.737283
    4 Atom    -14.751345
    5 Atom    -14.754801
    6 Atom    -14.738718
    7 Atom    -14.755873
    8 Atom    -14.753180
    9 Atom    -14.747328
   10 Atom    -14.733121
   11 Atom    -14.752927
   12 Atom    -14.763244
   13 Atom    -18.430821
   14 Atom     -1.055393
   15 Atom     -1.097939
   16 Atom     -1.094897
   17 Atom     -1.100647
   18 Atom     -1.102464
   19 Atom     -1.099038
   20 Atom     -1.093230
   21 Atom     -1.087766
   22 Atom     -1.082318
   23 Atom     -1.084046
   24 Atom     -1.114958
   25 Atom     -1.117153
   26 Atom     -1.112913
   27 Atom     -1.112848
   28 Atom     -1.112363
   29 Atom     -1.051112
 -----------------------------------------------------------------
 Unable to Open any file for archive entry.
 1\1\GINC-NOTCH269\SP\RPBE1PBE\def2TZVP\C10H16N2S1\U1414944\10-Feb-2025
 \0\\#N Guess=Read Geom=Check Integral(Ultrafine) Density Pop=(ChelpG,R
 eadRadii) NMR pbe1pbe EmpiricalDispersion=GD3BJ def2TZVP\\SDI0432_1\\0
 ,1\N,0,-1.634981385,-1.2099225826,1.485043852\S,0,-1.3367929034,-0.969
 7866778,-0.0092174994\C,0,0.3881834071,-0.4756239107,0.0317300471\C,0,
 0.9876030323,-0.0040028836,1.1979451886\C,0,2.3277589378,0.3659637355,
 1.1626388172\C,0,3.0815094739,0.266215628,-0.0156636038\C,0,4.53294102
 14,0.645961892,-0.0267441685\C,0,2.455119111,-0.227203884,-1.165849005
 4\C,0,1.1154281056,-0.6062568449,-1.1454340106\C,0,-2.1086739382,0.566
 5007497,-0.6572841737\C,0,-1.9722509414,1.7461205617,0.2810352548\C,0,
 -2.7880526463,2.9483453363,-0.1698338566\N,0,-1.6375364309,-2.10725345
 86,-1.0140446945\H,0,-2.5559876092,-1.6500112972,1.5452133151\H,0,0.39
 5646864,0.0467361104,2.1130291804\H,0,2.8047916023,0.7365992553,2.0742
 857913\H,0,4.7062024897,1.5849881925,0.5198946333\H,0,4.9115434008,0.7
 693330334,-1.0509655482\H,0,5.1437590272,-0.1308307323,0.4621802094\H,
 0,3.030294206,-0.329437121,-2.0899082468\H,0,0.6372342059,-1.032500156
 5,-2.0312928057\H,0,-1.6699038072,0.7543013321,-1.6509203615\H,0,-3.16
 15516888,0.2662738292,-0.7935450906\H,0,-0.9084597632,2.0231858977,0.3
 647293186\H,0,-2.2849234482,1.4182189979,1.2861832985\H,0,-2.473240692
 6,3.3012905149,-1.1647665664\H,0,-3.8613478467,2.7070226103,-0.2278722
 256\H,0,-2.6733435807,3.7878051186,0.5319977349\H,0,-1.868430613,-1.71
 29794194,-1.927684034\\Version=ES64L-G16RevC.01\State=1-A\HF=-897.7878
 65\RMSD=4.340e-09\Dipole=0.4962153,1.5686017,-0.6524577\Quadrupole=8.2
 123338,-9.2197077,1.0073739,-2.5312965,1.2061119,1.1648145\PG=C01 [X(C
 10H16N2S1)]\\@
 The archive entry for this job was punched.


 MUD THROWN IS GROUND LOST -- FROM A TEA BAG
 Job cpu time:       0 days  0 hours 28 minutes 19.3 seconds.
 Elapsed time:       0 days  0 hours  1 minutes 57.2 seconds.
 File lengths (MBytes):  RWF=    160 Int=      0 D2E=      0 Chk=     25 Scr=      2
 Normal termination of Gaussian 16 at Mon Feb 10 19:59:15 2025.
