 Entering Gaussian System, Link 0=g16
 Input=SDI0432_2.com
 Output=SDI0432_2.log
 Initial command:
 /uufs/chpc.utah.edu/sys/installdir/gaussian16/C01/AVX/g16/l1.exe "/scratch/general/vast/u1414944/3119887-notchpeak.peaks/Gau-1228062.inp" -scrdir="/scratch/general/vast/u1414944/3119887-notchpeak.peaks/"
 Entering Link 1 = /uufs/chpc.utah.edu/sys/installdir/gaussian16/C01/AVX/g16/l1.exe PID=   1228063.
  
 Copyright (c) 1988-2019, Gaussian, Inc.  All Rights Reserved.
  
 This is part of the Gaussian(R) 16 program.  It is based on
 the Gaussian(R) 09 system (copyright 2009, Gaussian, Inc.),
 the Gaussian(R) 03 system (copyright 2003, Gaussian, Inc.),
 the Gaussian(R) 98 system (copyright 1998, Gaussian, Inc.),
 the Gaussian(R) 94 system (copyright 1995, Gaussian, Inc.),
 the Gaussian 92(TM) system (copyright 1992, Gaussian, Inc.),
 the Gaussian 90(TM) system (copyright 1990, Gaussian, Inc.),
 the Gaussian 88(TM) system (copyright 1988, Gaussian, Inc.),
 the Gaussian 86(TM) system (copyright 1986, Carnegie Mellon
 University), and the Gaussian 82(TM) system (copyright 1983,
 Carnegie Mellon University). Gaussian is a federally registered
 trademark of Gaussian, Inc.
  
 This software contains proprietary and confidential information,
 including trade secrets, belonging to Gaussian, Inc.
  
 This software is provided under written license and may be
 used, copied, transmitted, or stored only in accord with that
 written license.
  
 The following legend is applicable only to US Government
 contracts under FAR:
  
                    RESTRICTED RIGHTS LEGEND
  
 Use, reproduction and disclosure by the US Government is
 subject to restrictions as set forth in subparagraphs (a)
 and (c) of the Commercial Computer Software - Restricted
 Rights clause in FAR 52.227-19.
  
 Gaussian, Inc.
 340 Quinnipiac St., Bldg. 40, Wallingford CT 06492
  
  
 ---------------------------------------------------------------
 Warning -- This program may not be used in any manner that
 competes with the business of Gaussian, Inc. or will provide
 assistance to any competitor of Gaussian, Inc.  The licensee
 of this program is prohibited from giving any competitor of
 Gaussian, Inc. access to this program.  By using this program,
 the user acknowledges that Gaussian, Inc. is engaged in the
 business of creating and licensing software in the field of
 computational chemistry and represents and warrants to the
 licensee that it is not a competitor of Gaussian, Inc. and that
 it will not use this program in any manner prohibited above.
 ---------------------------------------------------------------
  

 Cite this work as:
 Gaussian 16, Revision C.01,
 M. J. Frisch, G. W. Trucks, H. B. Schlegel, G. E. Scuseria, 
 M. A. Robb, J. R. Cheeseman, G. Scalmani, V. Barone, 
 G. A. Petersson, H. Nakatsuji, X. Li, M. Caricato, A. V. Marenich, 
 J. Bloino, B. G. Janesko, R. Gomperts, B. Mennucci, H. P. Hratchian, 
 J. V. Ortiz, A. F. Izmaylov, J. L. Sonnenberg, D. Williams-Young, 
 F. Ding, F. Lipparini, F. Egidi, J. Goings, B. Peng, A. Petrone, 
 T. Henderson, D. Ranasinghe, V. G. Zakrzewski, J. Gao, N. Rega, 
 G. Zheng, W. Liang, M. Hada, M. Ehara, K. Toyota, R. Fukuda, 
 J. Hasegawa, M. Ishida, T. Nakajima, Y. Honda, O. Kitao, H. Nakai, 
 T. Vreven, K. Throssell, J. A. Montgomery, Jr., J. E. Peralta, 
 F. Ogliaro, M. J. Bearpark, J. J. Heyd, E. N. Brothers, K. N. Kudin, 
 V. N. Staroverov, T. A. Keith, R. Kobayashi, J. Normand, 
 K. Raghavachari, A. P. Rendell, J. C. Burant, S. S. Iyengar, 
 J. Tomasi, M. Cossi, J. M. Millam, M. Klene, C. Adamo, R. Cammi, 
 J. W. Ochterski, R. L. Martin, K. Morokuma, O. Farkas, 
 J. B. Foresman, and D. J. Fox, Gaussian, Inc., Wallingford CT, 2019.
 
 ******************************************
 Gaussian 16:  ES64L-G16RevC.01  3-Jul-2019
                10-Feb-2025 
 ******************************************
 %NProcShared=16
 Will use up to   16 processors via shared memory.
 %Mem=40GB
 %chk=SDI0432_2.chk
 ----------------------------------------------------------------------
 #N OPT FREQ=NORAMAN Integral(Ultrafine) pbe1pbe EmpiricalDispersion=GD
 3BJ def2SVP
 ----------------------------------------------------------------------
 1/18=20,19=15,26=4,38=1/1,3;
 2/9=110,12=2,17=6,18=5,40=1/2;
 3/5=43,7=101,11=2,25=1,30=1,71=1,74=-13,75=-5,124=41/1,2,3;
 4//1;
 5/5=2,38=5/2;
 6/7=2,8=2,9=2,10=2,28=1/1;
 7//1,2,3,16;
 1/18=20,19=15,26=4/3(2);
 2/9=110/2;
 99//99;
 2/9=110/2;
 3/5=43,7=101,11=2,25=1,30=1,71=1,74=-13,75=-5,124=41/1,2,3;
 4/5=5,16=3,69=1/1;
 5/5=2,38=5/2;
 7//1,2,3,16;
 1/18=20,19=15,26=4/3(-5);
 2/9=110/2;
 6/7=2,8=2,9=2,10=2,19=2,28=1/1;
 99/9=1/99;
 ---------
 SDI0432_2
 ---------
 Symbolic Z-matrix:
 Charge =  0 Multiplicity = 1
 N                    -1.80929  -1.12688   1.39226 
 S                    -1.26913  -0.42513   0.1415 
 C                     0.55735  -0.31345   0.09675 
 C                     1.29322  -0.03724   1.233 
 C                     2.6712    0.05226   1.14729 
 C                     3.32143  -0.13322  -0.06846 
 C                     4.81528  -0.05838  -0.14667 
 C                     2.56246  -0.41239  -1.1998 
 C                     1.18467  -0.50277  -1.11862 
 C                    -1.62674   1.3874    0.06335 
 C                    -3.09738   1.64064   0.34158 
 C                    -3.95464   1.38017  -0.89032 
 N                    -1.78617  -1.00384  -1.17215 
 H                    -1.43359  -0.78523   2.26156 
 H                     0.79566   0.1033    2.18204 
 H                     3.25047   0.26742   2.03379 
 H                     5.14102   0.17457  -1.15728 
 H                     5.24881  -1.0181    0.13607 
 H                     5.20241   0.69646   0.53408 
 H                     3.05525  -0.56014  -2.14984 
 H                     0.57407  -0.72341  -1.98104 
 H                    -0.97933   1.85004   0.80686 
 H                    -1.33185   1.6985   -0.93439 
 H                    -3.23735   2.67019   0.68279 
 H                    -3.40738   0.97103   1.14885 
 H                    -3.72156   2.09786  -1.67421 
 H                    -3.75752   0.38083  -1.26761 
 H                    -5.01023   1.46675  -0.6451 
 H                    -2.13314  -1.94339  -1.07878 
 

 GradGradGradGradGradGradGradGradGradGradGradGradGradGradGradGradGradGrad
 Berny optimization.
 Initialization pass.
                           ----------------------------
                           !    Initial Parameters    !
                           ! (Angstroms and Degrees)  !
 --------------------------                            --------------------------
 ! Name  Definition              Value          Derivative Info.                !
 --------------------------------------------------------------------------------
 ! R1    R(1,2)                  1.5325         estimate D2E/DX2                !
 ! R2    R(1,14)                 1.0068         estimate D2E/DX2                !
 ! R3    R(2,3)                  1.8304         estimate D2E/DX2                !
 ! R4    R(2,10)                 1.8491         estimate D2E/DX2                !
 ! R5    R(2,13)                 1.5257         estimate D2E/DX2                !
 ! R6    R(3,4)                  1.3816         estimate D2E/DX2                !
 ! R7    R(3,9)                  1.3808         estimate D2E/DX2                !
 ! R8    R(4,5)                  1.3835         estimate D2E/DX2                !
 ! R9    R(4,15)                 1.0807         estimate D2E/DX2                !
 ! R10   R(5,6)                  1.3911         estimate D2E/DX2                !
 ! R11   R(5,16)                 1.0806         estimate D2E/DX2                !
 ! R12   R(6,7)                  1.4978         estimate D2E/DX2                !
 ! R13   R(6,8)                  1.3906         estimate D2E/DX2                !
 ! R14   R(7,17)                 1.0871         estimate D2E/DX2                !
 ! R15   R(7,18)                 1.0904         estimate D2E/DX2                !
 ! R16   R(7,19)                 1.0877         estimate D2E/DX2                !
 ! R17   R(8,9)                  1.3831         estimate D2E/DX2                !
 ! R18   R(8,20)                 1.0804         estimate D2E/DX2                !
 ! R19   R(9,21)                 1.0795         estimate D2E/DX2                !
 ! R20   R(10,11)                1.518          estimate D2E/DX2                !
 ! R21   R(10,22)                1.089          estimate D2E/DX2                !
 ! R22   R(10,23)                1.0859         estimate D2E/DX2                !
 ! R23   R(11,12)                1.5233         estimate D2E/DX2                !
 ! R24   R(11,24)                1.0936         estimate D2E/DX2                !
 ! R25   R(11,25)                1.0937         estimate D2E/DX2                !
 ! R26   R(12,26)                1.0881         estimate D2E/DX2                !
 ! R27   R(12,27)                1.0862         estimate D2E/DX2                !
 ! R28   R(12,28)                1.0872         estimate D2E/DX2                !
 ! R29   R(13,29)                1.0059         estimate D2E/DX2                !
 ! A1    A(2,1,14)             114.6954         estimate D2E/DX2                !
 ! A2    A(1,2,3)              113.5527         estimate D2E/DX2                !
 ! A3    A(1,2,10)             114.53           estimate D2E/DX2                !
 ! A4    A(1,2,13)             114.1779         estimate D2E/DX2                !
 ! A5    A(3,2,10)              97.5928         estimate D2E/DX2                !
 ! A6    A(3,2,13)             109.8911         estimate D2E/DX2                !
 ! A7    A(10,2,13)            105.6565         estimate D2E/DX2                !
 ! A8    A(2,3,4)              121.571          estimate D2E/DX2                !
 ! A9    A(2,3,9)              117.8073         estimate D2E/DX2                !
 ! A10   A(4,3,9)              120.6191         estimate D2E/DX2                !
 ! A11   A(3,4,5)              119.5022         estimate D2E/DX2                !
 ! A12   A(3,4,15)             120.1973         estimate D2E/DX2                !
 ! A13   A(5,4,15)             120.3            estimate D2E/DX2                !
 ! A14   A(4,5,6)              120.7337         estimate D2E/DX2                !
 ! A15   A(4,5,16)             119.733          estimate D2E/DX2                !
 ! A16   A(6,5,16)             119.5333         estimate D2E/DX2                !
 ! A17   A(5,6,7)              120.342          estimate D2E/DX2                !
 ! A18   A(5,6,8)              118.8581         estimate D2E/DX2                !
 ! A19   A(7,6,8)              120.7896         estimate D2E/DX2                !
 ! A20   A(6,7,17)             110.9844         estimate D2E/DX2                !
 ! A21   A(6,7,18)             109.8179         estimate D2E/DX2                !
 ! A22   A(6,7,19)             110.9147         estimate D2E/DX2                !
 ! A23   A(17,7,18)            108.0921         estimate D2E/DX2                !
 ! A24   A(17,7,19)            109.0552         estimate D2E/DX2                !
 ! A25   A(18,7,19)            107.8803         estimate D2E/DX2                !
 ! A26   A(6,8,9)              120.5987         estimate D2E/DX2                !
 ! A27   A(6,8,20)             119.5974         estimate D2E/DX2                !
 ! A28   A(9,8,20)             119.8039         estimate D2E/DX2                !
 ! A29   A(3,9,8)              119.6881         estimate D2E/DX2                !
 ! A30   A(3,9,21)             118.3114         estimate D2E/DX2                !
 ! A31   A(8,9,21)             121.9998         estimate D2E/DX2                !
 ! A32   A(2,10,11)            110.0679         estimate D2E/DX2                !
 ! A33   A(2,10,22)            105.8182         estimate D2E/DX2                !
 ! A34   A(2,10,23)            105.4934         estimate D2E/DX2                !
 ! A35   A(11,10,22)           112.3294         estimate D2E/DX2                !
 ! A36   A(11,10,23)           112.5634         estimate D2E/DX2                !
 ! A37   A(22,10,23)           110.1294         estimate D2E/DX2                !
 ! A38   A(10,11,12)           111.6207         estimate D2E/DX2                !
 ! A39   A(10,11,24)           109.7692         estimate D2E/DX2                !
 ! A40   A(10,11,25)           107.9238         estimate D2E/DX2                !
 ! A41   A(12,11,24)           109.9543         estimate D2E/DX2                !
 ! A42   A(12,11,25)           109.4344         estimate D2E/DX2                !
 ! A43   A(24,11,25)           108.0483         estimate D2E/DX2                !
 ! A44   A(11,12,26)           110.4447         estimate D2E/DX2                !
 ! A45   A(11,12,27)           109.639          estimate D2E/DX2                !
 ! A46   A(11,12,28)           110.5122         estimate D2E/DX2                !
 ! A47   A(26,12,27)           108.5249         estimate D2E/DX2                !
 ! A48   A(26,12,28)           108.5403         estimate D2E/DX2                !
 ! A49   A(27,12,28)           109.1365         estimate D2E/DX2                !
 ! A50   A(2,13,29)            113.0323         estimate D2E/DX2                !
 ! D1    D(14,1,2,3)            49.6789         estimate D2E/DX2                !
 ! D2    D(14,1,2,10)          -61.2599         estimate D2E/DX2                !
 ! D3    D(14,1,2,13)          176.7312         estimate D2E/DX2                !
 ! D4    D(1,2,3,4)            -39.6728         estimate D2E/DX2                !
 ! D5    D(1,2,3,9)            140.9092         estimate D2E/DX2                !
 ! D6    D(10,2,3,4)            81.3254         estimate D2E/DX2                !
 ! D7    D(10,2,3,9)           -98.0926         estimate D2E/DX2                !
 ! D8    D(13,2,3,4)          -168.9341         estimate D2E/DX2                !
 ! D9    D(13,2,3,9)            11.6479         estimate D2E/DX2                !
 ! D10   D(1,2,10,11)          -49.3085         estimate D2E/DX2                !
 ! D11   D(1,2,10,22)           72.2863         estimate D2E/DX2                !
 ! D12   D(1,2,10,23)         -170.9887         estimate D2E/DX2                !
 ! D13   D(3,2,10,11)         -169.5704         estimate D2E/DX2                !
 ! D14   D(3,2,10,22)          -47.9757         estimate D2E/DX2                !
 ! D15   D(3,2,10,23)           68.7494         estimate D2E/DX2                !
 ! D16   D(13,2,10,11)          77.2366         estimate D2E/DX2                !
 ! D17   D(13,2,10,22)        -161.1687         estimate D2E/DX2                !
 ! D18   D(13,2,10,23)         -44.4436         estimate D2E/DX2                !
 ! D19   D(1,2,13,29)          -20.7177         estimate D2E/DX2                !
 ! D20   D(3,2,13,29)          108.2031         estimate D2E/DX2                !
 ! D21   D(10,2,13,29)        -147.477          estimate D2E/DX2                !
 ! D22   D(2,3,4,5)           -179.2712         estimate D2E/DX2                !
 ! D23   D(2,3,4,15)             1.0016         estimate D2E/DX2                !
 ! D24   D(9,3,4,5)              0.1306         estimate D2E/DX2                !
 ! D25   D(9,3,4,15)          -179.5966         estimate D2E/DX2                !
 ! D26   D(2,3,9,8)            179.293          estimate D2E/DX2                !
 ! D27   D(2,3,9,21)            -0.9949         estimate D2E/DX2                !
 ! D28   D(4,3,9,8)             -0.1309         estimate D2E/DX2                !
 ! D29   D(4,3,9,21)           179.5813         estimate D2E/DX2                !
 ! D30   D(3,4,5,6)             -0.029          estimate D2E/DX2                !
 ! D31   D(3,4,5,16)          -179.9562         estimate D2E/DX2                !
 ! D32   D(15,4,5,6)           179.6979         estimate D2E/DX2                !
 ! D33   D(15,4,5,16)           -0.2293         estimate D2E/DX2                !
 ! D34   D(4,5,6,7)           -178.913          estimate D2E/DX2                !
 ! D35   D(4,5,6,8)             -0.0702         estimate D2E/DX2                !
 ! D36   D(16,5,6,7)             1.0143         estimate D2E/DX2                !
 ! D37   D(16,5,6,8)           179.8572         estimate D2E/DX2                !
 ! D38   D(5,6,7,17)          -157.2403         estimate D2E/DX2                !
 ! D39   D(5,6,7,18)            83.3031         estimate D2E/DX2                !
 ! D40   D(5,6,7,19)           -35.8469         estimate D2E/DX2                !
 ! D41   D(8,6,7,17)            23.9395         estimate D2E/DX2                !
 ! D42   D(8,6,7,18)           -95.5171         estimate D2E/DX2                !
 ! D43   D(8,6,7,19)           145.3329         estimate D2E/DX2                !
 ! D44   D(5,6,8,9)              0.0701         estimate D2E/DX2                !
 ! D45   D(5,6,8,20)          -179.9044         estimate D2E/DX2                !
 ! D46   D(7,6,8,9)            178.9076         estimate D2E/DX2                !
 ! D47   D(7,6,8,20)            -1.0669         estimate D2E/DX2                !
 ! D48   D(6,8,9,3)              0.0292         estimate D2E/DX2                !
 ! D49   D(6,8,9,21)          -179.672          estimate D2E/DX2                !
 ! D50   D(20,8,9,3)          -179.9964         estimate D2E/DX2                !
 ! D51   D(20,8,9,21)            0.3024         estimate D2E/DX2                !
 ! D52   D(2,10,11,12)         -80.0403         estimate D2E/DX2                !
 ! D53   D(2,10,11,24)         157.7822         estimate D2E/DX2                !
 ! D54   D(2,10,11,25)          40.2487         estimate D2E/DX2                !
 ! D55   D(22,10,11,12)        162.3287         estimate D2E/DX2                !
 ! D56   D(22,10,11,24)         40.1512         estimate D2E/DX2                !
 ! D57   D(22,10,11,25)        -77.3823         estimate D2E/DX2                !
 ! D58   D(23,10,11,12)         37.3312         estimate D2E/DX2                !
 ! D59   D(23,10,11,24)        -84.8462         estimate D2E/DX2                !
 ! D60   D(23,10,11,25)        157.6202         estimate D2E/DX2                !
 ! D61   D(10,11,12,26)        -65.715          estimate D2E/DX2                !
 ! D62   D(10,11,12,27)         53.826          estimate D2E/DX2                !
 ! D63   D(10,11,12,28)        174.1665         estimate D2E/DX2                !
 ! D64   D(24,11,12,26)         56.3559         estimate D2E/DX2                !
 ! D65   D(24,11,12,27)        175.897          estimate D2E/DX2                !
 ! D66   D(24,11,12,28)        -63.7625         estimate D2E/DX2                !
 ! D67   D(25,11,12,26)        174.8861         estimate D2E/DX2                !
 ! D68   D(25,11,12,27)        -65.5729         estimate D2E/DX2                !
 ! D69   D(25,11,12,28)         54.7676         estimate D2E/DX2                !
 --------------------------------------------------------------------------------
 Trust Radius=3.00D-01 FncErr=1.00D-07 GrdErr=1.00D-06 EigMax=2.50D+02 EigMin=1.00D-04
 Number of steps in this run=    158 maximum allowed number of steps=    174.
 GradGradGradGradGradGradGradGradGradGradGradGradGradGradGradGradGradGrad

                          Input orientation:                          
 ---------------------------------------------------------------------
 Center     Atomic      Atomic             Coordinates (Angstroms)
 Number     Number       Type             X           Y           Z
 ---------------------------------------------------------------------
      1          7           0       -1.809290   -1.126876    1.392263
      2         16           0       -1.269135   -0.425132    0.141498
      3          6           0        0.557348   -0.313446    0.096748
      4          6           0        1.293220   -0.037244    1.233004
      5          6           0        2.671195    0.052264    1.147290
      6          6           0        3.321425   -0.133220   -0.068459
      7          6           0        4.815283   -0.058383   -0.146669
      8          6           0        2.562461   -0.412394   -1.199799
      9          6           0        1.184665   -0.502769   -1.118617
     10          6           0       -1.626742    1.387404    0.063348
     11          6           0       -3.097382    1.640641    0.341585
     12          6           0       -3.954639    1.380173   -0.890317
     13          7           0       -1.786168   -1.003845   -1.172147
     14          1           0       -1.433590   -0.785228    2.261565
     15          1           0        0.795664    0.103295    2.182039
     16          1           0        3.250468    0.267420    2.033791
     17          1           0        5.141015    0.174571   -1.157280
     18          1           0        5.248809   -1.018099    0.136068
     19          1           0        5.202408    0.696465    0.534077
     20          1           0        3.055247   -0.560138   -2.149837
     21          1           0        0.574067   -0.723407   -1.981039
     22          1           0       -0.979330    1.850041    0.806856
     23          1           0       -1.331846    1.698503   -0.934390
     24          1           0       -3.237350    2.670186    0.682789
     25          1           0       -3.407377    0.971034    1.148846
     26          1           0       -3.721556    2.097856   -1.674214
     27          1           0       -3.757518    0.380831   -1.267611
     28          1           0       -5.010230    1.466753   -0.645100
     29          1           0       -2.133145   -1.943395   -1.078780
 ---------------------------------------------------------------------
                    Distance matrix (angstroms):
                    1          2          3          4          5
     1  N    0.000000
     2  S    1.532522   0.000000
     3  C    2.817979   1.830442   0.000000
     4  C    3.292146   2.812028   1.381620   0.000000
     5  C    4.639518   4.094597   2.388667   1.383537   0.000000
     6  C    5.426353   4.604621   2.774869   2.411770   1.391132
     7  C    6.884400   6.102269   4.272507   3.782708   2.506728
     8  C    5.132396   4.059602   2.389834   2.769521   2.395111
     9  C    3.956994   2.759539   1.380754   2.399713   2.766255
    10  C    2.849727   1.849129   2.768439   3.453099   4.629232
    11  C    3.228351   2.765852   4.151560   4.784068   6.037266
    12  C    4.012230   3.396425   4.919418   5.835887   7.058106
    13  N    2.567464   1.525744   2.752965   4.025133   5.134515
    14  H    1.006757   2.156709   2.978732   3.008805   4.335004
    15  H    2.987115   2.950667   2.139838   1.080731   2.142645
    16  H    5.287416   4.948455   3.367853   2.136563   1.080617
    17  H    7.516693   6.567838   4.777107   4.534739   3.380238
    18  H    7.169841   6.544863   4.744248   4.220431   2.968559
    19  H    7.295545   6.579739   4.773653   4.038389   2.682921
    20  H    6.044119   4.895786   3.368604   3.849905   3.375437
    21  H    4.149982   2.826929   2.117911   3.364235   3.845264
    22  H    3.145405   2.388116   2.747055   2.984615   4.083409
    23  H    3.691075   2.381448   2.946224   3.821176   4.802898
    24  H    4.118299   3.707811   4.862637   5.306503   6.479211
    25  H    2.648464   2.745197   4.298354   4.808255   6.147616
    26  H    4.843443   3.959375   5.221083   6.177260   7.280975
    27  H    3.625425   2.971063   4.578380   5.651355   6.875177
    28  H    4.596061   4.265414   5.892145   6.747056   8.013597
    29  H    2.622526   2.130895   3.358177   4.551673   5.658597
                    6          7          8          9         10
     6  C    0.000000
     7  C    1.497774   0.000000
     8  C    1.390646   2.511894   0.000000
     9  C    2.409386   3.784646   1.383142   0.000000
    10  C    5.178227   6.605611   4.731198   3.588009   0.000000
    11  C    6.672016   8.107733   6.214872   5.006228   1.518001
    12  C    7.477093   8.918183   6.766215   5.478142   2.515677
    13  N    5.297511   6.747197   4.388754   3.013270   2.696282
    14  H    5.335194   6.736194   5.299856   4.284936   3.096740
    15  H    3.391187   4.648264   3.850239   3.378309   3.464945
    16  H    2.141262   2.703554   3.375146   3.846870   5.378121
    17  H    2.142702   1.087062   2.644858   4.014099   6.983082
    18  H    2.130646   1.090386   3.060700   4.284515   7.284569
    19  H    2.142317   1.087693   3.347419   4.506864   6.880137
    20  H    2.141318   2.713331   1.080387   2.136768   5.532822
    21  H    3.399156   4.668521   2.158884   1.079483   3.671321
    22  H    4.816222   6.174855   4.657205   3.731760   1.089027
    23  H    5.075232   6.441610   4.437562   3.348487   1.085922
    24  H    7.172238   8.542715   6.832587   5.732968   2.150185
    25  H    6.926615   8.387502   6.562696   5.329197   2.126578
    26  H    7.560406   8.936464   6.783458   5.580587   2.812847
    27  H    7.198170   8.656924   6.369925   5.022760   2.706445
    28  H    8.503464   9.955661   7.822055   6.517665   3.457772
    29  H    5.835222   7.259666   4.940377   3.617299   3.557404
                   11         12         13         14         15
    11  C    0.000000
    12  C    1.523259   0.000000
    13  N    3.317223   3.235001   0.000000
    14  H    3.512744   4.580285   3.458682   0.000000
    15  H    4.572364   5.799584   4.375178   2.401119   0.000000
    16  H    6.711519   7.855074   6.104249   4.806282   2.464746
    17  H    8.501008   9.179089   7.026717   7.472292   5.480712
    18  H    8.761851   9.566014   7.155595   7.016154   5.027328
    19  H    8.355539   9.292356   7.392054   7.015419   4.742049
    20  H    6.993243   7.381713   4.959037   6.297680   4.930619
    21  H    4.945992   5.111154   2.510710   4.694059   4.250149
    22  H    2.178639   3.457403   3.565404   3.044204   2.844795
    23  H    2.179123   2.642408   2.750567   4.048876   4.096721
    24  H    1.093606   2.157151   4.364083   4.205469   5.010178
    25  H    1.093682   2.150599   3.451879   2.866782   4.414297
    26  H    2.159186   1.088068   3.690305   5.388629   6.265321
    27  H    2.147653   1.086228   2.410946   4.383540   5.719142
    28  H    2.159346   1.087152   4.095876   5.129569   6.600011
    29  H    3.973978   3.794662   1.005914   3.603974   4.837334
                   16         17         18         19         20
    16  H    0.000000
    17  H    3.710219   0.000000
    18  H    3.040934   1.762621   0.000000
    19  H    2.498659   1.771110   1.760765   0.000000
    20  H    4.269158   2.423922   3.201063   3.659610   0.000000
    21  H    4.925822   4.726728   5.140253   5.455583   2.492268
    22  H    4.679877   6.642564   6.889550   6.294366   5.552369
    23  H    5.644085   6.653569   7.199363   6.771776   5.081865
    24  H    7.049133   8.933697   9.269156   8.668749   7.619418
    25  H    6.753155   8.889746   8.939347   8.636072   7.415612
    26  H    8.106104   9.083580   9.667148   9.299333   7.294944
    27  H    7.747515   8.901607   9.221781   9.144724   6.933794
    28  H    8.766641  10.245967  10.584545  10.309306   8.451298
    29  H    6.599931   7.576631   7.538254   7.961187   5.475396
                   21         22         23         24         25
    21  H    0.000000
    22  H    4.099760   0.000000
    23  H    3.254785   1.783023   0.000000
    24  H    5.756679   2.405553   2.681489   0.000000
    25  H    5.340338   2.604808   3.029342   1.770095   0.000000
    26  H    5.148402   3.706336   2.533286   2.473354   3.055831
    27  H    4.526693   3.765676   2.780500   3.052176   2.512012
    28  H    6.145397   4.301539   3.697013   2.520842   2.456241
    29  H    3.103455   4.390566   3.731802   5.060388   3.883282
                   26         27         28         29
    26  H    0.000000
    27  H    1.764878   0.000000
    28  H    1.765799   1.770885   0.000000
    29  H    4.382842   2.841878   4.482723   0.000000
 Stoichiometry    C10H16N2S
 Framework group  C1[X(C10H16N2S)]
 Deg. of freedom    81
 Full point group                 C1      NOp   1
 Largest Abelian subgroup         C1      NOp   1
 Largest concise Abelian subgroup C1      NOp   1
                         Standard orientation:                         
 ---------------------------------------------------------------------
 Center     Atomic      Atomic             Coordinates (Angstroms)
 Number     Number       Type             X           Y           Z
 ---------------------------------------------------------------------
      1          7           0       -1.613762    1.246960    1.544866
      2         16           0       -1.188588    0.090096    0.634088
      3          6           0        0.607197    0.059178    0.280936
      4          6           0        1.318952    1.220480    0.049301
      5          6           0        2.672273    1.146215   -0.228517
      6          6           0        3.321837   -0.083029   -0.276204
      7          6           0        4.792067   -0.151615   -0.553776
      8          6           0        2.587647   -1.239810   -0.038048
      9          6           0        1.234545   -1.170150    0.240057
     10          6           0       -1.778706    0.231393   -1.112644
     11          6           0       -3.265187    0.538160   -1.137046
     12          6           0       -4.100831   -0.716189   -0.916540
     13          7           0       -1.647048   -1.283826    1.113724
     14          1           0       -1.271767    2.151160    1.263761
     15          1           0        0.822381    2.179536    0.089407
     16          1           0        3.232729    2.052217   -0.409578
     17          1           0        5.069025   -1.126695   -0.946479
     18          1           0        5.350419    0.013164    0.368196
     19          1           0        5.089007    0.615308   -1.265628
     20          1           0        3.080405   -2.200732   -0.070561
     21          1           0        0.644117   -2.052910    0.433477
     22          1           0       -1.184933    1.025334   -1.563278
     23          1           0       -1.542223   -0.721473   -1.576702
     24          1           0       -3.531702    1.001192   -2.091271
     25          1           0       -3.473286    1.258649   -0.340974
     26          1           0       -3.974838   -1.407680   -1.747116
     27          1           0       -3.782122   -1.211400   -0.003806
     28          1           0       -5.154771   -0.462322   -0.834920
     29          1           0       -1.868135   -1.304605    2.094821
 ---------------------------------------------------------------------
 Rotational constants (GHZ):           1.7340783           0.3532095           0.3470387
 Standard basis: def2SVP (5D, 7F)
 There are   279 symmetry adapted cartesian basis functions of A   symmetry.
 There are   266 symmetry adapted basis functions of A   symmetry.
   266 basis functions,   449 primitive gaussians,   279 cartesian basis functions
    53 alpha electrons       53 beta electrons
       nuclear repulsion energy       924.6238827296 Hartrees.
 NAtoms=   29 NActive=   29 NUniq=   29 SFac= 1.00D+00 NAtFMM=   60 NAOKFM=F Big=F
 Integral buffers will be    131072 words long.
 Raffenetti 2 integral format.
 Two-electron integral symmetry is turned on.
 Nuclear repulsion after empirical dispersion term =      924.5923829376 Hartrees.
 One-electron integrals computed using PRISM.
   1 Symmetry operations used in ECPInt.
 ECPInt:  NShTT=    8256 NPrTT=   29630 LenC2=    7728 LenP2D=   20520.
 LDataN:  DoStor=T MaxTD1= 4 Len=   56
 NBasis=   266 RedAO= T EigKep=  2.48D-04  NBF=   266
 NBsUse=   266 1.00D-06 EigRej= -1.00D+00 NBFU=   266
 ExpMin= 1.22D-01 ExpMax= 9.18D+03 ExpMxC= 1.38D+03 IAcc=3 IRadAn=         5 AccDes= 0.00D+00
 Harris functional with IExCor= 1009 and IRadAn=       5 diagonalized for initial guess.
 HarFok:  IExCor= 1009 AccDes= 0.00D+00 IRadAn=         5 IDoV= 1 UseB2=F ITyADJ=14
 ICtDFT=  3500011 ScaDFX=  1.000000  1.000000  1.000000  1.000000
 FoFCou: FMM=F IPFlag=           0 FMFlag=      100000 FMFlg1=           0
         NFxFlg=           0 DoJE=T BraDBF=F KetDBF=T FulRan=T
         wScrn=  0.000000 ICntrl=       500 IOpCl=  0 I1Cent=   200000004 NGrid=           0
         NMat0=    1 NMatS0=      1 NMatT0=    0 NMatD0=    1 NMtDS0=    0 NMtDT0=    0
 Petite list used in FoFCou.
 Requested convergence on RMS density matrix=1.00D-08 within 128 cycles.
 Requested convergence on MAX density matrix=1.00D-06.
 Requested convergence on             energy=1.00D-06.
 No special actions if energy rises.
 Integral accuracy reduced to 1.0D-05 until final iterations.
 Initial convergence to 1.0D-05 achieved.  Increase integral accuracy.
 SCF Done:  E(RPBE1PBE) =  -897.071419046     A.U. after   14 cycles
            NFock= 14  Conv=0.68D-08     -V/T= 2.0065

 **********************************************************************

            Population analysis using the SCF Density.

 **********************************************************************

 Orbital symmetries:
       Occupied  (A) (A) (A) (A) (A) (A) (A) (A) (A) (A) (A) (A)
                 (A) (A) (A) (A) (A) (A) (A) (A) (A) (A) (A) (A)
                 (A) (A) (A) (A) (A) (A) (A) (A) (A) (A) (A) (A)
                 (A) (A) (A) (A) (A) (A) (A) (A) (A) (A) (A) (A)
                 (A) (A) (A) (A) (A)
       Virtual   (A) (A) (A) (A) (A) (A) (A) (A) (A) (A) (A) (A)
                 (A) (A) (A) (A) (A) (A) (A) (A) (A) (A) (A) (A)
                 (A) (A) (A) (A) (A) (A) (A) (A) (A) (A) (A) (A)
                 (A) (A) (A) (A) (A) (A) (A) (A) (A) (A) (A) (A)
                 (A) (A) (A) (A) (A) (A) (A) (A) (A) (A) (A) (A)
                 (A) (A) (A) (A) (A) (A) (A) (A) (A) (A) (A) (A)
                 (A) (A) (A) (A) (A) (A) (A) (A) (A) (A) (A) (A)
                 (A) (A) (A) (A) (A) (A) (A) (A) (A) (A) (A) (A)
                 (A) (A) (A) (A) (A) (A) (A) (A) (A) (A) (A) (A)
                 (A) (A) (A) (A) (A) (A) (A) (A) (A) (A) (A) (A)
                 (A) (A) (A) (A) (A) (A) (A) (A) (A) (A) (A) (A)
                 (A) (A) (A) (A) (A) (A) (A) (A) (A) (A) (A) (A)
                 (A) (A) (A) (A) (A) (A) (A) (A) (A) (A) (A) (A)
                 (A) (A) (A) (A) (A) (A) (A) (A) (A) (A) (A) (A)
                 (A) (A) (A) (A) (A) (A) (A) (A) (A) (A) (A) (A)
                 (A) (A) (A) (A) (A) (A) (A) (A) (A) (A) (A) (A)
                 (A) (A) (A) (A) (A) (A) (A) (A) (A) (A) (A) (A)
                 (A) (A) (A) (A) (A) (A) (A) (A) (A)
 The electronic state is 1-A.
 Alpha  occ. eigenvalues --  -89.17571 -14.34579 -14.33468 -10.25875 -10.25851
 Alpha  occ. eigenvalues --  -10.25770 -10.25755 -10.24895 -10.24818 -10.24611
 Alpha  occ. eigenvalues --  -10.24073 -10.23363 -10.20622  -8.15066  -6.09180
 Alpha  occ. eigenvalues --   -6.09107  -6.09060  -1.00417  -0.89904  -0.84810
 Alpha  occ. eigenvalues --   -0.81592  -0.81069  -0.78053  -0.73554  -0.70910
 Alpha  occ. eigenvalues --   -0.64787  -0.64131  -0.60765  -0.58919  -0.55161
 Alpha  occ. eigenvalues --   -0.52076  -0.50470  -0.48914  -0.48730  -0.47191
 Alpha  occ. eigenvalues --   -0.45230  -0.45102  -0.44909  -0.42827  -0.42256
 Alpha  occ. eigenvalues --   -0.41165  -0.39184  -0.38316  -0.36818  -0.35971
 Alpha  occ. eigenvalues --   -0.35757  -0.34979  -0.30430  -0.28389  -0.28143
 Alpha  occ. eigenvalues --   -0.27040  -0.24855  -0.24048
 Alpha virt. eigenvalues --   -0.02684  -0.01849   0.05232   0.06450   0.07953
 Alpha virt. eigenvalues --    0.08458   0.08817   0.10146   0.10869   0.11373
 Alpha virt. eigenvalues --    0.11657   0.12161   0.12926   0.14526   0.14711
 Alpha virt. eigenvalues --    0.15479   0.16111   0.16927   0.17727   0.18746
 Alpha virt. eigenvalues --    0.19235   0.20544   0.21552   0.22495   0.24283
 Alpha virt. eigenvalues --    0.26769   0.30051   0.30617   0.31088   0.32846
 Alpha virt. eigenvalues --    0.34944   0.40313   0.40641   0.41331   0.42435
 Alpha virt. eigenvalues --    0.43695   0.43965   0.44276   0.45371   0.45877
 Alpha virt. eigenvalues --    0.47834   0.48662   0.48949   0.49855   0.51302
 Alpha virt. eigenvalues --    0.51598   0.54642   0.56340   0.58062   0.59902
 Alpha virt. eigenvalues --    0.60368   0.62626   0.63655   0.64075   0.64382
 Alpha virt. eigenvalues --    0.65435   0.65607   0.65917   0.67028   0.67188
 Alpha virt. eigenvalues --    0.67831   0.68553   0.68930   0.69501   0.70109
 Alpha virt. eigenvalues --    0.70508   0.70904   0.71444   0.72126   0.72943
 Alpha virt. eigenvalues --    0.73035   0.73775   0.74594   0.75804   0.77265
 Alpha virt. eigenvalues --    0.77518   0.78542   0.79013   0.79893   0.82328
 Alpha virt. eigenvalues --    0.82757   0.84532   0.85605   0.88091   0.90655
 Alpha virt. eigenvalues --    0.91943   0.93239   0.94827   0.96452   0.99217
 Alpha virt. eigenvalues --    1.01900   1.02146   1.03466   1.05704   1.08511
 Alpha virt. eigenvalues --    1.10780   1.11792   1.14946   1.16153   1.18330
 Alpha virt. eigenvalues --    1.19812   1.23108   1.23775   1.24096   1.25062
 Alpha virt. eigenvalues --    1.26676   1.27304   1.29983   1.30699   1.33808
 Alpha virt. eigenvalues --    1.37521   1.40460   1.45298   1.45478   1.48250
 Alpha virt. eigenvalues --    1.51296   1.51831   1.52844   1.54855   1.55561
 Alpha virt. eigenvalues --    1.56397   1.59695   1.60141   1.67903   1.69821
 Alpha virt. eigenvalues --    1.70963   1.72105   1.72995   1.74954   1.75370
 Alpha virt. eigenvalues --    1.76052   1.76161   1.77272   1.78452   1.79647
 Alpha virt. eigenvalues --    1.80390   1.81132   1.82469   1.82920   1.83952
 Alpha virt. eigenvalues --    1.85197   1.85743   1.86353   1.88221   1.89522
 Alpha virt. eigenvalues --    1.90116   1.91398   1.96284   1.96758   1.98586
 Alpha virt. eigenvalues --    1.99005   2.00785   2.03821   2.05817   2.06105
 Alpha virt. eigenvalues --    2.09722   2.10218   2.11097   2.13661   2.15554
 Alpha virt. eigenvalues --    2.16346   2.18972   2.19802   2.23171   2.24888
 Alpha virt. eigenvalues --    2.27852   2.28731   2.29759   2.31246   2.34570
 Alpha virt. eigenvalues --    2.36098   2.37231   2.38056   2.40662   2.43151
 Alpha virt. eigenvalues --    2.44687   2.45402   2.49247   2.49504   2.50559
 Alpha virt. eigenvalues --    2.52118   2.58011   2.60031   2.60960   2.61314
 Alpha virt. eigenvalues --    2.62368   2.64254   2.65945   2.66325   2.66890
 Alpha virt. eigenvalues --    2.67793   2.75759   2.76902   2.78934   2.84020
 Alpha virt. eigenvalues --    2.86683   2.87980   2.90322   2.92205   2.93622
 Alpha virt. eigenvalues --    2.95129   2.96351   2.97013   2.97659   3.01505
 Alpha virt. eigenvalues --    3.01935   3.07981   3.11017   3.16071   3.25608
 Alpha virt. eigenvalues --    3.26943   3.33054   3.61395
          Condensed to atoms (all electrons):
               1          2          3          4          5          6
     1  N    6.876450   0.338683  -0.035659  -0.002920   0.000266  -0.000020
     2  S    0.338683  14.686925   0.095152  -0.029603   0.000695   0.000627
     3  C   -0.035659   0.095152   5.943680   0.160505   0.086000  -0.192390
     4  C   -0.002920  -0.029603   0.160505   5.122773   0.331255   0.090512
     5  C    0.000266   0.000695   0.086000   0.331255   5.042334   0.290881
     6  C   -0.000020   0.000627  -0.192390   0.090512   0.290881   5.304240
     7  C   -0.000000   0.000013   0.000973   0.010098  -0.079459   0.412359
     8  C   -0.000054   0.003008   0.098530  -0.123664   0.049938   0.267244
     9  C    0.003947  -0.040634   0.276452   0.035562  -0.113400   0.105349
    10  C   -0.054854   0.238374  -0.131309  -0.004898  -0.000703  -0.000119
    11  C   -0.006453  -0.056894   0.009602  -0.000060  -0.000010   0.000002
    12  C   -0.000700  -0.002463  -0.000598   0.000011   0.000000  -0.000000
    13  N   -0.068375   0.379476  -0.078400   0.006166   0.000008  -0.000060
    14  H    0.316261  -0.003684  -0.010007   0.006389   0.000901   0.000006
    15  H    0.003199  -0.003235  -0.095121   0.439637  -0.046660   0.014885
    16  H    0.000005  -0.000129   0.017737  -0.068128   0.454717  -0.078024
    17  H    0.000000  -0.000000   0.000014  -0.000583   0.008324  -0.018641
    18  H   -0.000000  -0.000000   0.000111  -0.000176  -0.003411  -0.015224
    19  H    0.000000  -0.000000   0.000037   0.000613  -0.008514  -0.019474
    20  H    0.000001  -0.000159   0.017410  -0.001904   0.015200  -0.078427
    21  H    0.000816  -0.011979  -0.072877   0.014844  -0.002025   0.014091
    22  H    0.000421  -0.016071   0.004302   0.005289   0.000408   0.000017
    23  H    0.003362  -0.008324   0.003250  -0.000125  -0.000000  -0.000012
    24  H    0.000018   0.004896  -0.000188  -0.000050  -0.000000   0.000000
    25  H    0.031087  -0.004634   0.001403   0.000081  -0.000003   0.000000
    26  H   -0.000033  -0.000745   0.000035   0.000001   0.000000   0.000000
    27  H    0.001361  -0.000286   0.000826  -0.000039   0.000000   0.000000
    28  H   -0.000008   0.000094   0.000016  -0.000001   0.000000   0.000000
    29  H    0.004604  -0.012902   0.002231  -0.000301  -0.000026   0.000006
               7          8          9         10         11         12
     1  N   -0.000000  -0.000054   0.003947  -0.054854  -0.006453  -0.000700
     2  S    0.000013   0.003008  -0.040634   0.238374  -0.056894  -0.002463
     3  C    0.000973   0.098530   0.276452  -0.131309   0.009602  -0.000598
     4  C    0.010098  -0.123664   0.035562  -0.004898  -0.000060   0.000011
     5  C   -0.079459   0.049938  -0.113400  -0.000703  -0.000010   0.000000
     6  C    0.412359   0.267244   0.105349  -0.000119   0.000002  -0.000000
     7  C    4.565744  -0.078063   0.009691  -0.000000   0.000000  -0.000000
     8  C   -0.078063   5.143192   0.243482  -0.000500   0.000000   0.000000
     9  C    0.009691   0.243482   5.076705  -0.002792  -0.000098   0.000011
    10  C   -0.000000  -0.000500  -0.002792   5.212843   0.342160  -0.059346
    11  C    0.000000   0.000000  -0.000098   0.342160   4.709788   0.424869
    12  C   -0.000000   0.000000   0.000011  -0.059346   0.424869   4.594867
    13  N    0.000000   0.002145   0.001274  -0.081413  -0.002566  -0.013033
    14  H   -0.000000  -0.000044  -0.000942  -0.002838  -0.000086   0.000067
    15  H   -0.000295  -0.001495   0.013162   0.000888  -0.000154   0.000005
    16  H   -0.013708   0.015196  -0.002079   0.000029  -0.000001   0.000000
    17  H    0.390392  -0.009810   0.000722  -0.000000   0.000000   0.000000
    18  H    0.386357  -0.002160  -0.000416   0.000000  -0.000000   0.000000
    19  H    0.389623   0.007140  -0.000570  -0.000000   0.000000   0.000000
    20  H   -0.015395   0.457562  -0.069205   0.000020  -0.000000   0.000000
    21  H   -0.000231  -0.058745   0.442203   0.001125  -0.000127   0.000024
    22  H   -0.000001  -0.000008  -0.000724   0.348258  -0.015137   0.007502
    23  H   -0.000000   0.000272   0.001802   0.348011  -0.019528  -0.007109
    24  H   -0.000000  -0.000000  -0.000002  -0.019603   0.383092  -0.022221
    25  H    0.000000   0.000002  -0.000047  -0.047306   0.378117  -0.024720
    26  H   -0.000000  -0.000000  -0.000008  -0.007429  -0.027075   0.393679
    27  H   -0.000000   0.000000   0.000053  -0.015081  -0.023413   0.397561
    28  H    0.000000  -0.000000   0.000000   0.008621  -0.021298   0.380829
    29  H   -0.000000  -0.000106  -0.000315   0.006695   0.000023   0.000105
              13         14         15         16         17         18
     1  N   -0.068375   0.316261   0.003199   0.000005   0.000000  -0.000000
     2  S    0.379476  -0.003684  -0.003235  -0.000129  -0.000000  -0.000000
     3  C   -0.078400  -0.010007  -0.095121   0.017737   0.000014   0.000111
     4  C    0.006166   0.006389   0.439637  -0.068128  -0.000583  -0.000176
     5  C    0.000008   0.000901  -0.046660   0.454717   0.008324  -0.003411
     6  C   -0.000060   0.000006   0.014885  -0.078024  -0.018641  -0.015224
     7  C    0.000000  -0.000000  -0.000295  -0.013708   0.390392   0.386357
     8  C    0.002145  -0.000044  -0.001495   0.015196  -0.009810  -0.002160
     9  C    0.001274  -0.000942   0.013162  -0.002079   0.000722  -0.000416
    10  C   -0.081413  -0.002838   0.000888   0.000029  -0.000000   0.000000
    11  C   -0.002566  -0.000086  -0.000154  -0.000001   0.000000  -0.000000
    12  C   -0.013033   0.000067   0.000005   0.000000   0.000000   0.000000
    13  N    6.861690   0.004601   0.000277   0.000001   0.000000  -0.000000
    14  H    0.004601   0.570145   0.004468  -0.000006  -0.000000   0.000000
    15  H    0.000277   0.004468   0.681398  -0.012954   0.000012   0.000001
    16  H    0.000001  -0.000006  -0.012954   0.677201   0.000107   0.001116
    17  H    0.000000  -0.000000   0.000012   0.000107   0.620171  -0.018531
    18  H   -0.000000   0.000000   0.000001   0.001116  -0.018531   0.603505
    19  H    0.000000   0.000000   0.000001   0.004861  -0.022231  -0.019001
    20  H   -0.000009   0.000000   0.000046  -0.000264   0.005935   0.000714
    21  H    0.033740  -0.000137  -0.000220   0.000031   0.000001   0.000006
    22  H    0.005028   0.000989   0.001266  -0.000023  -0.000000  -0.000000
    23  H    0.005718  -0.000141  -0.000053  -0.000001   0.000000  -0.000000
    24  H   -0.000284  -0.000003  -0.000004   0.000000  -0.000000   0.000000
    25  H   -0.000899   0.000282  -0.000161  -0.000000  -0.000000   0.000000
    26  H    0.000523   0.000004   0.000000  -0.000000  -0.000000   0.000000
    27  H    0.037834  -0.000107  -0.000004  -0.000000  -0.000000   0.000000
    28  H    0.000500  -0.000006  -0.000000  -0.000000   0.000000  -0.000000
    29  H    0.331096  -0.000188  -0.000034   0.000000  -0.000000   0.000000
              19         20         21         22         23         24
     1  N    0.000000   0.000001   0.000816   0.000421   0.003362   0.000018
     2  S   -0.000000  -0.000159  -0.011979  -0.016071  -0.008324   0.004896
     3  C    0.000037   0.017410  -0.072877   0.004302   0.003250  -0.000188
     4  C    0.000613  -0.001904   0.014844   0.005289  -0.000125  -0.000050
     5  C   -0.008514   0.015200  -0.002025   0.000408  -0.000000  -0.000000
     6  C   -0.019474  -0.078427   0.014091   0.000017  -0.000012   0.000000
     7  C    0.389623  -0.015395  -0.000231  -0.000001  -0.000000  -0.000000
     8  C    0.007140   0.457562  -0.058745  -0.000008   0.000272  -0.000000
     9  C   -0.000570  -0.069205   0.442203  -0.000724   0.001802  -0.000002
    10  C   -0.000000   0.000020   0.001125   0.348258   0.348011  -0.019603
    11  C    0.000000  -0.000000  -0.000127  -0.015137  -0.019528   0.383092
    12  C    0.000000   0.000000   0.000024   0.007502  -0.007109  -0.022221
    13  N    0.000000  -0.000009   0.033740   0.005028   0.005718  -0.000284
    14  H    0.000000   0.000000  -0.000137   0.000989  -0.000141  -0.000003
    15  H    0.000001   0.000046  -0.000220   0.001266  -0.000053  -0.000004
    16  H    0.004861  -0.000264   0.000031  -0.000023  -0.000001   0.000000
    17  H   -0.022231   0.005935   0.000001  -0.000000   0.000000  -0.000000
    18  H   -0.019001   0.000714   0.000006  -0.000000  -0.000000   0.000000
    19  H    0.619643   0.000182   0.000008   0.000000   0.000000  -0.000000
    20  H    0.000182   0.672412  -0.011075  -0.000000  -0.000009   0.000000
    21  H    0.000008  -0.011075   0.619143  -0.000087   0.000678   0.000001
    22  H    0.000000  -0.000000  -0.000087   0.628129  -0.015611  -0.010506
    23  H    0.000000  -0.000009   0.000678  -0.015611   0.605472  -0.002615
    24  H   -0.000000   0.000000   0.000001  -0.010506  -0.002615   0.651024
    25  H   -0.000000  -0.000000  -0.000006  -0.001015   0.008908  -0.023324
    26  H    0.000000   0.000000  -0.000009   0.000138   0.006026  -0.009926
    27  H   -0.000000  -0.000000   0.000018   0.000674  -0.001021   0.006400
    28  H    0.000000  -0.000000  -0.000000  -0.000362   0.000289  -0.004719
    29  H   -0.000000   0.000001  -0.000726  -0.000349  -0.000714   0.000034
              25         26         27         28         29
     1  N    0.031087  -0.000033   0.001361  -0.000008   0.004604
     2  S   -0.004634  -0.000745  -0.000286   0.000094  -0.012902
     3  C    0.001403   0.000035   0.000826   0.000016   0.002231
     4  C    0.000081   0.000001  -0.000039  -0.000001  -0.000301
     5  C   -0.000003   0.000000   0.000000   0.000000  -0.000026
     6  C    0.000000   0.000000   0.000000   0.000000   0.000006
     7  C    0.000000  -0.000000  -0.000000   0.000000  -0.000000
     8  C    0.000002  -0.000000   0.000000  -0.000000  -0.000106
     9  C   -0.000047  -0.000008   0.000053   0.000000  -0.000315
    10  C   -0.047306  -0.007429  -0.015081   0.008621   0.006695
    11  C    0.378117  -0.027075  -0.023413  -0.021298   0.000023
    12  C   -0.024720   0.393679   0.397561   0.380829   0.000105
    13  N   -0.000899   0.000523   0.037834   0.000500   0.331096
    14  H    0.000282   0.000004  -0.000107  -0.000006  -0.000188
    15  H   -0.000161   0.000000  -0.000004  -0.000000  -0.000034
    16  H   -0.000000  -0.000000  -0.000000  -0.000000   0.000000
    17  H   -0.000000  -0.000000  -0.000000   0.000000  -0.000000
    18  H    0.000000   0.000000   0.000000  -0.000000   0.000000
    19  H   -0.000000   0.000000  -0.000000   0.000000  -0.000000
    20  H   -0.000000   0.000000  -0.000000  -0.000000   0.000001
    21  H   -0.000006  -0.000009   0.000018  -0.000000  -0.000726
    22  H   -0.001015   0.000138   0.000674  -0.000362  -0.000349
    23  H    0.008908   0.006026  -0.001021   0.000289  -0.000714
    24  H   -0.023324  -0.009926   0.006400  -0.004719   0.000034
    25  H    0.640427   0.007578  -0.005260  -0.007331  -0.000165
    26  H    0.007578   0.652402  -0.020251  -0.024259  -0.000009
    27  H   -0.005260  -0.020251   0.572758  -0.014072  -0.000118
    28  H   -0.007331  -0.024259  -0.014072   0.646936  -0.000028
    29  H   -0.000165  -0.000009  -0.000118  -0.000028   0.534883
 Mulliken charges:
               1
     1  N   -0.411405
     2  S    0.443801
     3  C   -0.101718
     4  C    0.008715
     5  C   -0.026715
     6  C   -0.097830
     7  C    0.021902
     8  C   -0.013062
     9  C    0.020815
    10  C   -0.078832
    11  C   -0.074752
    12  C   -0.069341
    13  N   -0.425038
    14  H    0.114075
    15  H    0.001141
    16  H    0.004314
    17  H    0.044117
    18  H    0.067108
    19  H    0.047683
    20  H    0.006966
    21  H    0.031514
    22  H    0.057473
    23  H    0.071477
    24  H    0.047978
    25  H    0.046988
    26  H    0.029359
    27  H    0.062164
    28  H    0.034798
    29  H    0.136304
 Sum of Mulliken charges =  -0.00000
 Mulliken charges with hydrogens summed into heavy atoms:
               1
     1  N   -0.297330
     2  S    0.443801
     3  C   -0.101718
     4  C    0.009856
     5  C   -0.022401
     6  C   -0.097830
     7  C    0.180811
     8  C   -0.006097
     9  C    0.052329
    10  C    0.050118
    11  C    0.020213
    12  C    0.056981
    13  N   -0.288734
 Electronic spatial extent (au):  <R**2>=           3465.9499
 Charge=             -0.0000 electrons
 Dipole moment (field-independent basis, Debye):
    X=              3.3124    Y=              1.4022    Z=             -2.5222  Tot=              4.3931
 Quadrupole moment (field-independent basis, Debye-Ang):
   XX=            -81.3957   YY=            -83.6161   ZZ=            -90.0713
   XY=             -1.7137   XZ=              3.5436   YZ=             -2.6667
 Traceless Quadrupole moment (field-independent basis, Debye-Ang):
   XX=              3.6320   YY=              1.4116   ZZ=             -5.0436
   XY=             -1.7137   XZ=              3.5436   YZ=             -2.6667
 Octapole moment (field-independent basis, Debye-Ang**2):
  XXX=             44.2582  YYY=             14.0984  ZZZ=              0.1048  XYY=             12.5893
  XXY=              0.8575  XXZ=            -13.4716  XZZ=             -5.6200  YZZ=             -9.1231
  YYZ=             -0.8817  XYZ=              5.2925
 Hexadecapole moment (field-independent basis, Debye-Ang**3):
 XXXX=          -3559.5026 YYYY=           -511.1535 ZZZZ=           -461.7829 XXXY=            -11.8333
 XXXZ=             -9.6543 YYYX=            -22.9595 YYYZ=              7.2973 ZZZX=              0.3051
 ZZZY=            -27.0947 XXYY=           -702.0151 XXZZ=           -709.5386 YYZZ=           -167.6408
 XXYZ=            -19.9104 YYXZ=             -4.0514 ZZXY=             20.5303
 N-N= 9.245923829376D+02 E-N=-3.950426148995D+03  KE= 8.912638234908D+02
   1 Symmetry operations used in ECPInt.
 ECPInt:  NShTT=    8256 NPrTT=   29630 LenC2=    7728 LenP2D=   20520.
 LDataN:  DoStor=T MaxTD1= 5 Len=  102
 Calling FoFJK, ICntrl=      2127 FMM=F ISym2X=0 I1Cent= 0 IOpClX= 0 NMat=1 NMatS=1 NMatT=0.
 ***** Axes restored to original set *****
 -------------------------------------------------------------------
 Center     Atomic                   Forces (Hartrees/Bohr)
 Number     Number              X              Y              Z
 -------------------------------------------------------------------
      1        7          -0.004897949   -0.005759463    0.001787894
      2       16           0.003530554    0.007407959   -0.002336803
      3        6          -0.012076139   -0.002277742    0.000668909
      4        6          -0.000467901    0.000208073    0.002531856
      5        6          -0.002833431    0.000073410   -0.000142491
      6        6           0.009420293    0.000962403   -0.001581109
      7        6          -0.008626525   -0.000759468    0.000518490
      8        6          -0.000817199    0.000405765    0.002886554
      9        6          -0.001635943   -0.001083295   -0.002360913
     10        6          -0.008122290   -0.011797064    0.006189166
     11        6           0.000520127   -0.005759192   -0.012672597
     12        6           0.001963528    0.001765697    0.010048703
     13        7           0.001529740    0.015063861   -0.018363388
     14        1           0.006079315    0.004948328    0.010095192
     15        1          -0.003354329    0.001100968    0.008941932
     16        1           0.004726007    0.001869800    0.007577891
     17        1           0.003767857    0.001718530   -0.006968879
     18        1           0.004810040   -0.006559494    0.001831443
     19        1           0.004212493    0.005285240    0.004502399
     20        1           0.004022455   -0.001159455   -0.008186733
     21        1          -0.005754778   -0.002285354   -0.008225022
     22        1           0.006348689    0.001867068    0.004785740
     23        1           0.005175303    0.002832001   -0.008108015
     24        1           0.001251037    0.004839924    0.003711850
     25        1          -0.001760869   -0.001879339    0.006741604
     26        1           0.001214117    0.005293257   -0.007327155
     27        1           0.000746627   -0.006811240   -0.004094121
     28        1          -0.009050128    0.001285228    0.000722636
     29        1           0.000079297   -0.010796405    0.006824968
 -------------------------------------------------------------------
 Cartesian Forces:  Max     0.018363388 RMS     0.005852836

 GradGradGradGradGradGradGradGradGradGradGradGradGradGradGradGradGradGrad
 Berny optimization.
 FormGI is forming the generalized inverse of G from B-inverse, IUseBI=4.
 Internal  Forces:  Max     0.012665325 RMS     0.004333222
 Search for a local minimum.
 Step number   1 out of a maximum of  158
 All quantities printed in internal units (Hartrees-Bohrs-Radians)
 Mixed Optimization -- RFO/linear search
 Second derivative matrix not updated -- first step.
 ITU=  0
     Eigenvalues ---    0.00230   0.00230   0.00458   0.00528   0.00795
     Eigenvalues ---    0.01484   0.01661   0.02223   0.02255   0.02265
     Eigenvalues ---    0.02294   0.02319   0.02326   0.02334   0.03512
     Eigenvalues ---    0.03601   0.03775   0.03945   0.04870   0.04994
     Eigenvalues ---    0.05688   0.05774   0.06971   0.07238   0.07434
     Eigenvalues ---    0.07707   0.07897   0.08182   0.09291   0.11756
     Eigenvalues ---    0.12075   0.16000   0.16000   0.16000   0.16000
     Eigenvalues ---    0.16000   0.16000   0.16000   0.16000   0.16000
     Eigenvalues ---    0.16000   0.16000   0.16000   0.16073   0.19521
     Eigenvalues ---    0.21944   0.21979   0.22000   0.22599   0.22978
     Eigenvalues ---    0.23858   0.23998   0.24995   0.24999   0.30055
     Eigenvalues ---    0.30560   0.32612   0.34391   0.34399   0.34768
     Eigenvalues ---    0.34925   0.35037   0.35081   0.35144   0.35154
     Eigenvalues ---    0.35252   0.35288   0.35906   0.35920   0.35948
     Eigenvalues ---    0.36057   0.43522   0.43610   0.46520   0.46663
     Eigenvalues ---    0.47462   0.48151   0.48497   0.48823   0.66841
     Eigenvalues ---    0.68746
 RFO step:  Lambda=-9.53527092D-03 EMin= 2.30000000D-03
 Linear search not attempted -- first point.
 Iteration  1 RMS(Cart)=  0.06121201 RMS(Int)=  0.00130853
 Iteration  2 RMS(Cart)=  0.00219982 RMS(Int)=  0.00017336
 Iteration  3 RMS(Cart)=  0.00000333 RMS(Int)=  0.00017335
 Iteration  4 RMS(Cart)=  0.00000000 RMS(Int)=  0.00017335
 Variable       Old X    -DE/DX   Delta X   Delta X   Delta X     New X
                                 (Linear)    (Quad)   (Total)
    R1        2.89605   0.00965   0.00000   0.01424   0.01424   2.91029
    R2        1.90249   0.01267   0.00000   0.02668   0.02668   1.92917
    R3        3.45903  -0.00480   0.00000  -0.01934  -0.01934   3.43969
    R4        3.49435  -0.00787   0.00000  -0.03339  -0.03339   3.46095
    R5        2.88324   0.00777   0.00000   0.01115   0.01115   2.89439
    R6        2.61088   0.01121   0.00000   0.02264   0.02264   2.63352
    R7        2.60925   0.00949   0.00000   0.01918   0.01918   2.62842
    R8        2.61451   0.00841   0.00000   0.01696   0.01696   2.63147
    R9        2.04229   0.00954   0.00000   0.02588   0.02588   2.06817
   R10        2.62886   0.01076   0.00000   0.02220   0.02220   2.65106
   R11        2.04207   0.00912   0.00000   0.02474   0.02474   2.06681
   R12        2.83038   0.00414   0.00000   0.01234   0.01234   2.84273
   R13        2.62794   0.00997   0.00000   0.02058   0.02059   2.64853
   R14        2.05425   0.00798   0.00000   0.02209   0.02209   2.07634
   R15        2.06053   0.00816   0.00000   0.02285   0.02285   2.08338
   R16        2.05544   0.00799   0.00000   0.02216   0.02216   2.07760
   R17        2.61376   0.01030   0.00000   0.02086   0.02087   2.63462
   R18        2.04164   0.00919   0.00000   0.02491   0.02491   2.06655
   R19        2.03993   0.01029   0.00000   0.02781   0.02781   2.06774
   R20        2.86861   0.00422   0.00000   0.01338   0.01338   2.88199
   R21        2.05796   0.00783   0.00000   0.02184   0.02184   2.07980
   R22        2.05210   0.00967   0.00000   0.02667   0.02667   2.07877
   R23        2.87854   0.00315   0.00000   0.01016   0.01016   2.88870
   R24        2.06662   0.00555   0.00000   0.01571   0.01571   2.08233
   R25        2.06676   0.00663   0.00000   0.01874   0.01874   2.08550
   R26        2.05615   0.00903   0.00000   0.02509   0.02509   2.08124
   R27        2.05267   0.00782   0.00000   0.02161   0.02161   2.07428
   R28        2.05442   0.00905   0.00000   0.02508   0.02508   2.07950
   R29        1.90090   0.01069   0.00000   0.02245   0.02245   1.92335
    A1        2.00181  -0.00306   0.00000  -0.01805  -0.01805   1.98377
    A2        1.98187  -0.00491   0.00000  -0.03743  -0.03749   1.94438
    A3        1.99893  -0.00266   0.00000  -0.01522  -0.01564   1.98328
    A4        1.99278   0.00688   0.00000   0.05256   0.05267   2.04545
    A5        1.70332   0.00439   0.00000   0.00698   0.00666   1.70998
    A6        1.91796  -0.00190   0.00000  -0.01008  -0.00985   1.90811
    A7        1.84405  -0.00231   0.00000  -0.00305  -0.00309   1.84096
    A8        2.12181  -0.00122   0.00000  -0.00495  -0.00497   2.11685
    A9        2.05613   0.00006   0.00000   0.00001  -0.00001   2.05612
   A10        2.10520   0.00116   0.00000   0.00504   0.00502   2.11022
   A11        2.08571  -0.00071   0.00000  -0.00301  -0.00301   2.08270
   A12        2.09784   0.00153   0.00000   0.00840   0.00840   2.10624
   A13        2.09963  -0.00081   0.00000  -0.00540  -0.00540   2.09423
   A14        2.10720   0.00113   0.00000   0.00440   0.00439   2.11159
   A15        2.08974  -0.00076   0.00000  -0.00335  -0.00336   2.08638
   A16        2.08625  -0.00037   0.00000  -0.00105  -0.00105   2.08520
   A17        2.10036   0.00094   0.00000   0.00389   0.00388   2.10425
   A18        2.07447  -0.00171   0.00000  -0.00722  -0.00723   2.06724
   A19        2.10818   0.00077   0.00000   0.00324   0.00324   2.11141
   A20        1.93704   0.00131   0.00000   0.00751   0.00748   1.94452
   A21        1.91668   0.00188   0.00000   0.01142   0.01137   1.92805
   A22        1.93583   0.00139   0.00000   0.00810   0.00806   1.94389
   A23        1.88656  -0.00160   0.00000  -0.00924  -0.00928   1.87728
   A24        1.90337  -0.00158   0.00000  -0.00995  -0.00997   1.89340
   A25        1.88287  -0.00158   0.00000  -0.00885  -0.00890   1.87397
   A26        2.10484   0.00207   0.00000   0.00880   0.00880   2.11365
   A27        2.08737  -0.00085   0.00000  -0.00331  -0.00331   2.08406
   A28        2.09097  -0.00122   0.00000  -0.00549  -0.00549   2.08548
   A29        2.08895  -0.00194   0.00000  -0.00801  -0.00801   2.08094
   A30        2.06492   0.00103   0.00000   0.00439   0.00439   2.06931
   A31        2.12930   0.00090   0.00000   0.00361   0.00361   2.13291
   A32        1.92105   0.00468   0.00000   0.02337   0.02319   1.94424
   A33        1.84688  -0.00344   0.00000  -0.03023  -0.03024   1.81664
   A34        1.84121  -0.00152   0.00000  -0.00043  -0.00099   1.84022
   A35        1.96052  -0.00011   0.00000   0.00029   0.00055   1.96107
   A36        1.96460   0.00033   0.00000   0.01845   0.01824   1.98284
   A37        1.92212  -0.00019   0.00000  -0.01411  -0.01427   1.90785
   A38        1.94815   0.00955   0.00000   0.04860   0.04826   1.99641
   A39        1.91583  -0.00494   0.00000  -0.03578  -0.03582   1.88001
   A40        1.88363  -0.00224   0.00000   0.00025  -0.00085   1.88278
   A41        1.91906  -0.00153   0.00000  -0.00417  -0.00357   1.91550
   A42        1.90999  -0.00148   0.00000   0.01129   0.01067   1.92066
   A43        1.88580   0.00037   0.00000  -0.02218  -0.02243   1.86336
   A44        1.92762   0.00105   0.00000   0.00446   0.00445   1.93208
   A45        1.91356   0.00175   0.00000   0.01141   0.01135   1.92492
   A46        1.92880   0.00117   0.00000   0.00756   0.00751   1.93631
   A47        1.89412  -0.00160   0.00000  -0.01070  -0.01071   1.88340
   A48        1.89439  -0.00144   0.00000  -0.01053  -0.01054   1.88385
   A49        1.90479  -0.00104   0.00000  -0.00282  -0.00291   1.90188
   A50        1.97279  -0.01238   0.00000  -0.07299  -0.07299   1.89979
    D1        0.86706   0.00019   0.00000  -0.01602  -0.01552   0.85154
    D2       -1.06919  -0.00047   0.00000   0.00939   0.00919  -1.05999
    D3        3.08454  -0.00078   0.00000  -0.01707  -0.01737   3.06718
    D4       -0.69242   0.00214   0.00000   0.01770   0.01772  -0.67470
    D5        2.45933   0.00186   0.00000   0.00648   0.00653   2.46586
    D6        1.41940  -0.00044   0.00000  -0.01159  -0.01155   1.40785
    D7       -1.71204  -0.00072   0.00000  -0.02282  -0.02274  -1.73478
    D8       -2.94846  -0.00158   0.00000  -0.01466  -0.01477  -2.96323
    D9        0.20329  -0.00186   0.00000  -0.02589  -0.02597   0.17733
   D10       -0.86060  -0.00259   0.00000  -0.01712  -0.01698  -0.87757
   D11        1.26163  -0.00218   0.00000  -0.02198  -0.02204   1.23959
   D12       -2.98432  -0.00464   0.00000  -0.05186  -0.05172  -3.03604
   D13       -2.95956   0.00166   0.00000   0.02911   0.02919  -2.93037
   D14       -0.83733   0.00206   0.00000   0.02425   0.02412  -0.81321
   D15        1.19990  -0.00040   0.00000  -0.00564  -0.00556   1.19434
   D16        1.34803   0.00271   0.00000   0.03819   0.03817   1.38620
   D17       -2.81292   0.00311   0.00000   0.03333   0.03311  -2.77982
   D18       -0.77569   0.00065   0.00000   0.00344   0.00343  -0.77226
   D19       -0.36159  -0.00075   0.00000  -0.02241  -0.02218  -0.38377
   D20        1.88850  -0.00346   0.00000  -0.03907  -0.03905   1.84945
   D21       -2.57396  -0.00025   0.00000  -0.03639  -0.03664  -2.61060
   D22       -3.12887  -0.00008   0.00000  -0.00405  -0.00405  -3.13292
   D23        0.01748  -0.00001   0.00000  -0.00212  -0.00211   0.01537
   D24        0.00228   0.00020   0.00000   0.00745   0.00747   0.00975
   D25       -3.13455   0.00027   0.00000   0.00938   0.00940  -3.12515
   D26        3.12925   0.00012   0.00000   0.00540   0.00543   3.13468
   D27       -0.01736   0.00007   0.00000   0.00375   0.00377  -0.01359
   D28       -0.00228  -0.00014   0.00000  -0.00565  -0.00566  -0.00794
   D29        3.13428  -0.00019   0.00000  -0.00730  -0.00732   3.12697
   D30       -0.00051  -0.00017   0.00000  -0.00565  -0.00565  -0.00615
   D31       -3.14083  -0.00001   0.00000  -0.00065  -0.00065  -3.14148
   D32        3.13632  -0.00024   0.00000  -0.00754  -0.00753   3.12879
   D33       -0.00400  -0.00008   0.00000  -0.00254  -0.00253  -0.00653
   D34       -3.12262   0.00021   0.00000   0.00730   0.00729  -3.11533
   D35       -0.00122   0.00009   0.00000   0.00209   0.00210   0.00087
   D36        0.01770   0.00005   0.00000   0.00230   0.00229   0.02000
   D37        3.13910  -0.00006   0.00000  -0.00291  -0.00290   3.13620
   D38       -2.74436  -0.00000   0.00000  -0.00184  -0.00184  -2.74620
   D39        1.45391  -0.00005   0.00000  -0.00244  -0.00245   1.45146
   D40       -0.62565  -0.00017   0.00000  -0.00383  -0.00384  -0.62949
   D41        0.41782   0.00014   0.00000   0.00359   0.00361   0.42143
   D42       -1.66709   0.00010   0.00000   0.00299   0.00300  -1.66409
   D43        2.53654  -0.00002   0.00000   0.00161   0.00160   2.53814
   D44        0.00122  -0.00003   0.00000  -0.00025  -0.00026   0.00096
   D45       -3.13992  -0.00000   0.00000   0.00086   0.00086  -3.13907
   D46        3.12253  -0.00015   0.00000  -0.00548  -0.00547   3.11706
   D47       -0.01862  -0.00012   0.00000  -0.00436  -0.00435  -0.02297
   D48        0.00051   0.00005   0.00000   0.00201   0.00202   0.00253
   D49       -3.13587   0.00011   0.00000   0.00373   0.00374  -3.13213
   D50       -3.14153   0.00002   0.00000   0.00090   0.00090  -3.14063
   D51        0.00528   0.00008   0.00000   0.00261   0.00262   0.00790
   D52       -1.39697  -0.00164   0.00000  -0.04756  -0.04791  -1.44488
   D53        2.75382  -0.00269   0.00000  -0.05018  -0.05000   2.70382
   D54        0.70247   0.00087   0.00000  -0.00401  -0.00417   0.69830
   D55        2.83317  -0.00034   0.00000  -0.02526  -0.02553   2.80764
   D56        0.70077  -0.00140   0.00000  -0.02788  -0.02762   0.67316
   D57       -1.35058   0.00217   0.00000   0.01829   0.01821  -1.33236
   D58        0.65155  -0.00026   0.00000  -0.02118  -0.02128   0.63027
   D59       -1.48085  -0.00132   0.00000  -0.02380  -0.02337  -1.50421
   D60        2.75099   0.00225   0.00000   0.02237   0.02246   2.77345
   D61       -1.14694   0.00112   0.00000   0.02603   0.02616  -1.12079
   D62        0.93944   0.00090   0.00000   0.02278   0.02290   0.96234
   D63        3.03978   0.00148   0.00000   0.03139   0.03155   3.07133
   D64        0.98360   0.00024   0.00000   0.01055   0.01065   0.99424
   D65        3.06998   0.00002   0.00000   0.00730   0.00739   3.07737
   D66       -1.11287   0.00059   0.00000   0.01591   0.01604  -1.09683
   D67        3.05234  -0.00112   0.00000  -0.01220  -0.01245   3.03989
   D68       -1.14446  -0.00134   0.00000  -0.01545  -0.01571  -1.16017
   D69        0.95588  -0.00077   0.00000  -0.00684  -0.00706   0.94882
         Item               Value     Threshold  Converged?
 Maximum Force            0.012665     0.000450     NO 
 RMS     Force            0.004333     0.000300     NO 
 Maximum Displacement     0.326710     0.001800     NO 
 RMS     Displacement     0.061866     0.001200     NO 
 Predicted change in Energy=-5.040024D-03
 GradGradGradGradGradGradGradGradGradGradGradGradGradGradGradGradGradGrad

                          Input orientation:                          
 ---------------------------------------------------------------------
 Center     Atomic      Atomic             Coordinates (Angstroms)
 Number     Number       Type             X           Y           Z
 ---------------------------------------------------------------------
      1          7           0       -1.759187   -1.125717    1.393036
      2         16           0       -1.264099   -0.444289    0.103726
      3          6           0        0.551593   -0.319867    0.073213
      4          6           0        1.276247   -0.024473    1.226354
      5          6           0        2.663607    0.071122    1.154359
      6          6           0        3.339642   -0.132540   -0.057901
      7          6           0        4.841003   -0.060192   -0.118035
      8          6           0        2.585705   -0.434519   -1.200136
      9          6           0        1.196102   -0.530809   -1.141167
     10          6           0       -1.642771    1.345973    0.027507
     11          6           0       -3.112017    1.617405    0.333313
     12          6           0       -4.048986    1.437383   -0.861009
     13          7           0       -1.754964   -1.022950   -1.226738
     14          1           0       -1.346129   -0.741725    2.243987
     15          1           0        0.766456    0.125717    2.183082
     16          1           0        3.235755    0.302677    2.057259
     17          1           0        5.191592    0.158939   -1.136034
     18          1           0        5.285855   -1.021639    0.187217
     19          1           0        5.232422    0.712325    0.559262
     20          1           0        3.096742   -0.598660   -2.152917
     21          1           0        0.590581   -0.774017   -2.019500
     22          1           0       -0.969921    1.794104    0.774322
     23          1           0       -1.335445    1.667683   -0.978542
     24          1           0       -3.190105    2.647844    0.715839
     25          1           0       -3.415860    0.948343    1.156703
     26          1           0       -3.820526    2.171883   -1.649221
     27          1           0       -3.930405    0.433991   -1.289973
     28          1           0       -5.098758    1.576763   -0.561875
     29          1           0       -2.046150   -1.986890   -1.078625
 ---------------------------------------------------------------------
                    Distance matrix (angstroms):
                    1          2          3          4          5
     1  N    0.000000
     2  S    1.540057   0.000000
     3  C    2.780473   1.820206   0.000000
     4  C    3.233324   2.808897   1.393599   0.000000
     5  C    4.588081   4.098335   2.404652   1.392511   0.000000
     6  C    5.393484   4.617114   2.797409   2.432815   1.402881
     7  C    6.854283   6.121192   4.301517   3.810006   2.525329
     8  C    5.106896   4.064621   2.402535   2.787593   2.409437
     9  C    3.938253   2.758593   1.390902   2.422387   2.790220
    10  C    2.826212   1.831458   2.755421   3.440352   4.630327
    11  C    3.236956   2.778146   4.152435   4.769712   6.035142
    12  C    4.110156   3.496712   5.012586   5.903576   7.140537
    13  N    2.621793   1.531643   2.739416   4.025278   5.137157
    14  H    1.020874   2.162386   2.914030   2.902909   4.233909
    15  H    2.927307   2.961719   2.167085   1.094428   2.158804
    16  H    5.237456   4.962150   3.395398   2.153392   1.093709
    17  H    7.507321   6.601276   4.818830   4.576510   3.412378
    18  H    7.148248   6.575880   4.787350   4.260411   3.000945
    19  H    7.277099   6.614383   4.817866   4.079118   2.713687
    20  H    6.035862   4.912556   3.392811   3.881156   3.402100
    21  H    4.158185   2.838424   2.141780   3.401106   3.883951
    22  H    3.087248   2.355131   2.697301   2.925205   4.039260
    23  H    3.688770   2.374199   2.935550   3.813908   4.805277
    24  H    4.092174   3.693978   4.818774   5.229743   6.410752
    25  H    2.664986   2.770968   4.303835   4.792400   6.142430
    26  H    4.937470   4.056168   5.318930   6.250600   7.370022
    27  H    3.787534   3.134160   4.744985   5.800976   7.041834
    28  H    4.719938   4.385463   5.993914   6.811932   8.091151
    29  H    2.633073   2.095035   3.294535   4.494700   5.603877
                    6          7          8          9         10
     6  C    0.000000
     7  C    1.504306   0.000000
     8  C    1.401539   2.529315   0.000000
     9  C    2.434512   3.814916   1.394183   0.000000
    10  C    5.197858   6.636099   4.749450   3.598237   0.000000
    11  C    6.696212   8.140552   6.247071   5.034760   1.525083
    12  C    7.596148   9.045808   6.902039   5.609208   2.566649
    13  N    5.302265   6.757434   4.380453   2.993044   2.682818
    14  H    5.256067   6.657645   5.235998   4.238714   3.059291
    15  H    3.421986   4.683123   3.881971   3.415590   3.455416
    16  H    2.161969   2.727710   3.402447   3.883917   5.385942
    17  H    2.162649   1.098750   2.673378   4.054592   7.033591
    18  H    2.153677   1.102476   3.091968   4.328002   7.323725
    19  H    2.162708   1.099419   3.378734   4.552881   6.924778
    20  H    2.159944   2.733704   1.093569   2.154223   5.567660
    21  H    3.437542   4.710754   2.183377   1.094200   3.697629
    22  H    4.793421   6.164541   4.637642   3.710253   1.100582
    23  H    5.093605   6.471053   4.454635   3.356865   1.100037
    24  H    7.139104   8.516309   6.821430   5.726353   2.136098
    25  H    6.948409   8.415337   6.594376   5.360811   2.139401
    26  H    7.688346   9.074622   6.930715   5.720945   2.869871
    27  H    7.395440   8.863141   6.574350   5.218626   2.792979
    28  H    8.624517  10.083426   7.968915   6.663535   3.513472
    29  H    5.786816   7.215800   4.886584   3.554755   3.534716
                   11         12         13         14         15
    11  C    0.000000
    12  C    1.528634   0.000000
    13  N    3.353629   3.383716   0.000000
    14  H    3.512055   4.657784   3.506019   0.000000
    15  H    4.548553   5.845976   4.393617   2.284552   0.000000
    16  H    6.707809   7.929142   6.119575   4.703116   2.478827
    17  H    8.557805   9.332649   7.046966   7.414683   5.531678
    18  H    8.803985   9.710037   7.181393   6.949234   5.071969
    19  H    8.396421   9.417400   7.417853   6.944774   4.788085
    20  H    7.045636   7.541613   4.957508   6.252387   4.975525
    21  H    4.996385   5.268583   2.488377   4.682863   4.301412
    22  H    2.194148   3.504596   3.543491   2.954975   2.789826
    23  H    2.209004   2.725832   2.734430   4.023687   4.097744
    24  H    1.101920   2.165489   4.394083   4.150261   4.916127
    25  H    1.103601   2.170523   3.510750   2.884841   4.384283
    26  H    2.177124   1.101346   3.827793   5.456081   6.317732
    27  H    2.169167   1.097664   2.619011   4.533174   5.849585
    28  H    2.179484   1.100423   4.287367   5.227856   6.636344
    29  H    4.015045   3.972952   1.017795   3.616658   4.797144
                   16         17         18         19         20
    16  H    0.000000
    17  H    3.747410   0.000000
    18  H    3.074700   1.775850   0.000000
    19  H    2.529523   1.783797   1.774233   0.000000
    20  H    4.307820   2.448755   3.232237   3.692658   0.000000
    21  H    4.977567   4.777052   5.193892   5.514156   2.515829
    22  H    4.643058   6.654883   6.885335   6.299648   5.552639
    23  H    5.654661   6.700994   7.241067   6.812813   5.114661
    24  H    6.970717   8.937390   9.251295   8.643479   7.635051
    25  H    6.743283   8.942485   8.974441   8.672107   7.467316
    26  H    8.186758   9.248436   9.823302   9.432050   7.468482
    27  H    7.910439   9.127441   9.446714   9.351713   7.154848
    28  H    8.828775  10.403422  10.730938  10.427727   8.627289
    29  H    6.555486   7.549357   7.502823   7.933854   5.434209
                   21         22         23         24         25
    21  H    0.000000
    22  H    4.103152   0.000000
    23  H    3.279493   1.795026   0.000000
    24  H    5.786606   2.379393   2.696555   0.000000
    25  H    5.395031   2.616132   3.066733   1.770206   0.000000
    26  H    5.317264   3.760614   2.622910   2.493487   3.087719
    27  H    4.736118   3.856901   2.890122   3.077738   2.552555
    28  H    6.326090   4.345107   3.787401   2.534309   2.486074
    29  H    3.051009   4.345986   3.724383   5.099950   3.935529
                   26         27         28         29
    26  H    0.000000
    27  H    1.778033   0.000000
    28  H    1.780553   1.789163   0.000000
    29  H    4.557344   3.075020   4.720706   0.000000
 Stoichiometry    C10H16N2S
 Framework group  C1[X(C10H16N2S)]
 Deg. of freedom    81
 Full point group                 C1      NOp   1
 Largest Abelian subgroup         C1      NOp   1
 Largest concise Abelian subgroup C1      NOp   1
                         Standard orientation:                         
 ---------------------------------------------------------------------
 Center     Atomic      Atomic             Coordinates (Angstroms)
 Number     Number       Type             X           Y           Z
 ---------------------------------------------------------------------
      1          7           0       -1.556764    1.131069    1.638435
      2         16           0       -1.181390    0.010198    0.651257
      3          6           0        0.600889    0.019784    0.281744
      4          6           0        1.302257    1.214510    0.130648
      5          6           0        2.663072    1.174268   -0.162012
      6          6           0        3.336491   -0.048766   -0.299017
      7          6           0        4.813591   -0.081197   -0.581966
      8          6           0        2.607188   -1.234374   -0.135422
      9          6           0        1.243989   -1.207047    0.155588
     10          6           0       -1.795254    0.294726   -1.050641
     11          6           0       -3.281299    0.637537   -1.056058
     12          6           0       -4.209149   -0.575850   -0.996838
     13          7           0       -1.616991   -1.413640    1.010239
     14          1           0       -1.181783    2.045330    1.382115
     15          1           0        0.795713    2.177795    0.245831
     16          1           0        3.216909    2.109820   -0.281210
     17          1           0        5.112260   -1.031029   -1.046583
     18          1           0        5.387703    0.026748    0.353018
     19          1           0        5.112300    0.741430   -1.247383
     20          1           0        3.116891   -2.196607   -0.236438
     21          1           0        0.659099   -2.121160    0.295503
     22          1           0       -1.173334    1.122027   -1.424897
     23          1           0       -1.552813   -0.622993   -1.606604
     24          1           0       -3.487750    1.219974   -1.968403
     25          1           0       -3.477822    1.306142   -0.200323
     26          1           0       -4.095315   -1.197361   -1.898907
     27          1           0       -3.967053   -1.197973   -0.125506
     28          1           0       -5.262134   -0.262981   -0.931520
[...]
    20  H    0.000005  -0.000287   0.011750  -0.001318   0.012326  -0.061219
    21  H    0.001935   0.001417  -0.069827   0.001418  -0.001757   0.011816
    22  H    0.001625  -0.024503   0.002424  -0.003224  -0.000027   0.000120
    23  H    0.004588  -0.025651   0.000193   0.002107  -0.000007   0.000003
    24  H    0.000724   0.007276  -0.000049   0.000050   0.000003   0.000001
    25  H    0.012323  -0.002530  -0.000326   0.000860   0.000038   0.000001
    26  H    0.000358  -0.001526   0.000090  -0.000025   0.000001  -0.000000
    27  H    0.005455   0.008784   0.001388  -0.000041   0.000006  -0.000000
    28  H    0.000146  -0.000168   0.000020  -0.000008   0.000000   0.000000
    29  H   -0.007478  -0.022906   0.009560   0.001953   0.000104  -0.000176
               7          8          9         10         11         12
     1  N    0.000007  -0.001906   0.027906  -0.077633  -0.014091  -0.000348
     2  S    0.000063   0.003716  -0.013387   0.299450  -0.018875  -0.002806
     3  C   -0.003824   0.047467   0.317194  -0.017487  -0.000987  -0.001215
     4  C    0.014519  -0.065681  -0.202070  -0.009740   0.001690  -0.000118
     5  C   -0.083011  -0.013535  -0.064070   0.000287  -0.000088  -0.000013
     6  C    0.335000   0.446975   0.028739  -0.000986  -0.000002   0.000003
     7  C    4.987757  -0.072734   0.017122  -0.000001  -0.000000   0.000000
     8  C   -0.072734   5.128098   0.344857   0.001946   0.000005  -0.000016
     9  C    0.017122   0.344857   5.331583  -0.011936  -0.000506   0.000471
    10  C   -0.000001   0.001946  -0.011936   5.027698   0.341082  -0.038653
    11  C   -0.000000   0.000005  -0.000506   0.341082   4.879435   0.349923
    12  C    0.000000  -0.000016   0.000471  -0.038653   0.349923   4.938382
    13  N    0.000008  -0.001770  -0.000036  -0.067517  -0.007177  -0.017527
    14  H   -0.000001   0.000138   0.002048   0.009804   0.000067  -0.000061
    15  H   -0.000123  -0.002470   0.003204  -0.002357  -0.000106   0.000015
    16  H   -0.006349   0.011331  -0.001307   0.000053   0.000001   0.000000
    17  H    0.419932  -0.003146   0.002200  -0.000000   0.000000  -0.000000
    18  H    0.389668  -0.005123  -0.000444   0.000000  -0.000000   0.000000
    19  H    0.415449   0.003069  -0.000703  -0.000000   0.000000  -0.000000
    20  H   -0.008892   0.425707  -0.047094   0.000063  -0.000000   0.000000
    21  H   -0.000246  -0.057948   0.448203  -0.003493  -0.000130   0.000162
    22  H   -0.000003  -0.000213   0.003101   0.392246  -0.031712   0.007853
    23  H    0.000000   0.000080  -0.002635   0.391275  -0.016868  -0.003549
    24  H    0.000000   0.000001  -0.000105  -0.035217   0.391072  -0.030151
    25  H   -0.000000   0.000006  -0.000456  -0.039929   0.415162  -0.026872
    26  H   -0.000000   0.000005  -0.000013  -0.002847  -0.033207   0.393687
    27  H   -0.000000   0.000006  -0.000154  -0.008952  -0.036829   0.405440
    28  H   -0.000000   0.000000   0.000006   0.011142  -0.037676   0.393019
    29  H    0.000000   0.000147  -0.009766   0.009956   0.000107  -0.000130
              13         14         15         16         17         18
     1  N   -0.081018   0.309726   0.025521  -0.000019   0.000000  -0.000000
     2  S    0.515296  -0.020776   0.000688  -0.000284  -0.000000  -0.000002
     3  C   -0.084283   0.011302  -0.074626   0.013092  -0.000129   0.000214
     4  C    0.027562  -0.010852   0.450339  -0.051246  -0.000352  -0.000181
     5  C   -0.001775  -0.000068  -0.057297   0.432623   0.005867  -0.002324
     6  C    0.000567  -0.000187   0.012813  -0.065112  -0.052765  -0.023595
     7  C    0.000008  -0.000001  -0.000123  -0.006349   0.419932   0.389668
     8  C   -0.001770   0.000138  -0.002470   0.011331  -0.003146  -0.005123
     9  C   -0.000036   0.002048   0.003204  -0.001307   0.002200  -0.000444
    10  C   -0.067517   0.009804  -0.002357   0.000053  -0.000000   0.000000
    11  C   -0.007177   0.000067  -0.000106   0.000001   0.000000  -0.000000
    12  C   -0.017527  -0.000061   0.000015   0.000000  -0.000000   0.000000
    13  N    6.930903  -0.006658   0.001763   0.000005   0.000000  -0.000000
    14  H   -0.006658   0.497925  -0.003911   0.000023   0.000000   0.000000
    15  H    0.001763  -0.003911   0.497405  -0.007647   0.000008   0.000002
    16  H    0.000005   0.000023  -0.007647   0.554814   0.000055   0.000506
    17  H    0.000000   0.000000   0.000008   0.000055   0.535420  -0.022981
    18  H   -0.000000   0.000000   0.000002   0.000506  -0.022981   0.550224
    19  H    0.000000  -0.000000  -0.000014   0.001510  -0.021505  -0.027787
    20  H   -0.000013   0.000001   0.000086  -0.000233   0.002864   0.000271
    21  H    0.025222  -0.000067  -0.000400   0.000087  -0.000019   0.000013
    22  H    0.004266  -0.000392   0.000746  -0.000004  -0.000000   0.000000
    23  H    0.008851  -0.000474   0.000076  -0.000001   0.000000  -0.000000
    24  H   -0.000563   0.000015   0.000020   0.000000  -0.000000   0.000000
    25  H    0.002056  -0.001025   0.000262  -0.000001  -0.000000  -0.000000
    26  H    0.002700   0.000008  -0.000003  -0.000000   0.000000   0.000000
    27  H    0.009424  -0.000178  -0.000002  -0.000000  -0.000000   0.000000
    28  H    0.001050  -0.000002  -0.000001  -0.000000   0.000000  -0.000000
    29  H    0.309952   0.002921  -0.000081   0.000001  -0.000000   0.000000
              19         20         21         22         23         24
     1  N   -0.000000   0.000005   0.001935   0.001625   0.004588   0.000724
     2  S    0.000000  -0.000287   0.001417  -0.024503  -0.025651   0.007276
     3  C    0.000055   0.011750  -0.069827   0.002424   0.000193  -0.000049
     4  C    0.001241  -0.001318   0.001418  -0.003224   0.002107   0.000050
     5  C   -0.002673   0.012326  -0.001757  -0.000027  -0.000007   0.000003
     6  C   -0.046295  -0.061219   0.011816   0.000120   0.000003   0.000001
     7  C    0.415449  -0.008892  -0.000246  -0.000003   0.000000   0.000000
     8  C    0.003069   0.425707  -0.057948  -0.000213   0.000080   0.000001
     9  C   -0.000703  -0.047094   0.448203   0.003101  -0.002635  -0.000105
    10  C   -0.000000   0.000063  -0.003493   0.392246   0.391275  -0.035217
    11  C    0.000000  -0.000000  -0.000130  -0.031712  -0.016868   0.391072
    12  C   -0.000000   0.000000   0.000162   0.007853  -0.003549  -0.030151
    13  N    0.000000  -0.000013   0.025222   0.004266   0.008851  -0.000563
    14  H   -0.000000   0.000001  -0.000067  -0.000392  -0.000474   0.000015
    15  H   -0.000014   0.000086  -0.000400   0.000746   0.000076   0.000020
    16  H    0.001510  -0.000233   0.000087  -0.000004  -0.000001   0.000000
    17  H   -0.021505   0.002864  -0.000019  -0.000000   0.000000  -0.000000
    18  H   -0.027787   0.000271   0.000013   0.000000  -0.000000   0.000000
    19  H    0.540759   0.000043   0.000008  -0.000000  -0.000000  -0.000000
    20  H    0.000043   0.555636  -0.007257   0.000002  -0.000008   0.000000
    21  H    0.000008  -0.007257   0.494806   0.000234   0.000642  -0.000000
    22  H   -0.000000   0.000002   0.000234   0.530377  -0.020260  -0.007243
    23  H   -0.000000  -0.000008   0.000642  -0.020260   0.516017  -0.004917
    24  H   -0.000000   0.000000  -0.000000  -0.007243  -0.004917   0.606093
    25  H    0.000000  -0.000000  -0.000022  -0.001315   0.005507  -0.028937
    26  H    0.000000  -0.000000  -0.000007   0.000319   0.002702  -0.005396
    27  H   -0.000000  -0.000000  -0.000030  -0.000178   0.000092   0.006754
    28  H   -0.000000  -0.000000   0.000000  -0.000300   0.000054  -0.006056
    29  H    0.000000   0.000021  -0.004249  -0.000535  -0.000638   0.000053
              25         26         27         28         29
     1  N    0.012323   0.000358   0.005455   0.000146  -0.007478
     2  S   -0.002530  -0.001526   0.008784  -0.000168  -0.022906
     3  C   -0.000326   0.000090   0.001388   0.000020   0.009560
     4  C    0.000860  -0.000025  -0.000041  -0.000008   0.001953
     5  C    0.000038   0.000001   0.000006   0.000000   0.000104
     6  C    0.000001  -0.000000  -0.000000   0.000000  -0.000176
     7  C   -0.000000  -0.000000  -0.000000  -0.000000   0.000000
     8  C    0.000006   0.000005   0.000006   0.000000   0.000147
     9  C   -0.000456  -0.000013  -0.000154   0.000006  -0.009766
    10  C   -0.039929  -0.002847  -0.008952   0.011142   0.009956
    11  C    0.415162  -0.033207  -0.036829  -0.037676   0.000107
    12  C   -0.026872   0.393687   0.405440   0.393019  -0.000130
    13  N    0.002056   0.002700   0.009424   0.001050   0.309952
    14  H   -0.001025   0.000008  -0.000178  -0.000002   0.002921
    15  H    0.000262  -0.000003  -0.000002  -0.000001  -0.000081
    16  H   -0.000001  -0.000000  -0.000000  -0.000000   0.000001
    17  H   -0.000000   0.000000  -0.000000   0.000000  -0.000000
    18  H   -0.000000   0.000000   0.000000  -0.000000   0.000000
    19  H    0.000000   0.000000  -0.000000  -0.000000   0.000000
    20  H   -0.000000  -0.000000  -0.000000  -0.000000   0.000021
    21  H   -0.000022  -0.000007  -0.000030   0.000000  -0.004249
    22  H   -0.001315   0.000319  -0.000178  -0.000300  -0.000535
    23  H    0.005507   0.002702   0.000092   0.000054  -0.000638
    24  H   -0.028937  -0.005396   0.006754  -0.006056   0.000053
    25  H    0.527441   0.006792  -0.002605  -0.004846  -0.000035
    26  H    0.006792   0.577277  -0.018373  -0.027218   0.000012
    27  H   -0.002605  -0.018373   0.505152  -0.020186   0.000340
    28  H   -0.004846  -0.027218  -0.020186   0.572711  -0.000043
    29  H   -0.000035   0.000012   0.000340  -0.000043   0.502111
 Mulliken charges:
               1
     1  N   -0.571078
     2  S    0.491284
     3  C    0.007471
     4  C   -0.164765
     5  C   -0.184092
     6  C    0.188018
     7  C   -0.404341
     8  C   -0.189008
     9  C   -0.171952
    10  C   -0.168253
    11  C   -0.180289
    12  C   -0.367496
    13  N   -0.571286
    14  H    0.210676
    15  H    0.156090
    16  H    0.118104
    17  H    0.134552
    18  H    0.141539
    19  H    0.136842
    20  H    0.117548
    21  H    0.159489
    22  H    0.146596
    23  H    0.142821
    24  H    0.106573
    25  H    0.138450
    26  H    0.104664
    27  H    0.144689
    28  H    0.118356
    29  H    0.208797
 Sum of Mulliken charges =  -0.00000
 Mulliken charges with hydrogens summed into heavy atoms:
               1
     1  N   -0.360403
     2  S    0.491284
     3  C    0.007471
     4  C   -0.008675
     5  C   -0.065987
     6  C    0.188018
     7  C    0.008593
     8  C   -0.071459
     9  C   -0.012464
    10  C    0.121164
    11  C    0.064734
    12  C    0.000213
    13  N   -0.362489
 Electronic spatial extent (au):  <R**2>=           3508.1240
 Charge=             -0.0000 electrons
 Dipole moment (field-independent basis, Debye):
    X=              3.5123    Y=              0.2906    Z=             -1.0528  Tot=              3.6782
 Quadrupole moment (field-independent basis, Debye-Ang):
   XX=            -82.5898   YY=            -88.9403   ZZ=            -83.3508
   XY=             -0.8956   XZ=              3.3722   YZ=             -0.8600
 Traceless Quadrupole moment (field-independent basis, Debye-Ang):
   XX=              2.3705   YY=             -3.9800   ZZ=              1.6095
   XY=             -0.8956   XZ=              3.3722   YZ=             -0.8600
 Octapole moment (field-independent basis, Debye-Ang**2):
  XXX=             46.2689  YYY=              0.8235  ZZZ=             16.7574  XYY=             20.1392
  XXY=              5.6175  XXZ=            -17.3791  XZZ=            -12.5792  YZZ=             -2.4282
  YYZ=             -2.6057  XYZ=              4.3168
 Hexadecapole moment (field-independent basis, Debye-Ang**3):
 XXXX=          -3726.1538 YYYY=           -557.7380 ZZZZ=           -353.3213 XXXY=            -19.4922
 XXXZ=             10.0146 YYYX=             -3.9363 YYYZ=             -0.6406 ZZZX=            -10.6695
 ZZZY=             -4.7955 XXYY=           -741.0971 XXZZ=           -724.2538 YYZZ=           -151.4793
 XXYZ=             -0.3390 YYXZ=              1.6450 ZZXY=              4.8355
 N-N= 9.226287969419D+02 E-N=-3.951437697449D+03  KE= 8.942864180020D+02
 Breneman (CHELPG) radii used.
 Read replacement radii for each type of atom:
 Atom Element Radius
    1     7    1.70
    2    16    2.00
    3     6    1.50
    4     6    1.50
    5     6    1.50
    6     6    1.50
    7     6    1.50
    8     6    1.50
    9     6    1.50
   10     6    1.50
   11     6    1.50
   12     6    1.50
   13     7    1.70
   14     1    1.45
   15     1    1.45
   16     1    1.45
   17     1    1.45
   18     1    1.45
   19     1    1.45
   20     1    1.45
   21     1    1.45
   22     1    1.45
   23     1    1.45
   24     1    1.45
   25     1    1.45
   26     1    1.45
   27     1    1.45
   28     1    1.45
   29     1    1.45
 Generate Potential Derived Charges using the Breneman model, NDens= 1.
 Grid spacing= 0.300 Box extension= 2.800
 NStep X,Y,Z=   56     35     35   Total possible points=       68600
 Number of Points to Fit=   17871

 **********************************************************************

            Electrostatic Properties Using The SCF Density.

 **********************************************************************

       Atomic Center    1 is at  -1.584715  1.236616  1.270795
       Atomic Center    2 is at  -1.180297 -0.069892  0.531890
       Atomic Center    3 is at   0.609550 -0.034622  0.217802
       Atomic Center    4 is at   1.290982  1.180644  0.251035
       Atomic Center    5 is at   2.662683  1.196009  0.021752
       Atomic Center    6 is at   3.367492  0.011251 -0.236560
       Atomic Center    7 is at   4.852093  0.038131 -0.451641
       Atomic Center    8 is at   2.657072 -1.195324 -0.260305
       Atomic Center    9 is at   1.283104 -1.226092 -0.033645
       Atomic Center   10 is at  -1.859180  0.162129 -1.112212
       Atomic Center   11 is at  -3.296430  0.653282 -1.094524
       Atomic Center   12 is at  -4.307057 -0.329375 -0.528073
       Atomic Center   13 is at  -1.591239 -1.523584  0.905418
       Atomic Center   14 is at  -1.249804  1.193140  2.236085
       Atomic Center   15 is at   0.730893  2.094541  0.465597
       Atomic Center   16 is at   3.202401  2.146990  0.045445
       Atomic Center   17 is at   5.202647 -0.866769 -0.967439
       Atomic Center   18 is at   5.385296  0.097171  0.511828
       Atomic Center   19 is at   5.156897  0.913125 -1.044469
       Atomic Center   20 is at   3.191393 -2.128328 -0.459849
       Atomic Center   21 is at   0.716569 -2.160816 -0.039426
       Atomic Center   22 is at  -1.192457  0.891066 -1.594105
       Atomic Center   23 is at  -1.736350 -0.818856 -1.593424
       Atomic Center   24 is at  -3.548990  0.904187 -2.139267
       Atomic Center   25 is at  -3.320252  1.595965 -0.525736
       Atomic Center   26 is at  -4.293449 -1.284149 -1.076600
       Atomic Center   27 is at  -4.083372 -0.556441  0.522954
       Atomic Center   28 is at  -5.324022  0.086130 -0.589395
       Atomic Center   29 is at  -1.282822 -1.716114  1.862294
   17871 points will be used for fitting atomic charges
 Fitting point charges to electrostatic potential
 Charges from ESP fit, RMS=   0.00293 RRMS=   0.21584:
 ESP charges:
               1
     1  N   -0.723404
     2  S    0.629148
     3  C   -0.058113
     4  C   -0.014874
     5  C   -0.259834
     6  C    0.261113
     7  C   -0.299502
     8  C   -0.241352
     9  C   -0.051904
    10  C    0.021117
    11  C    0.220711
    12  C   -0.185431
    13  N   -0.726730
    14  H    0.300756
    15  H    0.089799
    16  H    0.134996
    17  H    0.086328
    18  H    0.087834
    19  H    0.086695
    20  H    0.131056
    21  H    0.098786
    22  H    0.006347
    23  H    0.042920
    24  H   -0.043261
    25  H   -0.018136
    26  H    0.042015
    27  H    0.043664
    28  H    0.033738
    29  H    0.305516
 Sum of ESP charges =   0.00000
 ESP charges with hydrogens summed into heavy atoms:
               1
     1  N   -0.422648
     2  S    0.629148
     3  C   -0.058113
     4  C    0.074925
     5  C   -0.124837
     6  C    0.261113
     7  C   -0.038645
     8  C   -0.110296
     9  C    0.046882
    10  C    0.070384
    11  C    0.159314
    12  C   -0.066014
    13  N   -0.421213
 Charge=   0.00000 Dipole=     3.5808     0.2631    -1.0391 Tot=     3.7378
 -----------------------------------------------------------------

              Electrostatic Properties (Atomic Units)

 -----------------------------------------------------------------
    Center     Electric         -------- Electric Field --------
               Potential          X             Y             Z
 -----------------------------------------------------------------
    1 Atom    -18.432382
    2 Atom    -59.082873
    3 Atom    -14.739840
    4 Atom    -14.749557
    5 Atom    -14.752531
    6 Atom    -14.737070
    7 Atom    -14.754454
    8 Atom    -14.752764
    9 Atom    -14.749979
   10 Atom    -14.733261
   11 Atom    -14.761478
   12 Atom    -14.787732
   13 Atom    -18.434079
   14 Atom     -1.054028
   15 Atom     -1.092816
   16 Atom     -1.092637
   17 Atom     -1.100954
   18 Atom     -1.097203
   19 Atom     -1.099605
   20 Atom     -1.093165
   21 Atom     -1.093547
   22 Atom     -1.088272
   23 Atom     -1.089410
   24 Atom     -1.119865
   25 Atom     -1.129174
   26 Atom     -1.134769
   27 Atom     -1.140077
   28 Atom     -1.133059
   29 Atom     -1.055458
 -----------------------------------------------------------------
 Unable to Open any file for archive entry.
 1\1\GINC-NOTCH270\SP\RPBE1PBE\def2TZVP\C10H16N2S1\U1414944\10-Feb-2025
 \0\\#N Guess=Read Geom=Check Integral(Ultrafine) Density Pop=(ChelpG,R
 eadRadii) NMR pbe1pbe EmpiricalDispersion=GD3BJ def2TZVP\\SDI0432_2\\0
 ,1\N,0,-1.7386552685,-0.5723737179,1.4580206493\S,0,-1.2507479469,-0.2
 443857864,0.0189697904\C,0,0.5663214516,-0.2036384374,0.0120755057\C,0
 ,1.2562921752,-0.0409303228,1.2119883747\C,0,2.6469309406,-0.023499654
 8,1.1981841126\C,0,3.3616045922,-0.1712886057,0.0004642594\C,0,4.86190
 65662,-0.1816048632,0.0035362639\C,0,2.641705118,-0.3366110146,-1.1892
 823961\C,0,1.2489493299,-0.3549509296,-1.1910976722\C,0,-1.6703640601,
 1.4892967891,-0.1709147901\C,0,-3.0850417929,1.8081523334,0.2810248066
 \C,0,-4.1865335928,1.1771994343,-0.5535185881\N,0,-1.7387449457,-0.895
 6337587,-1.307435809\H,0,-1.5535971412,-1.5580390707,1.6581635508\H,0,
 0.6864807976,0.0608731756,2.1392935979\H,0,3.1936045531,0.10506701,2.1
 367150725\H,0,5.2700797954,0.0388406658,-0.9927462233\H,0,5.245048087,
 -1.1702583972,0.3065709582\H,0,5.2677911665,0.554306073,0.71322545\H,0
 ,3.1834506036,-0.4535988797,-2.1319590427\H,0,0.6733589931,-0.49267924
 21,-2.1100274185\H,0,-0.9259988235,2.02890465,0.4314410614\H,0,-1.4938
 319535,1.6922170841,-1.2370493023\H,0,-3.1730924327,2.9082408059,0.264
 2346006\H,0,-3.1775590644,1.4971099072,1.3333708432\H,0,-4.107373879,1
 .4674115834,-1.6128441202\H,0,-4.1275504185,0.0812510239,-0.5126552568
 \H,0,-5.1752208327,1.4901566435,-0.1858545683\H,0,-1.5812348191,-1.905
 6718657,-1.2543874933\\Version=ES64L-G16RevC.01\State=1-A\HF=-897.7902
 999\RMSD=2.388e-09\Dipole=1.4302227,0.2172297,0.0372111\Quadrupole=0.9
 826816,2.0308151,-3.0134967,-2.5441193,-0.0102065,-0.4761455\PG=C01 [X
 (C10H16N2S1)]\\@
 The archive entry for this job was punched.


 DEFINE YOUR TERMS, YOU WILL PERMIT ME AGAIN TO SAY, 
 OR WE SHALL NEVER UNDERSTAND ONE ANOTHER.

                                    -- VOLTAIRE
 Job cpu time:       0 days  0 hours 27 minutes 34.4 seconds.
 Elapsed time:       0 days  0 hours  1 minutes 54.1 seconds.
 File lengths (MBytes):  RWF=    160 Int=      0 D2E=      0 Chk=     25 Scr=      2
 Normal termination of Gaussian 16 at Mon Feb 10 20:01:46 2025.
