 Entering Gaussian System, Link 0=g16
 Input=SDI0054_1.com
 Output=SDI0054_1.log
 Initial command:
 /uufs/chpc.utah.edu/sys/installdir/gaussian16/C01/AVX/g16/l1.exe "/scratch/general/vast/u1414944/3119857-notchpeak.peaks/Gau-1593612.inp" -scrdir="/scratch/general/vast/u1414944/3119857-notchpeak.peaks/"
 Entering Link 1 = /uufs/chpc.utah.edu/sys/installdir/gaussian16/C01/AVX/g16/l1.exe PID=   1593613.
  
 Copyright (c) 1988-2019, Gaussian, Inc.  All Rights Reserved.
  
 This is part of the Gaussian(R) 16 program.  It is based on
 the Gaussian(R) 09 system (copyright 2009, Gaussian, Inc.),
 the Gaussian(R) 03 system (copyright 2003, Gaussian, Inc.),
 the Gaussian(R) 98 system (copyright 1998, Gaussian, Inc.),
 the Gaussian(R) 94 system (copyright 1995, Gaussian, Inc.),
 the Gaussian 92(TM) system (copyright 1992, Gaussian, Inc.),
 the Gaussian 90(TM) system (copyright 1990, Gaussian, Inc.),
 the Gaussian 88(TM) system (copyright 1988, Gaussian, Inc.),
 the Gaussian 86(TM) system (copyright 1986, Carnegie Mellon
 University), and the Gaussian 82(TM) system (copyright 1983,
 Carnegie Mellon University). Gaussian is a federally registered
 trademark of Gaussian, Inc.
  
 This software contains proprietary and confidential information,
 including trade secrets, belonging to Gaussian, Inc.
  
 This software is provided under written license and may be
 used, copied, transmitted, or stored only in accord with that
 written license.
  
 The following legend is applicable only to US Government
 contracts under FAR:
  
                    RESTRICTED RIGHTS LEGEND
  
 Use, reproduction and disclosure by the US Government is
 subject to restrictions as set forth in subparagraphs (a)
 and (c) of the Commercial Computer Software - Restricted
 Rights clause in FAR 52.227-19.
  
 Gaussian, Inc.
 340 Quinnipiac St., Bldg. 40, Wallingford CT 06492
  
  
 ---------------------------------------------------------------
 Warning -- This program may not be used in any manner that
 competes with the business of Gaussian, Inc. or will provide
 assistance to any competitor of Gaussian, Inc.  The licensee
 of this program is prohibited from giving any competitor of
 Gaussian, Inc. access to this program.  By using this program,
 the user acknowledges that Gaussian, Inc. is engaged in the
 business of creating and licensing software in the field of
 computational chemistry and represents and warrants to the
 licensee that it is not a competitor of Gaussian, Inc. and that
 it will not use this program in any manner prohibited above.
 ---------------------------------------------------------------
  

 Cite this work as:
 Gaussian 16, Revision C.01,
 M. J. Frisch, G. W. Trucks, H. B. Schlegel, G. E. Scuseria, 
 M. A. Robb, J. R. Cheeseman, G. Scalmani, V. Barone, 
 G. A. Petersson, H. Nakatsuji, X. Li, M. Caricato, A. V. Marenich, 
 J. Bloino, B. G. Janesko, R. Gomperts, B. Mennucci, H. P. Hratchian, 
 J. V. Ortiz, A. F. Izmaylov, J. L. Sonnenberg, D. Williams-Young, 
 F. Ding, F. Lipparini, F. Egidi, J. Goings, B. Peng, A. Petrone, 
 T. Henderson, D. Ranasinghe, V. G. Zakrzewski, J. Gao, N. Rega, 
 G. Zheng, W. Liang, M. Hada, M. Ehara, K. Toyota, R. Fukuda, 
 J. Hasegawa, M. Ishida, T. Nakajima, Y. Honda, O. Kitao, H. Nakai, 
 T. Vreven, K. Throssell, J. A. Montgomery, Jr., J. E. Peralta, 
 F. Ogliaro, M. J. Bearpark, J. J. Heyd, E. N. Brothers, K. N. Kudin, 
 V. N. Staroverov, T. A. Keith, R. Kobayashi, J. Normand, 
 K. Raghavachari, A. P. Rendell, J. C. Burant, S. S. Iyengar, 
 J. Tomasi, M. Cossi, J. M. Millam, M. Klene, C. Adamo, R. Cammi, 
 J. W. Ochterski, R. L. Martin, K. Morokuma, O. Farkas, 
 J. B. Foresman, and D. J. Fox, Gaussian, Inc., Wallingford CT, 2019.
 
 ******************************************
 Gaussian 16:  ES64L-G16RevC.01  3-Jul-2019
                10-Feb-2025 
 ******************************************
 %NProcShared=16
 Will use up to   16 processors via shared memory.
 %Mem=40GB
 %chk=SDI0054_1.chk
 ----------------------------------------------------------------------
 #N OPT FREQ=NORAMAN Integral(Ultrafine) pbe1pbe EmpiricalDispersion=GD
 3BJ def2SVP
 ----------------------------------------------------------------------
 1/18=20,19=15,26=4,38=1/1,3;
 2/9=110,12=2,17=6,18=5,40=1/2;
 3/5=43,7=101,11=2,25=1,30=1,71=1,74=-13,75=-5,124=41/1,2,3;
 4//1;
 5/5=2,38=5/2;
 6/7=2,8=2,9=2,10=2,28=1/1;
 7//1,2,3,16;
 1/18=20,19=15,26=4/3(2);
 2/9=110/2;
 99//99;
 2/9=110/2;
 3/5=43,7=101,11=2,25=1,30=1,71=1,74=-13,75=-5,124=41/1,2,3;
 4/5=5,16=3,69=1/1;
 5/5=2,38=5/2;
 7//1,2,3,16;
 1/18=20,19=15,26=4/3(-5);
 2/9=110/2;
 6/7=2,8=2,9=2,10=2,19=2,28=1/1;
 99/9=1/99;
 ---------
 SDI0054_1
 ---------
 Symbolic Z-matrix:
 Charge =  0 Multiplicity = 1
 N                    -1.37703   0.55875  -1.39734 
 S                    -0.778    -0.47871  -0.44445 
 C                     0.99188  -0.12927  -0.12972 
 C                     1.80874  -1.0561    0.48785 
 C                     3.13545  -0.73675   0.72713 
 C                     3.62826   0.50134   0.34714 
 C                     2.80065   1.42405  -0.27317 
 C                     1.47441   1.10708  -0.5124 
 C                    -1.44793   0.01785   1.20346 
 C                    -2.96664   0.09976   1.09523 
 O                    -3.37931   1.23847   0.40188 
 N                    -1.06216  -1.92409  -0.85404 
 H                    -1.47098   0.22712  -2.34244 
 H                     1.4161   -2.0207    0.77504 
 H                     3.78334  -1.45417   1.20811 
 H                     4.66313   0.74646   0.5338 
 H                     3.18778   2.38713  -0.56979 
 H                     0.79933   1.79628  -0.99706 
 H                    -1.01943   0.98973   1.43331 
 H                    -1.12407  -0.72644   1.92686 
 H                    -3.41872   0.16016   2.09051 
 H                    -3.3255   -0.81811   0.60134 
 H                    -2.88203   1.24967  -0.43903 
 H                    -0.63552  -2.62895  -0.27692 
 

 GradGradGradGradGradGradGradGradGradGradGradGradGradGradGradGradGradGrad
 Berny optimization.
 Initialization pass.
                           ----------------------------
                           !    Initial Parameters    !
                           ! (Angstroms and Degrees)  !
 --------------------------                            --------------------------
 ! Name  Definition              Value          Derivative Info.                !
 --------------------------------------------------------------------------------
 ! R1    R(1,2)                  1.5307         estimate D2E/DX2                !
 ! R2    R(1,13)                 1.006          estimate D2E/DX2                !
 ! R3    R(2,3)                  1.8313         estimate D2E/DX2                !
 ! R4    R(2,9)                  1.8469         estimate D2E/DX2                !
 ! R5    R(2,12)                 1.5289         estimate D2E/DX2                !
 ! R6    R(3,4)                  1.3812         estimate D2E/DX2                !
 ! R7    R(3,8)                  1.3812         estimate D2E/DX2                !
 ! R8    R(4,5)                  1.3854         estimate D2E/DX2                !
 ! R9    R(4,14)                 1.0803         estimate D2E/DX2                !
 ! R10   R(5,6)                  1.3857         estimate D2E/DX2                !
 ! R11   R(5,15)                 1.0797         estimate D2E/DX2                !
 ! R12   R(6,7)                  1.386          estimate D2E/DX2                !
 ! R13   R(6,16)                 1.0798         estimate D2E/DX2                !
 ! R14   R(7,8)                  1.3844         estimate D2E/DX2                !
 ! R15   R(7,17)                 1.0795         estimate D2E/DX2                !
 ! R16   R(8,18)                 1.0796         estimate D2E/DX2                !
 ! R17   R(9,10)                 1.5248         estimate D2E/DX2                !
 ! R18   R(9,19)                 1.0867         estimate D2E/DX2                !
 ! R19   R(9,20)                 1.0873         estimate D2E/DX2                !
 ! R20   R(10,11)                1.3956         estimate D2E/DX2                !
 ! R21   R(10,21)                1.0948         estimate D2E/DX2                !
 ! R22   R(10,22)                1.1024         estimate D2E/DX2                !
 ! R23   R(11,23)                0.977          estimate D2E/DX2                !
 ! R24   R(12,24)                1.0059         estimate D2E/DX2                !
 ! A1    A(2,1,13)             113.45           estimate D2E/DX2                !
 ! A2    A(1,2,3)              110.8468         estimate D2E/DX2                !
 ! A3    A(1,2,9)              103.3714         estimate D2E/DX2                !
 ! A4    A(1,2,12)             113.6543         estimate D2E/DX2                !
 ! A5    A(3,2,9)               98.3907         estimate D2E/DX2                !
 ! A6    A(3,2,12)             113.9574         estimate D2E/DX2                !
 ! A7    A(9,2,12)             115.2001         estimate D2E/DX2                !
 ! A8    A(2,3,4)              121.358          estimate D2E/DX2                !
 ! A9    A(2,3,8)              117.4395         estimate D2E/DX2                !
 ! A10   A(4,3,8)              121.1928         estimate D2E/DX2                !
 ! A11   A(3,4,5)              119.2682         estimate D2E/DX2                !
 ! A12   A(3,4,14)             120.2035         estimate D2E/DX2                !
 ! A13   A(5,4,14)             120.5274         estimate D2E/DX2                !
 ! A14   A(4,5,6)              119.9452         estimate D2E/DX2                !
 ! A15   A(4,5,15)             119.8943         estimate D2E/DX2                !
 ! A16   A(6,5,15)             120.1604         estimate D2E/DX2                !
 ! A17   A(5,6,7)              120.3428         estimate D2E/DX2                !
 ! A18   A(5,6,16)             119.7552         estimate D2E/DX2                !
 ! A19   A(7,6,16)             119.9019         estimate D2E/DX2                !
 ! A20   A(6,7,8)              119.797          estimate D2E/DX2                !
 ! A21   A(6,7,17)             120.1818         estimate D2E/DX2                !
 ! A22   A(8,7,17)             120.0212         estimate D2E/DX2                !
 ! A23   A(3,8,7)              119.454          estimate D2E/DX2                !
 ! A24   A(3,8,18)             118.5113         estimate D2E/DX2                !
 ! A25   A(7,8,18)             122.0338         estimate D2E/DX2                !
 ! A26   A(2,9,10)             108.2044         estimate D2E/DX2                !
 ! A27   A(2,9,19)             106.6268         estimate D2E/DX2                !
 ! A28   A(2,9,20)             107.5513         estimate D2E/DX2                !
 ! A29   A(10,9,19)            111.0823         estimate D2E/DX2                !
 ! A30   A(10,9,20)            112.376          estimate D2E/DX2                !
 ! A31   A(19,9,20)            110.7337         estimate D2E/DX2                !
 ! A32   A(9,10,11)            111.9389         estimate D2E/DX2                !
 ! A33   A(9,10,21)            110.4705         estimate D2E/DX2                !
 ! A34   A(9,10,22)            108.1384         estimate D2E/DX2                !
 ! A35   A(11,10,21)           106.531          estimate D2E/DX2                !
 ! A36   A(11,10,22)           111.1327         estimate D2E/DX2                !
 ! A37   A(21,10,22)           108.5913         estimate D2E/DX2                !
 ! A38   A(10,11,23)           106.6459         estimate D2E/DX2                !
 ! A39   A(2,12,24)            115.4602         estimate D2E/DX2                !
 ! D1    D(13,1,2,3)           101.6416         estimate D2E/DX2                !
 ! D2    D(13,1,2,9)          -153.8209         estimate D2E/DX2                !
 ! D3    D(13,1,2,12)          -28.2362         estimate D2E/DX2                !
 ! D4    D(1,2,3,4)           -167.5933         estimate D2E/DX2                !
 ! D5    D(1,2,3,8)             13.5242         estimate D2E/DX2                !
 ! D6    D(9,2,3,4)             84.5698         estimate D2E/DX2                !
 ! D7    D(9,2,3,8)            -94.3127         estimate D2E/DX2                !
 ! D8    D(12,2,3,4)           -37.8761         estimate D2E/DX2                !
 ! D9    D(12,2,3,8)           143.2414         estimate D2E/DX2                !
 ! D10   D(1,2,9,10)            54.0462         estimate D2E/DX2                !
 ! D11   D(1,2,9,19)           -65.5176         estimate D2E/DX2                !
 ! D12   D(1,2,9,20)           175.6688         estimate D2E/DX2                !
 ! D13   D(3,2,9,10)           167.9251         estimate D2E/DX2                !
 ! D14   D(3,2,9,19)            48.3614         estimate D2E/DX2                !
 ! D15   D(3,2,9,20)           -70.4523         estimate D2E/DX2                !
 ! D16   D(12,2,9,10)          -70.539          estimate D2E/DX2                !
 ! D17   D(12,2,9,19)          169.8972         estimate D2E/DX2                !
 ! D18   D(12,2,9,20)           51.0836         estimate D2E/DX2                !
 ! D19   D(1,2,12,24)          176.5552         estimate D2E/DX2                !
 ! D20   D(3,2,12,24)           48.2561         estimate D2E/DX2                !
 ! D21   D(9,2,12,24)          -64.4227         estimate D2E/DX2                !
 ! D22   D(2,3,4,5)           -178.8047         estimate D2E/DX2                !
 ! D23   D(2,3,4,14)             1.5345         estimate D2E/DX2                !
 ! D24   D(8,3,4,5)              0.0359         estimate D2E/DX2                !
 ! D25   D(8,3,4,14)          -179.6249         estimate D2E/DX2                !
 ! D26   D(2,3,8,7)            178.8871         estimate D2E/DX2                !
 ! D27   D(2,3,8,18)            -1.4631         estimate D2E/DX2                !
 ! D28   D(4,3,8,7)              0.0027         estimate D2E/DX2                !
 ! D29   D(4,3,8,18)           179.6525         estimate D2E/DX2                !
 ! D30   D(3,4,5,6)             -0.0128         estimate D2E/DX2                !
 ! D31   D(3,4,5,15)          -179.9213         estimate D2E/DX2                !
 ! D32   D(14,4,5,6)           179.6468         estimate D2E/DX2                !
 ! D33   D(14,4,5,15)           -0.2617         estimate D2E/DX2                !
 ! D34   D(4,5,6,7)             -0.0485         estimate D2E/DX2                !
 ! D35   D(4,5,6,16)          -179.91           estimate D2E/DX2                !
 ! D36   D(15,5,6,7)           179.8597         estimate D2E/DX2                !
 ! D37   D(15,5,6,16)           -0.0018         estimate D2E/DX2                !
 ! D38   D(5,6,7,8)              0.0872         estimate D2E/DX2                !
 ! D39   D(5,6,7,17)          -179.8845         estimate D2E/DX2                !
 ! D40   D(16,6,7,8)           179.9485         estimate D2E/DX2                !
 ! D41   D(16,6,7,17)           -0.0232         estimate D2E/DX2                !
 ! D42   D(6,7,8,3)             -0.064          estimate D2E/DX2                !
 ! D43   D(6,7,8,18)          -179.701          estimate D2E/DX2                !
 ! D44   D(17,7,8,3)           179.9077         estimate D2E/DX2                !
 ! D45   D(17,7,8,18)            0.2707         estimate D2E/DX2                !
 ! D46   D(2,9,10,11)          -74.6416         estimate D2E/DX2                !
 ! D47   D(2,9,10,21)          166.8176         estimate D2E/DX2                !
 ! D48   D(2,9,10,22)           48.1067         estimate D2E/DX2                !
 ! D49   D(19,9,10,11)          42.0766         estimate D2E/DX2                !
 ! D50   D(19,9,10,21)         -76.4641         estimate D2E/DX2                !
 ! D51   D(19,9,10,22)         164.825          estimate D2E/DX2                !
 ! D52   D(20,9,10,11)         166.7588         estimate D2E/DX2                !
 ! D53   D(20,9,10,21)          48.2181         estimate D2E/DX2                !
 ! D54   D(20,9,10,22)         -70.4928         estimate D2E/DX2                !
 ! D55   D(9,10,11,23)          51.5781         estimate D2E/DX2                !
 ! D56   D(21,10,11,23)        172.4308         estimate D2E/DX2                !
 ! D57   D(22,10,11,23)        -69.453          estimate D2E/DX2                !
 --------------------------------------------------------------------------------
 Trust Radius=3.00D-01 FncErr=1.00D-07 GrdErr=1.00D-06 EigMax=2.50D+02 EigMin=1.00D-04
 Number of steps in this run=    130 maximum allowed number of steps=    144.
 GradGradGradGradGradGradGradGradGradGradGradGradGradGradGradGradGradGrad

                          Input orientation:                          
 ---------------------------------------------------------------------
 Center     Atomic      Atomic             Coordinates (Angstroms)
 Number     Number       Type             X           Y           Z
 ---------------------------------------------------------------------
      1          7           0       -1.377029    0.558749   -1.397336
      2         16           0       -0.777997   -0.478709   -0.444449
      3          6           0        0.991879   -0.129266   -0.129719
      4          6           0        1.808741   -1.056099    0.487851
      5          6           0        3.135447   -0.736746    0.727129
      6          6           0        3.628263    0.501338    0.347140
      7          6           0        2.800646    1.424052   -0.273166
      8          6           0        1.474405    1.107080   -0.512400
      9          6           0       -1.447931    0.017849    1.203458
     10          6           0       -2.966643    0.099763    1.095229
     11          8           0       -3.379312    1.238468    0.401877
     12          7           0       -1.062164   -1.924093   -0.854037
     13          1           0       -1.470978    0.227122   -2.342436
     14          1           0        1.416103   -2.020695    0.775035
     15          1           0        3.783345   -1.454168    1.208109
     16          1           0        4.663125    0.746464    0.533800
     17          1           0        3.187777    2.387128   -0.569790
     18          1           0        0.799327    1.796283   -0.997059
     19          1           0       -1.019426    0.989726    1.433309
     20          1           0       -1.124071   -0.726442    1.926862
     21          1           0       -3.418720    0.160164    2.090508
     22          1           0       -3.325499   -0.818106    0.601338
     23          1           0       -2.882026    1.249671   -0.439026
     24          1           0       -0.635520   -2.628954   -0.276915
 ---------------------------------------------------------------------
                    Distance matrix (angstroms):
                    1          2          3          4          5
     1  N    0.000000
     2  S    1.530736   0.000000
     3  C    2.773435   1.831290   0.000000
     4  C    4.038663   2.809586   1.381187   0.000000
     5  C    5.153067   4.093192   2.387071   1.385421   0.000000
     6  C    5.300891   4.582819   2.752377   2.399182   1.385681
     7  C    4.411969   4.056663   2.388517   2.777440   2.404523
     8  C    3.035532   2.755478   1.381241   2.406580   2.774020
     9  C    2.657392   1.846884   2.784183   3.503051   4.669439
    10  C    2.991726   2.737774   4.150041   4.950678   6.170150
    11  O    2.776387   3.229831   4.610922   5.673476   6.815376
    12  N    2.561018   1.528937   2.822257   3.285753   4.640024
    13  H    1.005990   2.140274   3.329984   4.518156   5.618756
    14  H    4.378849   2.946004   2.139171   1.080317   2.146384
    15  H    6.121244   4.948565   3.367110   2.139226   1.079725
    16  H    6.344130   5.662493   3.832128   3.376219   2.138010
    17  H    4.986507   4.894496   3.368660   3.856963   3.382799
    18  H    2.535397   2.822927   2.120635   3.370454   3.853118
    19  H    2.885512   2.395948   2.782184   3.616327   4.554379
    20  H    3.572953   2.409202   3.010546   3.283414   4.425264
    21  H    4.061087   3.715856   4.946368   5.601263   6.754285
    22  H    3.112389   2.774640   4.432685   5.141006   6.462683
    23  H    1.913308   2.722915   4.123624   5.308387   6.443272
    24  H    3.459281   2.161463   2.986391   3.005519   4.336905
                    6          7          8          9         10
     6  C    0.000000
     7  C    1.386049   0.000000
     8  C    2.396838   1.384419   0.000000
     9  C    5.170569   4.712560   3.559585   0.000000
    10  C    6.649337   6.073538   4.829293   1.524765   0.000000
    11  O    7.046451   6.219486   4.940824   2.421296   1.395594
    12  N    5.415316   5.144783   3.967229   2.855388   3.394505
    13  H    5.771592   4.895027   3.577519   3.552139   3.751102
    14  H    3.381922   3.857716   3.382879   3.541455   4.879275
    15  H    2.142270   3.382902   3.853744   5.434436   6.927465
    16  H    1.079754   2.139895   3.375279   6.190664   7.677681
    17  H    2.142660   1.079524   2.139500   5.499789   6.773567
    18  H    3.389193   2.160521   1.079642   3.613207   4.630159
    19  H    4.797843   4.206381   3.165241   1.086735   2.167484
    20  H    5.156320   4.986797   4.007977   1.087275   2.183872
    21  H    7.267441   6.772361   5.622674   2.165900   1.094807
    22  H    7.082398   6.581921   5.290164   2.141643   1.102356
    23  H    6.600146   5.687765   4.359382   2.504350   1.919216
    24  H    5.326163   5.313577   4.297113   3.139599   3.842240
                   11         12         13         14         15
    11  O    0.000000
    12  N    4.116829   0.000000
    13  H    3.492250   2.647675   0.000000
    14  H    5.810112   2.967325   4.806927   0.000000
    15  H    7.694410   5.286987   6.560564   2.472314   0.000000
    16  H    8.058553   6.468145   6.794827   4.272998   2.464039
    17  H    6.737226   6.060480   5.432485   4.937235   4.274480
    18  H    4.441757   4.162547   3.070276   4.253241   4.932804
    19  H    2.587429   3.704608   3.878365   3.927819   5.393509
    20  H    3.357464   3.028464   4.388226   3.074781   5.012875
    21  H    2.003938   4.309040   4.842434   5.464626   7.433332
    22  H    2.066924   2.909296   3.632843   4.894812   7.162988
    23  H    0.977004   3.681970   2.580626   5.535626   7.379089
    24  H    4.790209   1.005945   3.622366   2.384478   4.807471
                   16         17         18         19         20
    16  H    0.000000
    17  H    2.467052   0.000000
    18  H    4.286559   2.497268   0.000000
    19  H    5.758444   4.864740   3.140873   0.000000
    20  H    6.132023   5.875340   4.314268   1.788792   0.000000
    21  H    8.251261   7.462061   5.477397   2.622346   2.465414
    22  H    8.140673   7.353083   5.138491   3.046048   2.571323
    23  H    7.624232   6.176845   3.763315   2.653769   3.548641
    24  H    6.334535   6.313830   4.707453   4.020833   2.952095
                   21         22         23         24
    21  H    0.000000
    22  H    1.784189   0.000000
    23  H    2.805995   2.356847   0.000000
    24  H    4.596746   3.359537   4.485176   0.000000
 Stoichiometry    C8H12N2OS
 Framework group  C1[X(C8H12N2OS)]
 Deg. of freedom    66
 Full point group                 C1      NOp   1
 Largest Abelian subgroup         C1      NOp   1
 Largest concise Abelian subgroup C1      NOp   1
                         Standard orientation:                         
 ---------------------------------------------------------------------
 Center     Atomic      Atomic             Coordinates (Angstroms)
 Number     Number       Type             X           Y           Z
 ---------------------------------------------------------------------
      1          7           0       -1.370050   -0.693177    1.363509
      2         16           0       -0.778657    0.430006    0.508018
      3          6           0        0.992007    0.119723    0.158594
      4          6           0        1.802686    1.103214   -0.373593
      5          6           0        3.130251    0.813761   -0.644109
      6          6           0        3.630075   -0.451354   -0.379968
      7          6           0        2.808629   -1.431047    0.155345
      8          6           0        1.481542   -1.143959    0.425599
      9          6           0       -1.450734    0.082691   -1.176816
     10          6           0       -2.968729   -0.016439   -1.073020
     11          8           0       -3.373990   -1.215793   -0.485659
     12          7           0       -1.068657    1.830474    1.048608
     13          1           0       -1.462989   -0.449755    2.335169
     14          1           0        1.404612    2.088016   -0.570537
     15          1           0        3.773353    1.575387   -1.059021
     16          1           0        4.665587   -0.673171   -0.590630
     17          1           0        3.201215   -2.415226    0.361841
     18          1           0        0.811133   -1.877958    0.846815
     19          1           0       -1.018185   -0.861947   -1.495492
     20          1           0       -1.132462    0.891583   -1.829935
     21          1           0       -3.423254    0.012053   -2.068609
     22          1           0       -3.330641    0.850648   -0.496505
     23          1           0       -2.874338   -1.301258    0.349554
     24          1           0       -0.647009    2.587257    0.537319
 ---------------------------------------------------------------------
 Rotational constants (GHZ):           1.7416978           0.4949853           0.4658874
 Standard basis: def2SVP (5D, 7F)
 There are   244 symmetry adapted cartesian basis functions of A   symmetry.
 There are   232 symmetry adapted basis functions of A   symmetry.
   232 basis functions,   396 primitive gaussians,   244 cartesian basis functions
    49 alpha electrons       49 beta electrons
       nuclear repulsion energy       832.3808151967 Hartrees.
 NAtoms=   24 NActive=   24 NUniq=   24 SFac= 1.00D+00 NAtFMM=   60 NAOKFM=F Big=F
 Integral buffers will be    131072 words long.
 Raffenetti 2 integral format.
 Two-electron integral symmetry is turned on.
 Nuclear repulsion after empirical dispersion term =      832.3540328972 Hartrees.
 One-electron integrals computed using PRISM.
   1 Symmetry operations used in ECPInt.
 ECPInt:  NShTT=    6105 NPrTT=   22357 LenC2=    5876 LenP2D=   16157.
 LDataN:  DoStor=T MaxTD1= 4 Len=   56
 NBasis=   232 RedAO= T EigKep=  2.69D-04  NBF=   232
 NBsUse=   232 1.00D-06 EigRej= -1.00D+00 NBFU=   232
 ExpMin= 1.22D-01 ExpMax= 9.18D+03 ExpMxC= 1.38D+03 IAcc=3 IRadAn=         5 AccDes= 0.00D+00
 Harris functional with IExCor= 1009 and IRadAn=       5 diagonalized for initial guess.
 HarFok:  IExCor= 1009 AccDes= 0.00D+00 IRadAn=         5 IDoV= 1 UseB2=F ITyADJ=14
 ICtDFT=  3500011 ScaDFX=  1.000000  1.000000  1.000000  1.000000
 FoFCou: FMM=F IPFlag=           0 FMFlag=      100000 FMFlg1=           0
         NFxFlg=           0 DoJE=T BraDBF=F KetDBF=T FulRan=T
         wScrn=  0.000000 ICntrl=       500 IOpCl=  0 I1Cent=   200000004 NGrid=           0
         NMat0=    1 NMatS0=      1 NMatT0=    0 NMatD0=    1 NMtDS0=    0 NMtDT0=    0
 Petite list used in FoFCou.
 Requested convergence on RMS density matrix=1.00D-08 within 128 cycles.
 Requested convergence on MAX density matrix=1.00D-06.
 Requested convergence on             energy=1.00D-06.
 No special actions if energy rises.
 Integral accuracy reduced to 1.0D-05 until final iterations.
 Initial convergence to 1.0D-05 achieved.  Increase integral accuracy.
 SCF Done:  E(RPBE1PBE) =  -893.676797650     A.U. after   14 cycles
            NFock= 14  Conv=0.70D-08     -V/T= 2.0060

 **********************************************************************

            Population analysis using the SCF Density.

 **********************************************************************

 Orbital symmetries:
       Occupied  (A) (A) (A) (A) (A) (A) (A) (A) (A) (A) (A) (A)
                 (A) (A) (A) (A) (A) (A) (A) (A) (A) (A) (A) (A)
                 (A) (A) (A) (A) (A) (A) (A) (A) (A) (A) (A) (A)
                 (A) (A) (A) (A) (A) (A) (A) (A) (A) (A) (A) (A)
                 (A)
       Virtual   (A) (A) (A) (A) (A) (A) (A) (A) (A) (A) (A) (A)
                 (A) (A) (A) (A) (A) (A) (A) (A) (A) (A) (A) (A)
                 (A) (A) (A) (A) (A) (A) (A) (A) (A) (A) (A) (A)
                 (A) (A) (A) (A) (A) (A) (A) (A) (A) (A) (A) (A)
                 (A) (A) (A) (A) (A) (A) (A) (A) (A) (A) (A) (A)
                 (A) (A) (A) (A) (A) (A) (A) (A) (A) (A) (A) (A)
                 (A) (A) (A) (A) (A) (A) (A) (A) (A) (A) (A) (A)
                 (A) (A) (A) (A) (A) (A) (A) (A) (A) (A) (A) (A)
                 (A) (A) (A) (A) (A) (A) (A) (A) (A) (A) (A) (A)
                 (A) (A) (A) (A) (A) (A) (A) (A) (A) (A) (A) (A)
                 (A) (A) (A) (A) (A) (A) (A) (A) (A) (A) (A) (A)
                 (A) (A) (A) (A) (A) (A) (A) (A) (A) (A) (A) (A)
                 (A) (A) (A) (A) (A) (A) (A) (A) (A) (A) (A) (A)
                 (A) (A) (A) (A) (A) (A) (A) (A) (A) (A) (A) (A)
                 (A) (A) (A) (A) (A) (A) (A) (A) (A) (A) (A) (A)
                 (A) (A) (A)
 The electronic state is 1-A.
 Alpha  occ. eigenvalues --  -89.19157 -19.17201 -14.35807 -14.35613 -10.27659
 Alpha  occ. eigenvalues --  -10.27346 -10.26838 -10.26587 -10.26165 -10.26035
 Alpha  occ. eigenvalues --  -10.25980 -10.25895  -8.16657  -6.10749  -6.10709
 Alpha  occ. eigenvalues --   -6.10662  -1.02659  -1.00734  -0.90685  -0.86391
 Alpha  occ. eigenvalues --   -0.80362  -0.79144  -0.78580  -0.68896  -0.64942
 Alpha  occ. eigenvalues --   -0.64009  -0.61076  -0.57316  -0.53667  -0.52540
 Alpha  occ. eigenvalues --   -0.50834  -0.49603  -0.48351  -0.47610  -0.46420
 Alpha  occ. eigenvalues --   -0.46214  -0.42254  -0.41897  -0.40671  -0.39748
 Alpha  occ. eigenvalues --   -0.38365  -0.34875  -0.31452  -0.29617  -0.29430
 Alpha  occ. eigenvalues --   -0.29015  -0.26619  -0.26156  -0.25802
 Alpha virt. eigenvalues --   -0.03935  -0.02813   0.04259   0.05851   0.07334
 Alpha virt. eigenvalues --    0.07377   0.08898   0.09555   0.10982   0.11382
 Alpha virt. eigenvalues --    0.11921   0.13486   0.14212   0.14748   0.16144
 Alpha virt. eigenvalues --    0.16619   0.17366   0.18182   0.21826   0.22040
 Alpha virt. eigenvalues --    0.26435   0.28118   0.28286   0.29916   0.30757
 Alpha virt. eigenvalues --    0.34409   0.39956   0.40565   0.41602   0.42054
 Alpha virt. eigenvalues --    0.43519   0.44454   0.47100   0.47252   0.47841
 Alpha virt. eigenvalues --    0.49138   0.49644   0.50427   0.52684   0.53949
 Alpha virt. eigenvalues --    0.55317   0.55839   0.58228   0.59119   0.60521
 Alpha virt. eigenvalues --    0.61349   0.63667   0.64162   0.65225   0.65940
 Alpha virt. eigenvalues --    0.66442   0.66575   0.67497   0.68600   0.69142
 Alpha virt. eigenvalues --    0.70196   0.70868   0.71358   0.72242   0.73268
 Alpha virt. eigenvalues --    0.74556   0.74851   0.76119   0.76439   0.78630
 Alpha virt. eigenvalues --    0.80809   0.82280   0.83886   0.85492   0.86416
 Alpha virt. eigenvalues --    0.88396   0.90866   0.92433   0.94722   0.97681
 Alpha virt. eigenvalues --    0.98293   1.00953   1.05065   1.06003   1.08827
 Alpha virt. eigenvalues --    1.11087   1.13628   1.14824   1.16107   1.16503
 Alpha virt. eigenvalues --    1.18130   1.19842   1.21005   1.22769   1.23245
 Alpha virt. eigenvalues --    1.26316   1.26804   1.27963   1.29493   1.32654
 Alpha virt. eigenvalues --    1.36629   1.41381   1.45707   1.47528   1.49289
 Alpha virt. eigenvalues --    1.51810   1.52416   1.52965   1.61535   1.64551
 Alpha virt. eigenvalues --    1.66233   1.68971   1.69645   1.70232   1.72018
 Alpha virt. eigenvalues --    1.72925   1.74660   1.75052   1.75579   1.76049
 Alpha virt. eigenvalues --    1.77383   1.79288   1.81423   1.82075   1.84038
 Alpha virt. eigenvalues --    1.84551   1.86080   1.89120   1.91433   1.92282
 Alpha virt. eigenvalues --    1.93251   1.94686   1.96889   1.97865   1.99217
 Alpha virt. eigenvalues --    2.03965   2.06384   2.10397   2.11687   2.13831
 Alpha virt. eigenvalues --    2.14680   2.16061   2.17574   2.21227   2.22709
 Alpha virt. eigenvalues --    2.26953   2.27998   2.29627   2.30000   2.31788
 Alpha virt. eigenvalues --    2.33435   2.34570   2.35313   2.37586   2.41482
 Alpha virt. eigenvalues --    2.43117   2.48804   2.51353   2.54251   2.57250
 Alpha virt. eigenvalues --    2.58460   2.60386   2.61540   2.63546   2.64831
 Alpha virt. eigenvalues --    2.65483   2.74681   2.75280   2.76940   2.80557
 Alpha virt. eigenvalues --    2.84260   2.86003   2.87924   2.90833   2.91422
 Alpha virt. eigenvalues --    2.95744   2.98072   3.03422   3.05618   3.11152
 Alpha virt. eigenvalues --    3.14918   3.21742   3.23515   3.26269   3.31472
 Alpha virt. eigenvalues --    3.40084   3.64935   3.83112
          Condensed to atoms (all electrons):
               1          2          3          4          5          6
     1  N    6.919988   0.338641  -0.073801   0.006028   0.000003  -0.000047
     2  S    0.338641  14.715808   0.096438  -0.028619   0.001696   0.000421
     3  C   -0.073801   0.096438   5.903648   0.167952   0.095365  -0.180655
     4  C    0.006028  -0.028619   0.167952   5.157267   0.298097   0.087219
     5  C    0.000003   0.001696   0.095365   0.298097   5.034806   0.282947
     6  C   -0.000047   0.000421  -0.180655   0.087219   0.282947   5.109284
     7  C    0.001936   0.002600   0.100701  -0.137732   0.083268   0.263348
     8  C    0.003771  -0.044014   0.269997   0.047305  -0.131714   0.097624
     9  C   -0.096542   0.251017  -0.123202  -0.006665  -0.000492  -0.000084
    10  C    0.021761  -0.044486   0.009909   0.000018   0.000007   0.000002
    11  O   -0.025556  -0.005750  -0.000322   0.000009  -0.000000   0.000000
    12  N   -0.070598   0.343634  -0.035677  -0.002043   0.000263  -0.000015
    13  H    0.329731  -0.008363   0.001057  -0.000322  -0.000026   0.000005
    14  H    0.000269  -0.002864  -0.090770   0.437483  -0.045080   0.013280
    15  H    0.000001  -0.000131   0.017021  -0.070298   0.453070  -0.070591
    16  H    0.000000   0.000020  -0.001479   0.014773  -0.067950   0.449995
    17  H   -0.000006  -0.000152   0.016750  -0.001873   0.014251  -0.073095
    18  H    0.030529  -0.011830  -0.070388   0.014374  -0.001917   0.012611
    19  H    0.003616  -0.019758   0.006372  -0.000013  -0.000019   0.000025
    20  H    0.005585  -0.013461  -0.002488   0.005991   0.000107   0.000006
    21  H   -0.000118   0.004891  -0.000190  -0.000021  -0.000000   0.000000
    22  H   -0.001029  -0.008604   0.001497   0.000013  -0.000002   0.000000
    23  H    0.059166  -0.004284   0.000206  -0.000054  -0.000000   0.000000
    24  H    0.004691  -0.005906  -0.009249   0.006350   0.000842   0.000008
               7          8          9         10         11         12
     1  N    0.001936   0.003771  -0.096542   0.021761  -0.025556  -0.070598
     2  S    0.002600  -0.044014   0.251017  -0.044486  -0.005750   0.343634
     3  C    0.100701   0.269997  -0.123202   0.009909  -0.000322  -0.035677
     4  C   -0.137732   0.047305  -0.006665   0.000018   0.000009  -0.002043
     5  C    0.083268  -0.131714  -0.000492   0.000007  -0.000000   0.000263
     6  C    0.263348   0.097624  -0.000084   0.000002   0.000000  -0.000015
     7  C    5.109636   0.235107  -0.000691  -0.000018  -0.000000  -0.000055
     8  C    0.235107   5.104851  -0.000144  -0.000188  -0.000021   0.003737
     9  C   -0.000691  -0.000144   5.318932   0.293737  -0.048045  -0.041019
    10  C   -0.000018  -0.000188   0.293737   4.487112   0.340594  -0.011260
    11  O   -0.000000  -0.000021  -0.048045   0.340594   7.791672  -0.000017
    12  N   -0.000055   0.003737  -0.041019  -0.011260  -0.000017   6.859032
    13  H   -0.000106  -0.000214   0.006789  -0.000662   0.000707   0.004525
    14  H   -0.001430   0.013037   0.000784  -0.000035   0.000000   0.003672
    15  H    0.014170  -0.001892   0.000023  -0.000000   0.000000   0.000004
    16  H   -0.067670   0.014073   0.000000   0.000000   0.000000  -0.000000
    17  H    0.457087  -0.071498   0.000019  -0.000000   0.000000   0.000001
    18  H   -0.054984   0.441710   0.001830  -0.000384   0.000004   0.000713
    19  H    0.000270   0.001486   0.332905  -0.017022   0.008000   0.002727
    20  H    0.000040  -0.000640   0.318369   0.004201   0.004335  -0.000441
    21  H   -0.000000  -0.000011  -0.017162   0.389548  -0.031764  -0.000203
    22  H    0.000001  -0.000030  -0.061986   0.370870  -0.029812   0.019512
    23  H    0.000008   0.000145  -0.006233  -0.041149   0.348958   0.001131
    24  H   -0.000041  -0.000901  -0.004663   0.000842   0.000003   0.324693
              13         14         15         16         17         18
     1  N    0.329731   0.000269   0.000001   0.000000  -0.000006   0.030529
     2  S   -0.008363  -0.002864  -0.000131   0.000020  -0.000152  -0.011830
     3  C    0.001057  -0.090770   0.017021  -0.001479   0.016750  -0.070388
     4  C   -0.000322   0.437483  -0.070298   0.014773  -0.001873   0.014374
     5  C   -0.000026  -0.045080   0.453070  -0.067950   0.014251  -0.001917
     6  C    0.000005   0.013280  -0.070591   0.449995  -0.073095   0.012611
     7  C   -0.000106  -0.001430   0.014170  -0.067670   0.457087  -0.054984
     8  C   -0.000214   0.013037  -0.001892   0.014073  -0.071498   0.441710
     9  C    0.006789   0.000784   0.000023   0.000000   0.000019   0.001830
    10  C   -0.000662  -0.000035  -0.000000   0.000000  -0.000000  -0.000384
    11  O    0.000707   0.000000   0.000000   0.000000   0.000000   0.000004
    12  N    0.004525   0.003672   0.000004  -0.000000   0.000001   0.000713
    13  H    0.523960  -0.000030   0.000000   0.000000   0.000001  -0.000546
    14  H   -0.000030   0.674492  -0.012332  -0.000277   0.000045  -0.000194
    15  H    0.000000  -0.012332   0.658040  -0.012022  -0.000253   0.000030
    16  H    0.000000  -0.000277  -0.012022   0.656088  -0.012022  -0.000209
    17  H    0.000001   0.000045  -0.000253  -0.012022   0.654049  -0.010700
    18  H   -0.000546  -0.000194   0.000030  -0.000209  -0.010700   0.611947
    19  H   -0.000609  -0.000049  -0.000003  -0.000001  -0.000009   0.000538
    20  H   -0.000315   0.000649  -0.000012  -0.000000   0.000000  -0.000037
    21  H    0.000054  -0.000001   0.000000  -0.000000   0.000000  -0.000003
    22  H   -0.000357  -0.000056  -0.000000   0.000000  -0.000000   0.000001
    23  H   -0.001336  -0.000002  -0.000000   0.000000  -0.000000   0.000261
    24  H   -0.000168   0.004104  -0.000009  -0.000000   0.000000  -0.000125
              19         20         21         22         23         24
     1  N    0.003616   0.005585  -0.000118  -0.001029   0.059166   0.004691
     2  S   -0.019758  -0.013461   0.004891  -0.008604  -0.004284  -0.005906
     3  C    0.006372  -0.002488  -0.000190   0.001497   0.000206  -0.009249
     4  C   -0.000013   0.005991  -0.000021   0.000013  -0.000054   0.006350
     5  C   -0.000019   0.000107  -0.000000  -0.000002  -0.000000   0.000842
     6  C    0.000025   0.000006   0.000000   0.000000   0.000000   0.000008
     7  C    0.000270   0.000040  -0.000000   0.000001   0.000008  -0.000041
     8  C    0.001486  -0.000640  -0.000011  -0.000030   0.000145  -0.000901
     9  C    0.332905   0.318369  -0.017162  -0.061986  -0.006233  -0.004663
    10  C   -0.017022   0.004201   0.389548   0.370870  -0.041149   0.000842
    11  O    0.008000   0.004335  -0.031764  -0.029812   0.348958   0.000003
    12  N    0.002727  -0.000441  -0.000203   0.019512   0.001131   0.324693
    13  H   -0.000609  -0.000315   0.000054  -0.000357  -0.001336  -0.000168
    14  H   -0.000049   0.000649  -0.000001  -0.000056  -0.000002   0.004104
    15  H   -0.000003  -0.000012   0.000000  -0.000000  -0.000000  -0.000009
    16  H   -0.000001  -0.000000  -0.000000   0.000000   0.000000  -0.000000
    17  H   -0.000009   0.000000   0.000000  -0.000000  -0.000000   0.000000
    18  H    0.000538  -0.000037  -0.000003   0.000001   0.000261  -0.000125
    19  H    0.605616  -0.008231  -0.009535   0.012069  -0.001227   0.000042
    20  H   -0.008231   0.626359  -0.005531   0.003175   0.000075   0.001722
    21  H   -0.009535  -0.005531   0.656958  -0.038522   0.007437   0.000015
    22  H    0.012069   0.003175  -0.038522   0.708296  -0.004668  -0.000118
    23  H   -0.001227   0.000075   0.007437  -0.004668   0.462847  -0.000120
    24  H    0.000042   0.001722   0.000015  -0.000118  -0.000120   0.559765
 Mulliken charges:
               1
     1  N   -0.458017
     2  S    0.443059
     3  C   -0.098690
     4  C    0.004762
     5  C   -0.017520
     6  C    0.007711
     7  C   -0.005445
     8  C    0.018425
     9  C   -0.117474
    10  C    0.196602
    11  O   -0.352994
    12  N   -0.402317
    13  H    0.146226
    14  H    0.005306
    15  H    0.025184
    16  H    0.026681
    17  H    0.027406
    18  H    0.036770
    19  H    0.082811
    20  H    0.060542
    21  H    0.044158
    22  H    0.029749
    23  H    0.178839
    24  H    0.118223
 Sum of Mulliken charges =  -0.00000
 Mulliken charges with hydrogens summed into heavy atoms:
               1
     1  N   -0.311791
     2  S    0.443059
     3  C   -0.098690
     4  C    0.010069
     5  C    0.007664
     6  C    0.034392
     7  C    0.021961
     8  C    0.055195
     9  C    0.025880
    10  C    0.270510
    11  O   -0.174155
    12  N   -0.284093
 Electronic spatial extent (au):  <R**2>=           2548.7645
 Charge=             -0.0000 electrons
 Dipole moment (field-independent basis, Debye):
    X=              4.7354    Y=              1.3949    Z=             -2.0321  Tot=              5.3384
 Quadrupole moment (field-independent basis, Debye-Ang):
   XX=            -82.6297   YY=            -77.8673   ZZ=            -78.2557
   XY=             -5.1302   XZ=             -0.0886   YZ=             -6.6789
 Traceless Quadrupole moment (field-independent basis, Debye-Ang):
   XX=             -3.0455   YY=              1.7169   ZZ=              1.3285
   XY=             -5.1302   XZ=             -0.0886   YZ=             -6.6789
 Octapole moment (field-independent basis, Debye-Ang**2):
  XXX=             59.3556  YYY=              4.4919  ZZZ=              5.1610  XYY=             18.0369
  XXY=             13.0204  XXZ=             -7.4600  XZZ=            -18.3853  YZZ=             -5.1954
  YYZ=             -5.8525  XYZ=              5.5175
 Hexadecapole moment (field-independent basis, Debye-Ang**3):
 XXXX=          -2429.6987 YYYY=           -507.8077 ZZZZ=           -360.7994 XXXY=            -82.9541
 XXXZ=            -54.5718 YYYX=              0.4417 YYYZ=            -22.2685 ZZZX=              4.6072
 ZZZY=            -12.1745 XXYY=           -510.2819 XXZZ=           -464.8842 YYZZ=           -171.6929
 XXYZ=            -41.1188 YYXZ=              1.7753 ZZXY=             15.6085
 N-N= 8.323540328972D+02 E-N=-3.762182917557D+03  KE= 8.883326651973D+02
   1 Symmetry operations used in ECPInt.
 ECPInt:  NShTT=    6105 NPrTT=   22357 LenC2=    5876 LenP2D=   16157.
 LDataN:  DoStor=T MaxTD1= 5 Len=  102
 Calling FoFJK, ICntrl=      2127 FMM=F ISym2X=0 I1Cent= 0 IOpClX= 0 NMat=1 NMatS=1 NMatT=0.
 ***** Axes restored to original set *****
 -------------------------------------------------------------------
 Center     Atomic                   Forces (Hartrees/Bohr)
 Number     Number              X              Y              Z
 -------------------------------------------------------------------
      1        7          -0.006829539    0.022693350    0.009260763
      2       16           0.003355001   -0.002451155    0.013311155
      3        6          -0.011927366   -0.002639508   -0.004155046
      4        6          -0.000691897   -0.002846950    0.000846283
      5        6          -0.001178244   -0.000583858    0.000361000
      6        6           0.000768559    0.000705641   -0.000111222
      7        6           0.000308936   -0.001461892    0.000727892
      8        6          -0.001084425    0.002584184   -0.001783002
      9        6          -0.009238680   -0.001468588   -0.015204579
     10        6           0.000636349    0.011929779   -0.013471133
     11        8          -0.000794678    0.001875337    0.003700937
     12        7          -0.004363179   -0.001601864   -0.006759245
     13        1           0.003981621   -0.008677125   -0.009290433
     14        1          -0.002327352   -0.009023080    0.002536253
     15        1           0.005426503   -0.006180879    0.003980899
     16        1           0.008861000    0.002072660    0.001606808
     17        1           0.003151946    0.008272560   -0.002710161
     18        1          -0.005991591    0.006580237   -0.004716773
     19        1           0.003742690    0.007610811    0.002895211
     20        1           0.005972281   -0.007200713    0.003529630
     21        1           0.000792409   -0.003468720    0.005711059
     22        1          -0.001331703   -0.006534532    0.001481238
     23        1           0.001720042   -0.002778891    0.000196199
     24        1           0.007041319   -0.007406806    0.008056266
 -------------------------------------------------------------------
 Cartesian Forces:  Max     0.022693350 RMS     0.006282129

 GradGradGradGradGradGradGradGradGradGradGradGradGradGradGradGradGradGrad
 Berny optimization.
 FormGI is forming the generalized inverse of G from B-inverse, IUseBI=4.
 Internal  Forces:  Max     0.012798002 RMS     0.004464568
 Search for a local minimum.
 Step number   1 out of a maximum of  130
 All quantities printed in internal units (Hartrees-Bohrs-Radians)
 Mixed Optimization -- RFO/linear search
 Second derivative matrix not updated -- first step.
 ITU=  0
     Eigenvalues ---    0.00230   0.00230   0.00438   0.01508   0.01750
     Eigenvalues ---    0.02276   0.02279   0.02280   0.02285   0.02296
     Eigenvalues ---    0.02309   0.02315   0.02332   0.03535   0.03559
     Eigenvalues ---    0.04092   0.04971   0.05022   0.05932   0.06890
     Eigenvalues ---    0.07525   0.07690   0.09329   0.11516   0.11655
     Eigenvalues ---    0.13952   0.16000   0.16000   0.16000   0.16000
     Eigenvalues ---    0.16000   0.16000   0.16000   0.16000   0.16148
     Eigenvalues ---    0.19518   0.21965   0.22000   0.22000   0.22075
     Eigenvalues ---    0.22746   0.23494   0.23799   0.24995   0.29912
     Eigenvalues ---    0.33423   0.34263   0.35129   0.35193   0.35956
     Eigenvalues ---    0.36024   0.36028   0.36038   0.36052   0.43609
     Eigenvalues ---    0.43810   0.46359   0.46651   0.46658   0.48067
     Eigenvalues ---    0.48224   0.48493   0.48781   0.51971   0.67336
     Eigenvalues ---    0.67840
 RFO step:  Lambda=-8.25283700D-03 EMin= 2.30000000D-03
 Linear search not attempted -- first point.
 Iteration  1 RMS(Cart)=  0.03415790 RMS(Int)=  0.00081226
 Iteration  2 RMS(Cart)=  0.00099445 RMS(Int)=  0.00011372
 Iteration  3 RMS(Cart)=  0.00000093 RMS(Int)=  0.00011372
 Variable       Old X    -DE/DX   Delta X   Delta X   Delta X     New X
                                 (Linear)    (Quad)   (Total)
    R1        2.89267   0.01063   0.00000   0.01560   0.01560   2.90827
    R2        1.90105   0.01122   0.00000   0.02363   0.02363   1.92467
    R3        3.46064  -0.00559   0.00000  -0.02272  -0.02272   3.43792
    R4        3.49010  -0.01052   0.00000  -0.04461  -0.04461   3.44549
    R5        2.88927   0.00767   0.00000   0.01117   0.01117   2.90044
    R6        2.61006   0.01146   0.00000   0.02324   0.02324   2.63330
    R7        2.61017   0.01073   0.00000   0.02183   0.02184   2.63201
    R8        2.61807   0.00824   0.00000   0.01676   0.01676   2.63482
    R9        2.04150   0.00958   0.00000   0.02604   0.02604   2.06754
   R10        2.61856   0.01009   0.00000   0.02039   0.02038   2.63894
   R11        2.04039   0.00914   0.00000   0.02479   0.02479   2.06518
   R12        2.61925   0.00973   0.00000   0.01974   0.01974   2.63899
   R13        2.04044   0.00924   0.00000   0.02508   0.02508   2.06552
   R14        2.61617   0.00969   0.00000   0.01979   0.01979   2.63596
   R15        2.04000   0.00925   0.00000   0.02510   0.02510   2.06510
   R16        2.04023   0.01006   0.00000   0.02730   0.02730   2.06753
   R17        2.88139  -0.00079   0.00000  -0.00258  -0.00258   2.87881
   R18        2.05363   0.00889   0.00000   0.02469   0.02469   2.07833
   R19        2.05465   0.00906   0.00000   0.02519   0.02519   2.07984
   R20        2.63729  -0.00295   0.00000  -0.00624  -0.00624   2.63105
   R21        2.06889   0.00467   0.00000   0.01332   0.01332   2.08220
   R22        2.08315   0.00521   0.00000   0.01522   0.01522   2.09837
   R23        1.84627   0.00068   0.00000   0.00128   0.00128   1.84755
   R24        1.90096   0.01280   0.00000   0.02695   0.02695   1.92791
    A1        1.98008  -0.01268   0.00000  -0.07537  -0.07537   1.90471
    A2        1.93464  -0.00156   0.00000  -0.01075  -0.01057   1.92407
    A3        1.80417  -0.00380   0.00000  -0.01387  -0.01393   1.79024
    A4        1.98364   0.00641   0.00000   0.04693   0.04694   2.03058
    A5        1.71724   0.00484   0.00000   0.01249   0.01238   1.72962
    A6        1.98893  -0.00525   0.00000  -0.03544  -0.03536   1.95357
    A7        2.01062  -0.00096   0.00000  -0.00338  -0.00350   2.00713
    A8        2.11810  -0.00285   0.00000  -0.01145  -0.01148   2.10662
    A9        2.04971   0.00117   0.00000   0.00412   0.00410   2.05381
   A10        2.11521   0.00168   0.00000   0.00754   0.00752   2.12274
   A11        2.08162  -0.00100   0.00000  -0.00397  -0.00397   2.07765
   A12        2.09795   0.00167   0.00000   0.00896   0.00896   2.10691
   A13        2.10360  -0.00068   0.00000  -0.00502  -0.00502   2.09858
   A14        2.09344   0.00023   0.00000   0.00047   0.00046   2.09389
   A15        2.09255  -0.00023   0.00000  -0.00090  -0.00090   2.09165
   A16        2.09719  -0.00000   0.00000   0.00042   0.00042   2.09762
   A17        2.10038   0.00026   0.00000   0.00034   0.00033   2.10071
   A18        2.09012  -0.00016   0.00000  -0.00034  -0.00034   2.08978
   A19        2.09268  -0.00010   0.00000  -0.00001  -0.00000   2.09268
   A20        2.09085   0.00103   0.00000   0.00440   0.00440   2.09525
   A21        2.09757  -0.00030   0.00000  -0.00091  -0.00091   2.09666
   A22        2.09476  -0.00073   0.00000  -0.00350  -0.00350   2.09127
   A23        2.08486  -0.00220   0.00000  -0.00880  -0.00879   2.07607
   A24        2.06841   0.00145   0.00000   0.00646   0.00646   2.07487
   A25        2.12989   0.00075   0.00000   0.00232   0.00232   2.13221
   A26        1.88852   0.00244   0.00000   0.01135   0.01133   1.89985
   A27        1.86099   0.00062   0.00000   0.00964   0.00953   1.87051
   A28        1.87712  -0.00421   0.00000  -0.03936  -0.03934   1.83778
   A29        1.93875  -0.00106   0.00000   0.00330   0.00314   1.94189
   A30        1.96133   0.00207   0.00000   0.01847   0.01854   1.97987
   A31        1.93267   0.00004   0.00000  -0.00493  -0.00507   1.92760
   A32        1.95370  -0.00055   0.00000   0.00358   0.00354   1.95724
   A33        1.92807  -0.00398   0.00000  -0.03719  -0.03738   1.89070
   A34        1.88737  -0.00028   0.00000  -0.00240  -0.00284   1.88453
   A35        1.85932   0.00303   0.00000   0.02246   0.02246   1.88177
   A36        1.93963   0.00262   0.00000   0.03447   0.03431   1.97394
   A37        1.89528  -0.00091   0.00000  -0.02224  -0.02301   1.87227
   A38        1.86132  -0.00591   0.00000  -0.03512  -0.03512   1.82620
   A39        2.01516  -0.00414   0.00000  -0.02461  -0.02461   1.99055
    D1        1.77398  -0.00367   0.00000  -0.04313  -0.04320   1.73078
    D2       -2.68468  -0.00049   0.00000  -0.03911  -0.03913  -2.72381
    D3       -0.49281  -0.00050   0.00000  -0.02473  -0.02465  -0.51747
    D4       -2.92506  -0.00169   0.00000  -0.00844  -0.00858  -2.93363
    D5        0.23604  -0.00200   0.00000  -0.02105  -0.02115   0.21489
    D6        1.47602   0.00077   0.00000   0.00429   0.00429   1.48031
    D7       -1.64607   0.00046   0.00000  -0.00833  -0.00828  -1.65435
    D8       -0.66106   0.00131   0.00000   0.01675   0.01682  -0.64424
    D9        2.50003   0.00100   0.00000   0.00414   0.00425   2.50429
   D10        0.94328   0.00156   0.00000   0.01982   0.01984   0.96312
   D11       -1.14350   0.00118   0.00000   0.00465   0.00460  -1.13890
   D12        3.06600   0.00299   0.00000   0.02561   0.02552   3.09151
   D13        2.93085   0.00046   0.00000   0.00877   0.00884   2.93968
   D14        0.84406   0.00009   0.00000  -0.00641  -0.00641   0.83766
   D15       -1.22962   0.00189   0.00000   0.01455   0.01451  -1.21511
   D16       -1.23114  -0.00316   0.00000  -0.02722  -0.02713  -1.25827
   D17        2.96527  -0.00353   0.00000  -0.04240  -0.04237   2.92289
   D18        0.89158  -0.00173   0.00000  -0.02144  -0.02145   0.87012
   D19        3.08147  -0.00062   0.00000  -0.01843  -0.01876   3.06271
   D20        0.84223   0.00053   0.00000  -0.01372  -0.01342   0.82881
   D21       -1.12439  -0.00144   0.00000  -0.00296  -0.00293  -1.12732
   D22       -3.12073  -0.00005   0.00000  -0.00305  -0.00301  -3.12375
   D23        0.02678   0.00007   0.00000   0.00048   0.00052   0.02730
   D24        0.00063   0.00026   0.00000   0.00999   0.01001   0.01063
   D25       -3.13505   0.00038   0.00000   0.01351   0.01354  -3.12150
   D26        3.12217   0.00008   0.00000   0.00484   0.00493   3.12710
   D27       -0.02554   0.00000   0.00000   0.00277   0.00283  -0.02270
   D28        0.00005  -0.00018   0.00000  -0.00752  -0.00754  -0.00749
   D29        3.13553  -0.00025   0.00000  -0.00960  -0.00963   3.12589
   D30       -0.00022  -0.00016   0.00000  -0.00581  -0.00578  -0.00601
   D31       -3.14022   0.00002   0.00000   0.00009   0.00010  -3.14012
   D32        3.13543  -0.00028   0.00000  -0.00930  -0.00926   3.12617
   D33       -0.00457  -0.00010   0.00000  -0.00340  -0.00337  -0.00794
   D34       -0.00085  -0.00001   0.00000  -0.00067  -0.00067  -0.00151
   D35       -3.14002   0.00010   0.00000   0.00319   0.00319  -3.13684
   D36        3.13914  -0.00019   0.00000  -0.00659  -0.00657   3.13257
   D37       -0.00003  -0.00008   0.00000  -0.00273  -0.00272  -0.00275
   D38        0.00152   0.00009   0.00000   0.00318   0.00317   0.00469
   D39       -3.13958   0.00014   0.00000   0.00495   0.00495  -3.13463
   D40        3.14069  -0.00002   0.00000  -0.00069  -0.00069   3.14000
   D41       -0.00040   0.00003   0.00000   0.00109   0.00109   0.00069
   D42       -0.00112   0.00000   0.00000   0.00087   0.00087  -0.00025
   D43       -3.13637   0.00007   0.00000   0.00300   0.00302  -3.13336
   D44        3.13998  -0.00004   0.00000  -0.00091  -0.00091   3.13907
   D45        0.00472   0.00003   0.00000   0.00123   0.00124   0.00597
   D46       -1.30274  -0.00208   0.00000  -0.03802  -0.03804  -1.34078
   D47        2.91152  -0.00291   0.00000  -0.04394  -0.04377   2.86775
   D48        0.83962   0.00067   0.00000   0.00601   0.00582   0.84544
   D49        0.73438  -0.00048   0.00000  -0.01772  -0.01773   0.71664
   D50       -1.33455  -0.00130   0.00000  -0.02364  -0.02346  -1.35801
   D51        2.87674   0.00227   0.00000   0.02631   0.02613   2.90286
   D52        2.91049   0.00031   0.00000  -0.00778  -0.00777   2.90272
   D53        0.84156  -0.00051   0.00000  -0.01369  -0.01349   0.82807
   D54       -1.23033   0.00306   0.00000   0.03625   0.03609  -1.19424
   D55        0.90021   0.00153   0.00000   0.02065   0.02083   0.92104
   D56        3.00948  -0.00171   0.00000  -0.00837  -0.00854   3.00094
   D57       -1.21218   0.00043   0.00000  -0.00298  -0.00299  -1.21518
         Item               Value     Threshold  Converged?
 Maximum Force            0.012798     0.000450     NO 
 RMS     Force            0.004465     0.000300     NO 
 Maximum Displacement     0.151009     0.001800     NO 
 RMS     Displacement     0.034403     0.001200     NO 
 Predicted change in Energy=-4.317668D-03
 GradGradGradGradGradGradGradGradGradGradGradGradGradGradGradGradGradGrad

                          Input orientation:                          
 ---------------------------------------------------------------------
 Center     Atomic      Atomic             Coordinates (Angstroms)
 Number     Number       Type             X           Y           Z
 ---------------------------------------------------------------------
      1          7           0       -1.380103    0.597563   -1.385011
      2         16           0       -0.787329   -0.462046   -0.439315
      3          6           0        0.971774   -0.116130   -0.130061
      4          6           0        1.784627   -1.062768    0.490377
      5          6           0        3.122813   -0.753042    0.729891
      6          6           0        3.631686    0.488382    0.342549
      7          6           0        2.807571    1.423935   -0.286550
      8          6           0        1.466656    1.123906   -0.526657
      9          6           0       -1.466523    0.027179    1.180464
     10          6           0       -2.984815    0.096652    1.076973
     11          8           0       -3.414194    1.250170    0.426204
     12          7           0       -1.023890   -1.928498   -0.825734
     13          1           0       -1.408079    0.222118   -2.331365
     14          1           0        1.384929   -2.039498    0.778967
     15          1           0        3.772415   -1.486239    1.214400
     16          1           0        4.682426    0.725434    0.528169
     17          1           0        3.211379    2.391754   -0.593935
     18          1           0        0.792223    1.827712   -1.023476
     19          1           0       -1.038352    1.009280    1.428888
     20          1           0       -1.110456   -0.737402    1.887543
     21          1           0       -3.401394    0.110076    2.096955
     22          1           0       -3.338055   -0.836043    0.588805
     23          1           0       -2.917955    1.257795   -0.416143
     24          1           0       -0.555609   -2.599708   -0.216626
 ---------------------------------------------------------------------
                    Distance matrix (angstroms):
                    1          2          3          4          5
     1  N    0.000000
     2  S    1.538991   0.000000
     3  C    2.759635   1.819269   0.000000
     4  C    4.036000   2.800027   1.393484   0.000000
     5  C    5.154920   4.091568   2.402528   1.394288   0.000000
     6  C    5.302303   4.587191   2.768380   2.416516   1.396467
     7  C    4.407508   4.062458   2.401340   2.798878   2.423171
     8  C    3.019577   2.757412   1.392798   2.432490   2.800840
     9  C    2.629538   1.823275   2.771878   3.497740   4.676940
    10  C    2.981170   2.727676   4.142077   4.943271   6.176209
    11  O    2.800701   3.252880   4.627410   5.690479   6.843796
    12  N    2.611639   1.534849   2.784118   3.220156   4.582227
    13  H    1.018492   2.105531   3.259425   4.450453   5.554386
    14  H    4.391161   2.948096   2.167112   1.094095   2.162780
    15  H    6.135765   4.957319   3.395345   2.157507   1.092845
    16  H    6.358527   5.680172   3.861403   3.405339   2.158466
    17  H    4.992658   4.915053   3.394185   3.891668   3.413225
    18  H    2.522494   2.842396   2.146846   3.410497   3.894385
    19  H    2.864321   2.391233   2.781632   3.625383   4.572709
    20  H    3.544637   2.365270   2.965196   3.231013   4.388732
    21  H    4.055533   3.686913   4.912776   5.554410   6.721541
    22  H    3.128059   2.775447   4.428281   5.128642   6.462941
    23  H    1.933804   2.738240   4.135155   5.321755   6.468983
    24  H    3.502493   2.161686   2.916943   2.887688   4.223370
                    6          7          8          9         10
     6  C    0.000000
     7  C    1.396492   0.000000
     8  C    2.418009   1.394891   0.000000
     9  C    5.187152   4.729792   3.566596   0.000000
    10  C    6.668652   6.096934   4.841742   1.523399   0.000000
    11  O    7.087436   6.264868   4.974594   2.420338   1.392290
    12  N    5.374065   5.119532   3.950878   2.836446   3.400993
    13  H    5.711387   4.837079   3.512021   3.517721   3.757473
    14  H    3.410067   3.892891   3.423224   3.544451   4.873049
    15  H    2.163113   3.413633   3.893670   5.453262   6.941512
    16  H    1.093024   2.160266   3.407729   6.222750   7.712531
    17  H    2.162519   1.092804   2.157782   5.533758   6.815588
    18  H    3.423796   2.183512   1.094089   3.633346   4.655584
    19  H    4.822938   4.231523   3.179993   1.099803   2.178405
    20  H    5.135900   4.974836   3.991784   1.100604   2.205876
    21  H    7.258462   6.779274   5.622197   2.142558   1.101854
    22  H    7.098735   6.606244   5.307627   2.144258   1.110408
    23  H    6.638179   5.729402   4.388047   2.483994   1.892649
    24  H    5.232822   5.244575   4.248645   3.111618   3.852895
                   11         12         13         14         15
    11  O    0.000000
    12  N    4.169512   0.000000
    13  H    3.561682   2.653238   0.000000
    14  H    5.829060   2.896514   4.752890   0.000000
    15  H    7.730236   5.230897   6.506032   2.489134   0.000000
    16  H    8.114247   6.437270   6.747185   4.310596   2.488078
    17  H    6.800156   6.054404   5.391231   4.985657   4.315515
    18  H    4.486543   4.176898   3.021561   4.307599   4.987174
    19  H    2.589986   3.703250   3.859511   3.948384   5.423754
    20  H    3.375376   2.964469   4.336870   3.025118   4.985610
    21  H    2.022717   4.283740   4.857559   5.409866   7.402072
    22  H    2.093925   2.923994   3.656762   4.877606   7.167489
    23  H    0.977681   3.729304   2.649609   5.551148   7.412790
    24  H    4.838006   1.020207   3.627882   2.251828   4.692488
                   16         17         18         19         20
    16  H    0.000000
    17  H    2.489924   0.000000
    18  H    4.330854   2.520906   0.000000
    19  H    5.798204   4.905432   3.167795   0.000000
    20  H    6.127420   5.884523   4.321345   1.807336   0.000000
    21  H    8.257596   7.495045   5.502161   2.615119   2.451626
    22  H    8.171291   7.396799   5.172449   3.065875   2.580435
    23  H    7.677300   6.235881   3.802510   2.645526   3.543280
    24  H    6.248864   6.264763   4.697840   3.995692   2.864187
                   21         22         23         24
    21  H    0.000000
    22  H    1.781480   0.000000
    23  H    2.804752   2.360204   0.000000
    24  H    4.560053   3.391348   4.527783   0.000000
 Stoichiometry    C8H12N2OS
 Framework group  C1[X(C8H12N2OS)]
 Deg. of freedom    66
 Full point group                 C1      NOp   1
 Largest Abelian subgroup         C1      NOp   1
 Largest concise Abelian subgroup C1      NOp   1
                         Standard orientation:                         
 ---------------------------------------------------------------------
 Center     Atomic      Atomic             Coordinates (Angstroms)
 Number     Number       Type             X           Y           Z
 ---------------------------------------------------------------------
      1          7           0       -1.363914   -0.760601    1.332882
      2         16           0       -0.777276    0.406964    0.519777
      3          6           0        0.979580    0.102385    0.158627
      4          6           0        1.788471    1.118193   -0.346968
      5          6           0        3.124905    0.840782   -0.631621
      6          6           0        3.636036   -0.438401   -0.402373
      7          6           0        2.815944   -1.444271    0.113249
      8          6           0        1.476782   -1.176560    0.397324
      9          6           0       -1.467621    0.119006   -1.143003
     10          6           0       -2.985194    0.036588   -1.038472
     11          8           0       -3.410476   -1.188049   -0.530663
     12          7           0       -1.010769    1.815067    1.084123
     13          1           0       -1.385339   -0.503647    2.318195
     14          1           0        1.387107    2.122656   -0.511300
     15          1           0        3.771411    1.628048   -1.027287
     16          1           0        4.685418   -0.650424   -0.622703
     17          1           0        3.221548   -2.442186    0.297295
     18          1           0        0.805538   -1.936172    0.808968
     19          1           0       -1.041441   -0.825139   -1.512496
     20          1           0       -1.116148    0.964465   -1.753736
     21          1           0       -3.408708    0.147699   -2.049596
     22          1           0       -3.334829    0.902438   -0.437584
     23          1           0       -2.908519   -1.298299    0.301049
     24          1           0       -0.546446    2.555942    0.558451
 ---------------------------------------------------------------------
 Rotational constants (GHZ):           1.7431140           0.4943707           0.4636957
 Standard basis: def2SVP (5D, 7F)
 There are   244 symmetry adapted cartesian basis functions of A   symmetry.
 There are   232 symmetry adapted basis functions of A   symmetry.
   232 basis functions,   396 primitive gaussians,   244 cartesian basis functions
    49 alpha electrons       49 beta electrons
       nuclear repulsion energy       831.0672384983 Hartrees.
 NAtoms=   24 NActive=   24 NUniq=   24 SFac= 1.00D+00 NAtFMM=   60 NAOKFM=F Big=F
 Integral buffers will be    131072 words long.
 Raffenetti 2 integral format.
 Two-electron integral symmetry is turned on.
 Nuclear repulsion after empirical dispersion term =      831.0404264002 Hartrees.
 One-electron integrals computed using PRISM.
   1 Symmetry operations used in ECPInt.
 ECPInt:  NShTT=    6105 NPrTT=   22357 LenC2=    5876 LenP2D=   16157.
 LDataN:  DoStor=T MaxTD1= 4 Len=   56
 NBasis=   232 RedAO= T EigKep=  2.90D-04  NBF=   232
 NBsUse=   232 1.00D-06 EigRej= -1.00D+00 NBFU=   232
 Initial guess from the checkpoint file:  "SDI0054_1.chk"
 B after Tr=    -0.000000    0.000000   -0.000000
         Rot=    0.999868   -0.016029   -0.001948    0.001814 Ang=  -1.86 deg.
 ExpMin= 1.22D-01 ExpMax= 9.18D+03 ExpMxC= 1.38D+03 IAcc=3 IRadAn=         5 AccDes= 0.00D+00
 Harris functional with IExCor= 1009 and IRadAn=       5 diagonalized for initial guess.
 HarFok:  IExCor= 1009 AccDes= 0.00D+00 IRadAn=         5 IDoV= 1 UseB2=F ITyADJ=14
 ICtDFT=  3500011 ScaDFX=  1.000000  1.000000  1.000000  1.000000
 FoFCou: FMM=F IPFlag=           0 FMFlag=      100000 FMFlg1=           0
         NFxFlg=           0 DoJE=T BraDBF=F KetDBF=T FulRan=T
         wScrn=  0.000000 ICntrl=       500 IOpCl=  0 I1Cent=   200000004 NGrid=           0
         NMat0=    1 NMatS0=      1 NMatT0=    0 NMatD0=    1 NMtDS0=    0 NMtDT0=    0
 Petite list used in FoFCou.
 Requested convergence on RMS density matrix=1.00D-08 within 128 cycles.
 Requested convergence on MAX density matrix=1.00D-06.
 Requested convergence on             energy=1.00D-06.
 No special actions if energy rises.
 Integral accuracy reduced to 1.0D-05 until final iterations.
 Initial convergence to 1.0D-05 achieved.  Increase integral accuracy.
 SCF Done:  E(RPBE1PBE) =  -893.681153675     A.U. after   12 cycles
            NFock= 12  Conv=0.56D-08     -V/T= 2.0064
   1 Symmetry operations used in ECPInt.
 ECPInt:  NShTT=    6105 NPrTT=   22357 LenC2=    5876 LenP2D=   16157.
 LDataN:  DoStor=T MaxTD1= 5 Len=  102
 Calling FoFJK, ICntrl=      2127 FMM=F ISym2X=0 I1Cent= 0 IOpClX= 0 NMat=1 NMatS=1 NMatT=0.
 ***** Axes restored to original set *****
 -------------------------------------------------------------------
 Center     Atomic                   Forces (Hartrees/Bohr)
 Number     Number              X              Y              Z
 -------------------------------------------------------------------
      1        7          -0.008489669    0.006493544   -0.003412549
      2       16           0.007766258   -0.002861091    0.013387380
      3        6          -0.000958953   -0.000615922   -0.001462315
      4        6           0.000745458    0.000772531   -0.000127286
      5        6          -0.000735933    0.000280161   -0.000314361
      6        6          -0.000694078    0.000331696   -0.000397416
      7        6           0.000230565   -0.001404024    0.000492979
      8        6           0.001113473   -0.000438808    0.000500786
      9        6          -0.000105747   -0.000778523   -0.004526748
     10        6          -0.001214732    0.004179512   -0.000878155
     11        8           0.001899226   -0.003175370    0.000699730
     12        7          -0.003637075   -0.002449466   -0.002672646
     13        1           0.002603417   -0.001046177   -0.002682000
     14        1           0.000586141    0.000492051   -0.000153444
     15        1          -0.000102279    0.000278205   -0.000126280
     16        1          -0.000395059   -0.000022333   -0.000033595
     17        1           0.000007285   -0.000263124    0.000028077
     18        1           0.000187739   -0.000589106    0.000461029
     19        1          -0.000003164   -0.000274263    0.001001335
     20        1           0.000498279    0.000186086    0.000138861
     21        1          -0.000050414   -0.001219554    0.000553270
     22        1          -0.000438200   -0.000307038    0.000452398
     23        1          -0.000109437    0.000621217   -0.001188427
     24        1           0.001296900    0.001809797    0.000259375
 -------------------------------------------------------------------
 Cartesian Forces:  Max     0.013387380 RMS     0.002614361

 GradGradGradGradGradGradGradGradGradGradGradGradGradGradGradGradGradGrad
 Berny optimization.
 Using GEDIIS/GDIIS optimizer.
 FormGI is forming the generalized inverse of G from B-inverse, IUseBI=4.
 Internal  Forces:  Max     0.009762084 RMS     0.001275811
 Search for a local minimum.
 Step number   2 out of a maximum of  130
 All quantities printed in internal units (Hartrees-Bohrs-Radians)
 Mixed Optimization -- RFO/linear search
 Update second derivatives using D2CorX and points    1    2
 DE= -4.36D-03 DEPred=-4.32D-03 R= 1.01D+00
 TightC=F SS=  1.41D+00  RLast= 2.17D-01 DXNew= 5.0454D-01 6.4980D-01
 Trust test= 1.01D+00 RLast= 2.17D-01 DXMaxT set to 5.05D-01
 ITU=  1  0
 Use linear search instead of GDIIS.
     Eigenvalues ---    0.00230   0.00230   0.00441   0.01514   0.01749
     Eigenvalues ---    0.02276   0.02279   0.02280   0.02285   0.02295
     Eigenvalues ---    0.02309   0.02316   0.02333   0.03386   0.03557
     Eigenvalues ---    0.04052   0.04877   0.05022   0.06045   0.07314
     Eigenvalues ---    0.07663   0.07719   0.09544   0.11513   0.11566
     Eigenvalues ---    0.13868   0.14824   0.15999   0.15999   0.16000
     Eigenvalues ---    0.16000   0.16000   0.16000   0.16209   0.16533
     Eigenvalues ---    0.19196   0.21871   0.21999   0.22005   0.22075
     Eigenvalues ---    0.22208   0.23612   0.23863   0.24989   0.29912
     Eigenvalues ---    0.33412   0.34217   0.35124   0.35207   0.35972
     Eigenvalues ---    0.36025   0.36027   0.36045   0.36766   0.43688
     Eigenvalues ---    0.43848   0.45506   0.46480   0.46839   0.48073
     Eigenvalues ---    0.48283   0.48772   0.50596   0.52065   0.66618
     Eigenvalues ---    0.68233
 RFO step:  Lambda=-1.08945388D-03 EMin= 2.29912492D-03
 Quartic linear search produced a step of  0.06059.
 Iteration  1 RMS(Cart)=  0.03117224 RMS(Int)=  0.00047003
 Iteration  2 RMS(Cart)=  0.00061463 RMS(Int)=  0.00002331
 Iteration  3 RMS(Cart)=  0.00000035 RMS(Int)=  0.00002331
 Variable       Old X    -DE/DX   Delta X   Delta X   Delta X     New X
                                 (Linear)    (Quad)   (Total)
    R1        2.90827   0.00976   0.00095   0.01646   0.01740   2.92567
    R2        1.92467   0.00281   0.00143   0.00805   0.00948   1.93415
    R3        3.43792  -0.00043  -0.00138  -0.00350  -0.00488   3.43304
    R4        3.44549  -0.00372  -0.00270  -0.02036  -0.02307   3.42242
    R5        2.90044   0.00158   0.00068   0.00326   0.00394   2.90439
    R6        2.63330  -0.00041   0.00141   0.00083   0.00224   2.63554
    R7        2.63201  -0.00104   0.00132  -0.00065   0.00067   2.63268
    R8        2.63482  -0.00113   0.00102  -0.00127  -0.00026   2.63456
    R9        2.06754  -0.00069   0.00158  -0.00019   0.00139   2.06893
   R10        2.63894  -0.00122   0.00123  -0.00127  -0.00004   2.63890
   R11        2.06518  -0.00030   0.00150   0.00087   0.00237   2.06755
   R12        2.63899  -0.00189   0.00120  -0.00282  -0.00162   2.63736
   R13        2.06552  -0.00039   0.00152   0.00064   0.00216   2.06767
   R14        2.63596  -0.00073   0.00120  -0.00019   0.00101   2.63697
   R15        2.06510  -0.00024   0.00152   0.00108   0.00261   2.06771
   R16        2.06753  -0.00070   0.00165  -0.00012   0.00153   2.06906
   R17        2.87881  -0.00006  -0.00016  -0.00038  -0.00054   2.87827
   R18        2.07833  -0.00002   0.00150   0.00169   0.00319   2.08152
   R19        2.07984   0.00012   0.00153   0.00215   0.00368   2.08352
   R20        2.63105  -0.00244  -0.00038  -0.00601  -0.00639   2.62466
   R21        2.08220   0.00052   0.00081   0.00254   0.00334   2.08554
   R22        2.09837   0.00020   0.00092   0.00171   0.00263   2.10100
   R23        1.84755   0.00097   0.00008   0.00207   0.00215   1.84970
   R24        1.92791  -0.00044   0.00163   0.00093   0.00256   1.93047
    A1        1.90471  -0.00203  -0.00457  -0.01856  -0.02312   1.88159
    A2        1.92407   0.00111  -0.00064   0.00970   0.00906   1.93314
    A3        1.79024  -0.00067  -0.00084  -0.00573  -0.00669   1.78354
    A4        2.03058  -0.00122   0.00284  -0.01572  -0.01289   2.01770
    A5        1.72962   0.00170   0.00075   0.01895   0.01967   1.74929
    A6        1.95357  -0.00076  -0.00214  -0.00376  -0.00595   1.94761
    A7        2.00713   0.00035  -0.00021   0.00216   0.00189   2.00902
    A8        2.10662   0.00026  -0.00070   0.00023  -0.00048   2.10614
    A9        2.05381   0.00084   0.00025   0.00379   0.00403   2.05783
   A10        2.12274  -0.00110   0.00046  -0.00398  -0.00353   2.11921
   A11        2.07765   0.00050  -0.00024   0.00219   0.00195   2.07960
   A12        2.10691   0.00010   0.00054   0.00171   0.00225   2.10916
   A13        2.09858  -0.00060  -0.00030  -0.00392  -0.00423   2.09436
   A14        2.09389   0.00012   0.00003   0.00044   0.00047   2.09436
   A15        2.09165   0.00005  -0.00005   0.00046   0.00040   2.09205
   A16        2.09762  -0.00017   0.00003  -0.00091  -0.00089   2.09673
   A17        2.10071  -0.00025   0.00002  -0.00150  -0.00148   2.09923
   A18        2.08978   0.00017  -0.00002   0.00104   0.00102   2.09080
   A19        2.09268   0.00008  -0.00000   0.00046   0.00046   2.09314
   A20        2.09525   0.00026   0.00027   0.00126   0.00152   2.09678
   A21        2.09666  -0.00022  -0.00006  -0.00112  -0.00117   2.09549
   A22        2.09127  -0.00004  -0.00021  -0.00014  -0.00035   2.09092
   A23        2.07607   0.00047  -0.00053   0.00157   0.00104   2.07711
   A24        2.07487  -0.00053   0.00039  -0.00258  -0.00219   2.07268
   A25        2.13221   0.00006   0.00014   0.00100   0.00114   2.13335
   A26        1.89985  -0.00103   0.00069  -0.00289  -0.00221   1.89764
   A27        1.87051   0.00063   0.00058   0.00428   0.00485   1.87536
   A28        1.83778   0.00032  -0.00238   0.00064  -0.00174   1.83605
   A29        1.94189   0.00001   0.00019  -0.00219  -0.00200   1.93988
   A30        1.97987   0.00062   0.00112   0.00704   0.00817   1.98804
   A31        1.92760  -0.00053  -0.00031  -0.00673  -0.00704   1.92056
   A32        1.95724  -0.00099   0.00021  -0.00320  -0.00299   1.95426
   A33        1.89070  -0.00019  -0.00226  -0.00256  -0.00485   1.88584
   A34        1.88453   0.00058  -0.00017  -0.00008  -0.00029   1.88424
   A35        1.88177   0.00130   0.00136   0.01628   0.01764   1.89941
   A36        1.97394  -0.00009   0.00208  -0.00150   0.00057   1.97451
   A37        1.87227  -0.00062  -0.00139  -0.00935  -0.01082   1.86145
   A38        1.82620   0.00164  -0.00213   0.00835   0.00622   1.83242
   A39        1.99055  -0.00383  -0.00149  -0.02691  -0.02840   1.96215
    D1        1.73078  -0.00252  -0.00262  -0.05613  -0.05876   1.67202
    D2       -2.72381  -0.00056  -0.00237  -0.03435  -0.03679  -2.76060
    D3       -0.51747  -0.00141  -0.00149  -0.04614  -0.04756  -0.56503
    D4       -2.93363   0.00064  -0.00052   0.02096   0.02050  -2.91313
    D5        0.21489   0.00054  -0.00128   0.01391   0.01268   0.22757
    D6        1.48031   0.00032   0.00026   0.01631   0.01651   1.49682
    D7       -1.65435   0.00023  -0.00050   0.00926   0.00869  -1.64566
    D8       -0.64424  -0.00072   0.00102   0.00460   0.00563  -0.63861
    D9        2.50429  -0.00082   0.00026  -0.00245  -0.00219   2.50210
   D10        0.96312  -0.00139   0.00120  -0.04003  -0.03882   0.92431
   D11       -1.13890  -0.00118   0.00028  -0.03827  -0.03798  -1.17688
   D12        3.09151  -0.00103   0.00155  -0.03287  -0.03131   3.06020
   D13        2.93968   0.00014   0.00054  -0.02540  -0.02490   2.91478
   D14        0.83766   0.00034  -0.00039  -0.02364  -0.02406   0.81359
   D15       -1.21511   0.00050   0.00088  -0.01824  -0.01740  -1.23251
   D16       -1.25827   0.00045  -0.00164  -0.01705  -0.01867  -1.27693
   D17        2.92289   0.00065  -0.00257  -0.01529  -0.01783   2.90506
   D18        0.87012   0.00081  -0.00130  -0.00989  -0.01116   0.85896
   D19        3.06271  -0.00008  -0.00114  -0.01149  -0.01261   3.05010
   D20        0.82881   0.00014  -0.00081  -0.00772  -0.00857   0.82024
   D21       -1.12732  -0.00172  -0.00018  -0.03057  -0.03072  -1.15805
   D22       -3.12375  -0.00010  -0.00018  -0.00536  -0.00553  -3.12927
   D23        0.02730  -0.00005   0.00003  -0.00312  -0.00307   0.02424
   D24        0.01063   0.00001   0.00061   0.00201   0.00261   0.01324
   D25       -3.12150   0.00006   0.00082   0.00425   0.00507  -3.11643
   D26        3.12710   0.00016   0.00030   0.00834   0.00865   3.13574
   D27       -0.02270   0.00013   0.00017   0.00700   0.00718  -0.01552
   D28       -0.00749   0.00006  -0.00046   0.00120   0.00075  -0.00675
   D29        3.12589   0.00003  -0.00058  -0.00014  -0.00072   3.12517
   D30       -0.00601  -0.00006  -0.00035  -0.00300  -0.00335  -0.00935
   D31       -3.14012  -0.00002   0.00001  -0.00085  -0.00084  -3.14096
   D32        3.12617  -0.00010  -0.00056  -0.00520  -0.00575   3.12042
   D33       -0.00794  -0.00006  -0.00020  -0.00305  -0.00324  -0.01118
   D34       -0.00151   0.00002  -0.00004   0.00078   0.00074  -0.00077
   D35       -3.13684   0.00001   0.00019   0.00076   0.00095  -3.13589
   D36        3.13257  -0.00002  -0.00040  -0.00137  -0.00177   3.13081
   D37       -0.00275  -0.00003  -0.00016  -0.00140  -0.00156  -0.00431
   D38        0.00469   0.00005   0.00019   0.00247   0.00266   0.00735
   D39       -3.13463   0.00002   0.00030   0.00148   0.00178  -3.13284
   D40        3.14000   0.00006  -0.00004   0.00250   0.00245  -3.14073
   D41        0.00069   0.00003   0.00007   0.00151   0.00158   0.00226
   D42       -0.00025  -0.00008   0.00005  -0.00342  -0.00337  -0.00362
   D43       -3.13336  -0.00005   0.00018  -0.00202  -0.00183  -3.13519
   D44        3.13907  -0.00006  -0.00006  -0.00243  -0.00249   3.13658
[...]
 Alpha virt. eigenvalues --    2.41700   2.42467   2.45020   2.47041   2.47950
 Alpha virt. eigenvalues --    2.49241   2.51196   2.52345   2.53077   2.55412
 Alpha virt. eigenvalues --    2.57347   2.57685   2.58903   2.59128   2.61907
 Alpha virt. eigenvalues --    2.62231   2.63841   2.64243   2.65525   2.66181
 Alpha virt. eigenvalues --    2.66675   2.67397   2.68543   2.69391   2.70059
 Alpha virt. eigenvalues --    2.72783   2.72922   2.75454   2.76441   2.76902
 Alpha virt. eigenvalues --    2.78061   2.78748   2.79333   2.81395   2.82486
 Alpha virt. eigenvalues --    2.83349   2.83751   2.86011   2.87217   2.89229
 Alpha virt. eigenvalues --    2.91118   2.92660   2.94149   2.94936   2.98071
 Alpha virt. eigenvalues --    2.99539   3.01755   3.04656   3.05136   3.08408
 Alpha virt. eigenvalues --    3.08873   3.10951   3.11645   3.12026   3.12550
 Alpha virt. eigenvalues --    3.13791   3.14772   3.16074   3.16470   3.18284
 Alpha virt. eigenvalues --    3.18630   3.22012   3.22739   3.24834   3.24905
 Alpha virt. eigenvalues --    3.25668   3.26306   3.28180   3.30666   3.32001
 Alpha virt. eigenvalues --    3.33540   3.34322   3.34835   3.35673   3.36263
 Alpha virt. eigenvalues --    3.39203   3.40101   3.42005   3.42887   3.43916
 Alpha virt. eigenvalues --    3.46359   3.47740   3.48911   3.49595   3.50983
 Alpha virt. eigenvalues --    3.53523   3.54028   3.54276   3.56436   3.60718
 Alpha virt. eigenvalues --    3.66144   3.67766   3.68898   3.73475   3.73872
 Alpha virt. eigenvalues --    3.75069   3.78288   3.80621   3.82975   3.85369
 Alpha virt. eigenvalues --    3.90629   3.92670   3.95755   3.97143   3.98475
 Alpha virt. eigenvalues --    3.99589   4.03245   4.03758   4.05595   4.07914
 Alpha virt. eigenvalues --    4.09721   4.10368   4.12717   4.15640   4.16090
 Alpha virt. eigenvalues --    4.18399   4.19442   4.20204   4.21210   4.22703
 Alpha virt. eigenvalues --    4.23876   4.24992   4.25702   4.29962   4.31992
 Alpha virt. eigenvalues --    4.33113   4.35364   4.36914   4.37729   4.40839
 Alpha virt. eigenvalues --    4.48228   4.49589   4.51219   4.55239   4.58358
 Alpha virt. eigenvalues --    4.60609   4.61884   4.63102   4.66649   4.67399
 Alpha virt. eigenvalues --    4.69897   4.71574   4.75255   4.81526   4.83193
 Alpha virt. eigenvalues --    4.84800   4.87341   4.90663   4.91850   4.94904
 Alpha virt. eigenvalues --    5.02414   5.05547   5.12091   5.14854   5.17578
 Alpha virt. eigenvalues --    5.18704   5.22214   5.24615   5.27139   5.32502
 Alpha virt. eigenvalues --    5.33873   5.38261   5.42365   5.50119   5.56013
 Alpha virt. eigenvalues --    5.56409   5.59714   5.78419   5.85390   6.01957
 Alpha virt. eigenvalues --    6.32257   6.51574   6.76687   6.82812   7.02740
 Alpha virt. eigenvalues --    7.21068   9.46856   9.55048   9.57495  21.78165
 Alpha virt. eigenvalues --   22.02650  22.43626  22.55040  22.61632  22.63123
 Alpha virt. eigenvalues --   22.71842  22.81699  23.14916  31.91413  31.97735
 Alpha virt. eigenvalues --   43.95689
          Condensed to atoms (all electrons):
               1          2          3          4          5          6
     1  N    7.074781   0.446330  -0.110215   0.025202  -0.001367   0.000826
     2  S    0.446330  14.134218   0.161837   0.032885   0.007991   0.001757
     3  C   -0.110215   0.161837   5.530715   0.151760   0.027083  -0.100630
     4  C    0.025202   0.032885   0.151760   5.272587   0.415179   0.036780
     5  C   -0.001367   0.007991   0.027083   0.415179   4.918372   0.465864
     6  C    0.000826   0.001757  -0.100630   0.036780   0.465864   4.857581
     7  C   -0.003621   0.002145   0.029417  -0.080086   0.014534   0.481782
     8  C    0.013925  -0.023469   0.402217  -0.043629  -0.076723   0.017307
     9  C   -0.120645   0.290665  -0.016850  -0.015067  -0.002067  -0.000128
    10  C    0.034479   0.001005   0.001260   0.003280   0.000170  -0.000015
    11  O   -0.037757  -0.019425  -0.001473   0.000128  -0.000004   0.000001
    12  N   -0.082017   0.464177  -0.020706  -0.013331   0.001860  -0.000169
    13  H    0.314278  -0.018277   0.006119  -0.000574   0.000010  -0.000045
    14  H    0.001472   0.014060  -0.117909   0.440860  -0.027896   0.011061
    15  H   -0.000002  -0.000413   0.013659  -0.048311   0.417685  -0.047405
    16  H    0.000002   0.000021  -0.001776   0.010849  -0.047983   0.420750
    17  H   -0.000058  -0.000252   0.010898  -0.002037   0.010134  -0.049673
    18  H    0.027614  -0.005285  -0.053400   0.009686  -0.002846   0.009041
    19  H    0.003254  -0.019046  -0.001892   0.004637  -0.000057   0.000212
    20  H    0.007212  -0.016154  -0.008279   0.002100   0.000292   0.000066
    21  H    0.000361   0.004797  -0.000275  -0.000017  -0.000000   0.000000
    22  H   -0.000880  -0.003421   0.001565  -0.000292  -0.000019   0.000003
    23  H    0.033524  -0.006375  -0.000197  -0.000168  -0.000004   0.000003
    24  H    0.006880   0.008028  -0.022499   0.015397   0.003648  -0.000294
               7          8          9         10         11         12
     1  N   -0.003621   0.013925  -0.120645   0.034479  -0.037757  -0.082017
     2  S    0.002145  -0.023469   0.290665   0.001005  -0.019425   0.464177
     3  C    0.029417   0.402217  -0.016850   0.001260  -0.001473  -0.020706
     4  C   -0.080086  -0.043629  -0.015067   0.003280   0.000128  -0.013331
     5  C    0.014534  -0.076723  -0.002067   0.000170  -0.000004   0.001860
     6  C    0.481782   0.017307  -0.000128  -0.000015   0.000001  -0.000169
     7  C    4.910611   0.430508  -0.001025   0.000029  -0.000008  -0.000748
     8  C    0.430508   5.057041   0.003226  -0.001825   0.000184   0.013034
     9  C   -0.001025   0.003226   5.251734   0.275617  -0.036308  -0.036759
    10  C    0.000029  -0.001825   0.275617   4.689629   0.321184  -0.009846
    11  O   -0.000008   0.000184  -0.036308   0.321184   7.981237  -0.000428
    12  N   -0.000748   0.013034  -0.036759  -0.009846  -0.000428   6.909723
    13  H    0.000069  -0.002317   0.010061  -0.001771   0.001498  -0.001172
    14  H   -0.001957   0.007694  -0.004199   0.000515   0.000008  -0.000038
    15  H    0.008170  -0.000472   0.000102  -0.000003   0.000000   0.000045
    16  H   -0.047660   0.009372   0.000005  -0.000000   0.000000  -0.000000
    17  H    0.423356  -0.048192   0.000056  -0.000001   0.000000   0.000009
    18  H   -0.057075   0.428786   0.000279  -0.000338  -0.000082   0.001701
    19  H   -0.000029  -0.003448   0.364602  -0.013824   0.003546   0.003609
    20  H    0.000002   0.002029   0.347155  -0.008548   0.006512  -0.002157
    21  H   -0.000001  -0.000064  -0.024023   0.385631  -0.040237  -0.000241
    22  H    0.000007  -0.000013  -0.064417   0.409824  -0.044018   0.011518
    23  H   -0.000006   0.000255   0.001881  -0.039394   0.311707   0.000986
    24  H    0.000343  -0.004945  -0.007102   0.001801  -0.000006   0.301324
              13         14         15         16         17         18
     1  N    0.314278   0.001472  -0.000002   0.000002  -0.000058   0.027614
     2  S   -0.018277   0.014060  -0.000413   0.000021  -0.000252  -0.005285
     3  C    0.006119  -0.117909   0.013659  -0.001776   0.010898  -0.053400
     4  C   -0.000574   0.440860  -0.048311   0.010849  -0.002037   0.009686
     5  C    0.000010  -0.027896   0.417685  -0.047983   0.010134  -0.002846
     6  C   -0.000045   0.011061  -0.047405   0.420750  -0.049673   0.009041
     7  C    0.000069  -0.001957   0.008170  -0.047660   0.423356  -0.057075
     8  C   -0.002317   0.007694  -0.000472   0.009372  -0.048192   0.428786
     9  C    0.010061  -0.004199   0.000102   0.000005   0.000056   0.000279
    10  C   -0.001771   0.000515  -0.000003  -0.000000  -0.000001  -0.000338
    11  O    0.001498   0.000008   0.000000   0.000000   0.000000  -0.000082
    12  N   -0.001172  -0.000038   0.000045  -0.000000   0.000009   0.001701
    13  H    0.461673  -0.000080   0.000001   0.000000   0.000015  -0.002566
    14  H   -0.000080   0.548375  -0.008178  -0.000265   0.000058  -0.000119
    15  H    0.000001  -0.008178   0.542029  -0.006775  -0.000216   0.000066
    16  H    0.000000  -0.000265  -0.006775   0.540865  -0.007210  -0.000129
    17  H    0.000015   0.000058  -0.000216  -0.007210   0.537645  -0.005927
    18  H   -0.002566  -0.000119   0.000066  -0.000129  -0.005927   0.483536
    19  H   -0.000681   0.000557  -0.000017  -0.000001  -0.000011   0.000148
    20  H   -0.000429   0.001715  -0.000025  -0.000000   0.000000   0.000035
    21  H    0.000107   0.000003   0.000000  -0.000000   0.000000  -0.000000
    22  H   -0.000222  -0.000009  -0.000000   0.000000  -0.000000  -0.000024
    23  H   -0.000089  -0.000008   0.000000   0.000000  -0.000001   0.000249
    24  H    0.000289   0.004223  -0.000028  -0.000003   0.000004  -0.000283
              19         20         21         22         23         24
     1  N    0.003254   0.007212   0.000361  -0.000880   0.033524   0.006880
     2  S   -0.019046  -0.016154   0.004797  -0.003421  -0.006375   0.008028
     3  C   -0.001892  -0.008279  -0.000275   0.001565  -0.000197  -0.022499
     4  C    0.004637   0.002100  -0.000017  -0.000292  -0.000168   0.015397
     5  C   -0.000057   0.000292  -0.000000  -0.000019  -0.000004   0.003648
     6  C    0.000212   0.000066   0.000000   0.000003   0.000003  -0.000294
     7  C   -0.000029   0.000002  -0.000001   0.000007  -0.000006   0.000343
     8  C   -0.003448   0.002029  -0.000064  -0.000013   0.000255  -0.004945
     9  C    0.364602   0.347155  -0.024023  -0.064417   0.001881  -0.007102
    10  C   -0.013824  -0.008548   0.385631   0.409824  -0.039394   0.001801
    11  O    0.003546   0.006512  -0.040237  -0.044018   0.311707  -0.000006
    12  N    0.003609  -0.002157  -0.000241   0.011518   0.000986   0.301324
    13  H   -0.000681  -0.000429   0.000107  -0.000222  -0.000089   0.000289
    14  H    0.000557   0.001715   0.000003  -0.000009  -0.000008   0.004223
    15  H   -0.000017  -0.000025   0.000000  -0.000000   0.000000  -0.000028
    16  H   -0.000001  -0.000000  -0.000000   0.000000   0.000000  -0.000003
    17  H   -0.000011   0.000000   0.000000  -0.000000  -0.000001   0.000004
    18  H    0.000148   0.000035  -0.000000  -0.000024   0.000249  -0.000283
    19  H    0.533961  -0.018117  -0.010545   0.009631  -0.002436  -0.000095
    20  H   -0.018117   0.565543  -0.006454   0.006770  -0.000405   0.000529
    21  H   -0.010545  -0.006454   0.628323  -0.053232   0.009102   0.000038
    22  H    0.009631   0.006770  -0.053232   0.619641  -0.005679  -0.000583
    23  H   -0.002436  -0.000405   0.009102  -0.005679   0.358873  -0.000096
    24  H   -0.000095   0.000529   0.000038  -0.000583  -0.000096   0.481777
 Mulliken charges:
               1
     1  N   -0.633579
     2  S    0.542199
     3  C    0.119571
     4  C   -0.217819
     5  C   -0.123854
     6  C   -0.104675
     7  C   -0.108756
     8  C   -0.180481
     9  C   -0.216792
    10  C   -0.048858
    11  O   -0.446260
    12  N   -0.540375
    13  H    0.234102
    14  H    0.130056
    15  H    0.130087
    16  H    0.129941
    17  H    0.131401
    18  H    0.166934
    19  H    0.146044
    20  H    0.120608
    21  H    0.106728
    22  H    0.113849
    23  H    0.338277
    24  H    0.211652
 Sum of Mulliken charges =  -0.00000
 Mulliken charges with hydrogens summed into heavy atoms:
               1
     1  N   -0.399477
     2  S    0.542199
     3  C    0.119571
     4  C   -0.087763
     5  C    0.006233
     6  C    0.025266
     7  C    0.022645
     8  C   -0.013547
     9  C    0.049860
    10  C    0.171719
    11  O   -0.107983
    12  N   -0.328723
 Electronic spatial extent (au):  <R**2>=           2569.8127
 Charge=              0.0000 electrons
 Dipole moment (field-independent basis, Debye):
    X=              5.4351    Y=              1.2593    Z=             -1.7594  Tot=              5.8499
 Quadrupole moment (field-independent basis, Debye-Ang):
   XX=            -83.2415   YY=            -76.7239   ZZ=            -80.7517
   XY=             -4.2705   XZ=             -0.2017   YZ=             -6.9677
 Traceless Quadrupole moment (field-independent basis, Debye-Ang):
   XX=             -3.0025   YY=              3.5151   ZZ=             -0.5127
   XY=             -4.2705   XZ=             -0.2017   YZ=             -6.9677
 Octapole moment (field-independent basis, Debye-Ang**2):
  XXX=             69.5943  YYY=              2.4981  ZZZ=              0.9643  XYY=             18.8306
  XXY=             13.8326  XXZ=             -7.5738  XZZ=            -13.0790  YZZ=             -6.5616
  YYZ=             -2.0702  XYZ=              9.4978
 Hexadecapole moment (field-independent basis, Debye-Ang**3):
 XXXX=          -2498.9167 YYYY=           -509.8503 ZZZZ=           -383.3346 XXXY=            -84.1446
 XXXZ=            -69.8996 YYYX=             10.3099 YYYZ=            -12.0900 ZZZX=             17.7024
 ZZZY=            -23.3282 XXYY=           -504.5632 XXZZ=           -497.4613 YYZZ=           -166.0703
 XXYZ=            -46.5015 YYXZ=              0.2493 ZZXY=             14.0375
 N-N= 8.307018860574D+02 E-N=-3.763150073218D+03  KE= 8.911508337575D+02
 Breneman (CHELPG) radii used.
 Read replacement radii for each type of atom:
 Atom Element Radius
    1     7    1.70
    2    16    2.00
    3     6    1.50
    4     6    1.50
    5     6    1.50
    6     6    1.50
    7     6    1.50
    8     6    1.50
    9     6    1.50
   10     6    1.50
   11     8    1.70
   12     7    1.70
   13     1    1.45
   14     1    1.45
   15     1    1.45
   16     1    1.45
   17     1    1.45
   18     1    1.45
   19     1    1.45
   20     1    1.45
   21     1    1.45
   22     1    1.45
   23     1    1.45
   24     1    1.45
 Generate Potential Derived Charges using the Breneman model, NDens= 1.
 Grid spacing= 0.300 Box extension= 2.800
 NStep X,Y,Z=   47     36     34   Total possible points=       57528
 Number of Points to Fit=   15049

 **********************************************************************

            Electrostatic Properties Using The SCF Density.

 **********************************************************************

       Atomic Center    1 is at  -1.393799 -0.976788  1.169407
       Atomic Center    2 is at  -0.769687  0.303536  0.549513
       Atomic Center    3 is at   0.983343  0.075994  0.143650
       Atomic Center    4 is at   1.767397  1.141399 -0.298533
       Atomic Center    5 is at   3.109837  0.917913 -0.593243
       Atomic Center    6 is at   3.656611 -0.357073 -0.438591
       Atomic Center    7 is at   2.862406 -1.413186  0.005421
       Atomic Center    8 is at   1.515051 -1.200698  0.294546
       Atomic Center    9 is at  -1.503384  0.290291 -1.105658
       Atomic Center   10 is at  -3.022495  0.215565 -0.986781
       Atomic Center   11 is at  -3.464829 -1.054690 -0.652992
       Atomic Center   12 is at  -0.978158  1.608535  1.342213
       Atomic Center   13 is at  -1.238111 -0.935181  2.179766
       Atomic Center   14 is at   1.342813  2.142172 -0.416783
       Atomic Center   15 is at   3.733951  1.743829 -0.942011
       Atomic Center   16 is at   4.711450 -0.526558 -0.666501
       Atomic Center   17 is at   3.292840 -2.409973  0.126047
       Atomic Center   18 is at   0.858111 -2.004907  0.637155
       Atomic Center   19 is at  -1.103619 -0.580039 -1.646892
       Atomic Center   20 is at  -1.154219  1.221321 -1.577773
       Atomic Center   21 is at  -3.451213  0.488081 -1.965850
       Atomic Center   22 is at  -3.348037  0.998044 -0.268241
       Atomic Center   23 is at  -2.956807 -1.300532  0.147298
       Atomic Center   24 is at  -0.262428  2.301221  1.119322
   15049 points will be used for fitting atomic charges
 Fitting point charges to electrostatic potential
 Charges from ESP fit, RMS=   0.00339 RRMS=   0.17831:
 ESP charges:
               1
     1  N   -0.674681
     2  S    0.597896
     3  C   -0.006751
     4  C   -0.131741
     5  C   -0.082409
     6  C   -0.062380
     7  C   -0.136540
     8  C    0.002317
     9  C   -0.136909
    10  C    0.425034
    11  O   -0.648682
    12  N   -0.704716
    13  H    0.319450
    14  H    0.129501
    15  H    0.096928
    16  H    0.099555
    17  H    0.117140
    18  H    0.067932
    19  H    0.064580
    20  H    0.038239
    21  H   -0.003366
    22  H   -0.048212
    23  H    0.377748
    24  H    0.300067
 Sum of ESP charges =   0.00000
 ESP charges with hydrogens summed into heavy atoms:
               1
     1  N   -0.355231
     2  S    0.597896
     3  C   -0.006751
     4  C   -0.002240
     5  C    0.014520
     6  C    0.037174
     7  C   -0.019401
     8  C    0.070249
     9  C   -0.034090
    10  C    0.373457
    11  O   -0.270934
    12  N   -0.404649
 Charge=   0.00000 Dipole=     5.4871     1.2700    -1.6768 Tot=     5.8764
 -----------------------------------------------------------------

              Electrostatic Properties (Atomic Units)

 -----------------------------------------------------------------
    Center     Electric         -------- Electric Field --------
               Potential          X             Y             Z
 -----------------------------------------------------------------
    1 Atom    -18.411766
    2 Atom    -59.065443
    3 Atom    -14.718012
    4 Atom    -14.726528
    5 Atom    -14.733776
    6 Atom    -14.734963
    7 Atom    -14.736064
    8 Atom    -14.735223
    9 Atom    -14.730680
   10 Atom    -14.714488
   11 Atom    -22.373900
   12 Atom    -18.415883
   13 Atom     -1.040969
   14 Atom     -1.065784
   15 Atom     -1.076656
   16 Atom     -1.078562
   17 Atom     -1.080118
   18 Atom     -1.080005
   19 Atom     -1.079410
   20 Atom     -1.073301
   21 Atom     -1.116075
   22 Atom     -1.124971
   23 Atom     -1.030834
   24 Atom     -1.035821
 -----------------------------------------------------------------
 Unable to Open any file for archive entry.
 1\1\GINC-NOTCH302\SP\RPBE1PBE\def2TZVP\C8H12N2O1S1\U1414944\10-Feb-202
 5\0\\#N Guess=Read Geom=Check Integral(Ultrafine) Density Pop=(ChelpG,
 ReadRadii) NMR pbe1pbe EmpiricalDispersion=GD3BJ def2TZVP\\SDI0054_1\\
 0,1\N,0,-1.4324614153,0.6657436693,-1.3234829633\S,0,-0.7975768444,-0.
 4192817332,-0.4109842784\C,0,0.9620252066,-0.1037561195,-0.1046168249\
 C,0,1.7537557606,-1.0262912749,0.5790834745\C,0,3.1009417411,-0.741080
 9839,0.7857016133\C,0,3.644668071,0.4514434331,0.3053733997\C,0,2.8427
 589937,1.3645663175,-0.3775842264\C,0,1.4907499461,1.0914271768,-0.581
 4921116\C,0,-1.5030923024,0.0140410109,1.1991565093\C,0,-3.0240218552,
 0.0624628248,1.0903301732\O,0,-3.4722983608,1.2091923504,0.4541843098\
 N,0,-1.0191112429,-1.8812019009,-0.8452304872\H,0,-1.2939246918,0.3699
 687034,-2.2930807857\H,0,1.331510649,-1.963148997,0.9529916685\H,0,3.7
 31106134,-1.4547990167,1.3212332039\H,0,4.703175922,0.6687026496,0.465
 7279586\H,0,3.2708141575,2.2969443985,-0.7528815941\H,0,0.8278745751,1
 .7858262328,-1.1050471869\H,0,-1.0944386243,0.9911462217,1.496624418\H
 ,0,-1.1457159627,-0.7691676978,1.8850809035\H,0,-3.4359946196,0.047481
 0876,2.1134100471\H,0,-3.3614942984,-0.8746626317,0.5979280402\H,0,-2.
 9779926603,1.2431463946,-0.39050374\H,0,-0.2995158044,-2.4981234226,-0
 .466610449\\Version=ES64L-G16RevC.01\State=1-A\HF=-894.4004205\RMSD=3.
 411e-09\Dipole=2.1498887,-0.3133913,0.7594581\Quadrupole=-2.2283079,-0
 .1314005,2.3597084,3.0316213,-0.6016513,-5.2999392\PG=C01 [X(C8H12N2O1
 S1)]\\@
 The archive entry for this job was punched.


 BE LIKE A POSTAGE STAMP.  STICK TO ONE THING UNTIL
 YOU GET THERE -- JOSH BILLINGS
 Job cpu time:       0 days  0 hours 20 minutes 32.6 seconds.
 Elapsed time:       0 days  0 hours  1 minutes 23.9 seconds.
 File lengths (MBytes):  RWF=    130 Int=      0 D2E=      0 Chk=     20 Scr=      2
 Normal termination of Gaussian 16 at Mon Feb 10 19:50:50 2025.
