 Entering Gaussian System, Link 0=g16
 Input=SDI0054_5.com
 Output=SDI0054_5.log
 Initial command:
 /uufs/chpc.utah.edu/sys/installdir/gaussian16/C01/AVX/g16/l1.exe "/scratch/general/vast/u1414944/3119861-notchpeak.peaks/Gau-1812768.inp" -scrdir="/scratch/general/vast/u1414944/3119861-notchpeak.peaks/"
 Entering Link 1 = /uufs/chpc.utah.edu/sys/installdir/gaussian16/C01/AVX/g16/l1.exe PID=   1812769.
  
 Copyright (c) 1988-2019, Gaussian, Inc.  All Rights Reserved.
  
 This is part of the Gaussian(R) 16 program.  It is based on
 the Gaussian(R) 09 system (copyright 2009, Gaussian, Inc.),
 the Gaussian(R) 03 system (copyright 2003, Gaussian, Inc.),
 the Gaussian(R) 98 system (copyright 1998, Gaussian, Inc.),
 the Gaussian(R) 94 system (copyright 1995, Gaussian, Inc.),
 the Gaussian 92(TM) system (copyright 1992, Gaussian, Inc.),
 the Gaussian 90(TM) system (copyright 1990, Gaussian, Inc.),
 the Gaussian 88(TM) system (copyright 1988, Gaussian, Inc.),
 the Gaussian 86(TM) system (copyright 1986, Carnegie Mellon
 University), and the Gaussian 82(TM) system (copyright 1983,
 Carnegie Mellon University). Gaussian is a federally registered
 trademark of Gaussian, Inc.
  
 This software contains proprietary and confidential information,
 including trade secrets, belonging to Gaussian, Inc.
  
 This software is provided under written license and may be
 used, copied, transmitted, or stored only in accord with that
 written license.
  
 The following legend is applicable only to US Government
 contracts under FAR:
  
                    RESTRICTED RIGHTS LEGEND
  
 Use, reproduction and disclosure by the US Government is
 subject to restrictions as set forth in subparagraphs (a)
 and (c) of the Commercial Computer Software - Restricted
 Rights clause in FAR 52.227-19.
  
 Gaussian, Inc.
 340 Quinnipiac St., Bldg. 40, Wallingford CT 06492
  
  
 ---------------------------------------------------------------
 Warning -- This program may not be used in any manner that
 competes with the business of Gaussian, Inc. or will provide
 assistance to any competitor of Gaussian, Inc.  The licensee
 of this program is prohibited from giving any competitor of
 Gaussian, Inc. access to this program.  By using this program,
 the user acknowledges that Gaussian, Inc. is engaged in the
 business of creating and licensing software in the field of
 computational chemistry and represents and warrants to the
 licensee that it is not a competitor of Gaussian, Inc. and that
 it will not use this program in any manner prohibited above.
 ---------------------------------------------------------------
  

 Cite this work as:
 Gaussian 16, Revision C.01,
 M. J. Frisch, G. W. Trucks, H. B. Schlegel, G. E. Scuseria, 
 M. A. Robb, J. R. Cheeseman, G. Scalmani, V. Barone, 
 G. A. Petersson, H. Nakatsuji, X. Li, M. Caricato, A. V. Marenich, 
 J. Bloino, B. G. Janesko, R. Gomperts, B. Mennucci, H. P. Hratchian, 
 J. V. Ortiz, A. F. Izmaylov, J. L. Sonnenberg, D. Williams-Young, 
 F. Ding, F. Lipparini, F. Egidi, J. Goings, B. Peng, A. Petrone, 
 T. Henderson, D. Ranasinghe, V. G. Zakrzewski, J. Gao, N. Rega, 
 G. Zheng, W. Liang, M. Hada, M. Ehara, K. Toyota, R. Fukuda, 
 J. Hasegawa, M. Ishida, T. Nakajima, Y. Honda, O. Kitao, H. Nakai, 
 T. Vreven, K. Throssell, J. A. Montgomery, Jr., J. E. Peralta, 
 F. Ogliaro, M. J. Bearpark, J. J. Heyd, E. N. Brothers, K. N. Kudin, 
 V. N. Staroverov, T. A. Keith, R. Kobayashi, J. Normand, 
 K. Raghavachari, A. P. Rendell, J. C. Burant, S. S. Iyengar, 
 J. Tomasi, M. Cossi, J. M. Millam, M. Klene, C. Adamo, R. Cammi, 
 J. W. Ochterski, R. L. Martin, K. Morokuma, O. Farkas, 
 J. B. Foresman, and D. J. Fox, Gaussian, Inc., Wallingford CT, 2019.
 
 ******************************************
 Gaussian 16:  ES64L-G16RevC.01  3-Jul-2019
                10-Feb-2025 
 ******************************************
 %NProcShared=16
 Will use up to   16 processors via shared memory.
 %Mem=40GB
 %chk=SDI0054_5.chk
 ----------------------------------------------------------------------
 #N OPT FREQ=NORAMAN Integral(Ultrafine) pbe1pbe EmpiricalDispersion=GD
 3BJ def2SVP
 ----------------------------------------------------------------------
 1/18=20,19=15,26=4,38=1/1,3;
 2/9=110,12=2,17=6,18=5,40=1/2;
 3/5=43,7=101,11=2,25=1,30=1,71=1,74=-13,75=-5,124=41/1,2,3;
 4//1;
 5/5=2,38=5/2;
 6/7=2,8=2,9=2,10=2,28=1/1;
 7//1,2,3,16;
 1/18=20,19=15,26=4/3(2);
 2/9=110/2;
 99//99;
 2/9=110/2;
 3/5=43,7=101,11=2,25=1,30=1,71=1,74=-13,75=-5,124=41/1,2,3;
 4/5=5,16=3,69=1/1;
 5/5=2,38=5/2;
 7//1,2,3,16;
 1/18=20,19=15,26=4/3(-5);
 2/9=110/2;
 6/7=2,8=2,9=2,10=2,19=2,28=1/1;
 99/9=1/99;
 ---------
 SDI0054_5
 ---------
 Symbolic Z-matrix:
 Charge =  0 Multiplicity = 1
 N                    -1.59938   0.39114  -1.77231 
 S                    -0.92535  -0.59525  -0.81734 
 C                     0.70924  -0.05354  -0.2051 
 C                     1.01122   1.28182  -0.02238 
 C                     2.26938   1.63131   0.44162 
 C                     3.20695   0.64736   0.71143 
 C                     2.89425  -0.68948   0.51909 
 C                     1.63767  -1.04192   0.05757 
 C                    -1.78678  -0.83481   0.8126 
 C                    -1.72167   0.40082   1.69088 
 O                    -2.1311    1.5655    1.01735 
 N                    -0.84913  -2.02756  -1.3358 
 H                    -1.58866   1.34822  -1.46088 
 H                     0.26955   2.0384   -0.22894 
 H                     2.51683   2.67163   0.59153 
 H                     4.18708   0.92416   1.07082 
 H                     3.62826  -1.45368   0.72676 
 H                     1.35733  -2.06965  -0.11728 
 H                    -1.30108  -1.6901    1.27036 
 H                    -2.81104  -1.09364   0.5474 
 H                    -0.69154   0.59241   2.00388 
 H                    -2.3317    0.24468   2.59473 
 H                    -3.00995   1.41963   0.64624 
 H                    -0.89483  -2.09455  -2.33786 
 

 GradGradGradGradGradGradGradGradGradGradGradGradGradGradGradGradGradGrad
 Berny optimization.
 Initialization pass.
                           ----------------------------
                           !    Initial Parameters    !
                           ! (Angstroms and Degrees)  !
 --------------------------                            --------------------------
 ! Name  Definition              Value          Derivative Info.                !
 --------------------------------------------------------------------------------
 ! R1    R(1,2)                  1.5295         estimate D2E/DX2                !
 ! R2    R(1,13)                 1.0065         estimate D2E/DX2                !
 ! R3    R(2,3)                  1.8276         estimate D2E/DX2                !
 ! R4    R(2,9)                  1.8591         estimate D2E/DX2                !
 ! R5    R(2,12)                 1.5252         estimate D2E/DX2                !
 ! R6    R(3,4)                  1.3812         estimate D2E/DX2                !
 ! R7    R(3,8)                  1.3813         estimate D2E/DX2                !
 ! R8    R(4,5)                  1.3858         estimate D2E/DX2                !
 ! R9    R(4,14)                 1.0794         estimate D2E/DX2                !
 ! R10   R(5,6)                  1.3856         estimate D2E/DX2                !
 ! R11   R(5,15)                 1.0798         estimate D2E/DX2                !
 ! R12   R(6,7)                  1.3863         estimate D2E/DX2                !
 ! R13   R(6,16)                 1.08           estimate D2E/DX2                !
 ! R14   R(7,8)                  1.3843         estimate D2E/DX2                !
 ! R15   R(7,17)                 1.0798         estimate D2E/DX2                !
 ! R16   R(8,18)                 1.0795         estimate D2E/DX2                !
 ! R17   R(9,10)                 1.5174         estimate D2E/DX2                !
 ! R18   R(9,19)                 1.0849         estimate D2E/DX2                !
 ! R19   R(9,20)                 1.0892         estimate D2E/DX2                !
 ! R20   R(10,11)                1.4063         estimate D2E/DX2                !
 ! R21   R(10,21)                1.0935         estimate D2E/DX2                !
 ! R22   R(10,22)                1.1016         estimate D2E/DX2                !
 ! R23   R(11,23)                0.9651         estimate D2E/DX2                !
 ! R24   R(12,24)                1.0053         estimate D2E/DX2                !
 ! A1    A(2,1,13)             114.5419         estimate D2E/DX2                !
 ! A2    A(1,2,3)              114.3403         estimate D2E/DX2                !
 ! A3    A(1,2,9)              115.2346         estimate D2E/DX2                !
 ! A4    A(1,2,12)             114.5466         estimate D2E/DX2                !
 ! A5    A(3,2,9)               99.1443         estimate D2E/DX2                !
 ! A6    A(3,2,12)             110.3369         estimate D2E/DX2                !
 ! A7    A(9,2,12)             101.5479         estimate D2E/DX2                !
 ! A8    A(2,3,4)              121.7643         estimate D2E/DX2                !
 ! A9    A(2,3,8)              116.922          estimate D2E/DX2                !
 ! A10   A(4,3,8)              121.3115         estimate D2E/DX2                !
 ! A11   A(3,4,5)              119.1186         estimate D2E/DX2                !
 ! A12   A(3,4,14)             120.1394         estimate D2E/DX2                !
 ! A13   A(5,4,14)             120.7383         estimate D2E/DX2                !
 ! A14   A(4,5,6)              120.0283         estimate D2E/DX2                !
 ! A15   A(4,5,15)             119.8359         estimate D2E/DX2                !
 ! A16   A(6,5,15)             120.1357         estimate D2E/DX2                !
 ! A17   A(5,6,7)              120.3392         estimate D2E/DX2                !
 ! A18   A(5,6,16)             119.7922         estimate D2E/DX2                !
 ! A19   A(7,6,16)             119.8683         estimate D2E/DX2                !
 ! A20   A(6,7,8)              119.7704         estimate D2E/DX2                !
 ! A21   A(6,7,17)             120.1632         estimate D2E/DX2                !
 ! A22   A(8,7,17)             120.0664         estimate D2E/DX2                !
 ! A23   A(3,8,7)              119.4309         estimate D2E/DX2                !
 ! A24   A(3,8,18)             118.4162         estimate D2E/DX2                !
 ! A25   A(7,8,18)             122.149          estimate D2E/DX2                !
 ! A26   A(2,9,10)             112.4987         estimate D2E/DX2                !
 ! A27   A(2,9,19)             105.3118         estimate D2E/DX2                !
 ! A28   A(2,9,20)             104.6484         estimate D2E/DX2                !
 ! A29   A(10,9,19)            112.2437         estimate D2E/DX2                !
 ! A30   A(10,9,20)            112.011          estimate D2E/DX2                !
 ! A31   A(19,9,20)            109.6572         estimate D2E/DX2                !
 ! A32   A(9,10,11)            112.6246         estimate D2E/DX2                !
 ! A33   A(9,10,21)            110.4125         estimate D2E/DX2                !
 ! A34   A(9,10,22)            109.6176         estimate D2E/DX2                !
 ! A35   A(11,10,21)           105.4401         estimate D2E/DX2                !
 ! A36   A(11,10,22)           110.4335         estimate D2E/DX2                !
 ! A37   A(21,10,22)           108.1588         estimate D2E/DX2                !
 ! A38   A(10,11,23)           108.9116         estimate D2E/DX2                !
 ! A39   A(2,12,24)            113.5241         estimate D2E/DX2                !
 ! D1    D(13,1,2,3)           -46.9083         estimate D2E/DX2                !
 ! D2    D(13,1,2,9)            67.0473         estimate D2E/DX2                !
 ! D3    D(13,1,2,12)         -175.6597         estimate D2E/DX2                !
 ! D4    D(1,2,3,4)             31.3531         estimate D2E/DX2                !
 ! D5    D(1,2,3,8)           -148.1203         estimate D2E/DX2                !
 ! D6    D(9,2,3,4)            -91.7917         estimate D2E/DX2                !
 ! D7    D(9,2,3,8)             88.7349         estimate D2E/DX2                !
 ! D8    D(12,2,3,4)           162.1923         estimate D2E/DX2                !
 ! D9    D(12,2,3,8)           -17.281          estimate D2E/DX2                !
 ! D10   D(1,2,9,10)           -68.3743         estimate D2E/DX2                !
 ! D11   D(1,2,9,19)           169.0637         estimate D2E/DX2                !
 ! D12   D(1,2,9,20)            53.4657         estimate D2E/DX2                !
 ! D13   D(3,2,9,10)            54.1303         estimate D2E/DX2                !
 ! D14   D(3,2,9,19)           -68.4318         estimate D2E/DX2                !
 ! D15   D(3,2,9,20)           175.9703         estimate D2E/DX2                !
 ! D16   D(12,2,9,10)          167.2202         estimate D2E/DX2                !
 ! D17   D(12,2,9,19)           44.6582         estimate D2E/DX2                !
 ! D18   D(12,2,9,20)          -70.9398         estimate D2E/DX2                !
 ! D19   D(1,2,12,24)           23.4353         estimate D2E/DX2                !
 ! D20   D(3,2,12,24)         -107.2953         estimate D2E/DX2                !
 ! D21   D(9,2,12,24)          148.303          estimate D2E/DX2                !
 ! D22   D(2,3,4,5)           -179.847          estimate D2E/DX2                !
 ! D23   D(2,3,4,14)             0.8516         estimate D2E/DX2                !
 ! D24   D(8,3,4,5)             -0.3966         estimate D2E/DX2                !
 ! D25   D(8,3,4,14)          -179.698          estimate D2E/DX2                !
 ! D26   D(2,3,8,7)            179.7794         estimate D2E/DX2                !
 ! D27   D(2,3,8,18)             0.4822         estimate D2E/DX2                !
 ! D28   D(4,3,8,7)              0.3034         estimate D2E/DX2                !
 ! D29   D(4,3,8,18)          -178.9937         estimate D2E/DX2                !
 ! D30   D(3,4,5,6)              0.2257         estimate D2E/DX2                !
 ! D31   D(3,4,5,15)          -179.8122         estimate D2E/DX2                !
 ! D32   D(14,4,5,6)           179.5229         estimate D2E/DX2                !
 ! D33   D(14,4,5,15)           -0.5151         estimate D2E/DX2                !
 ! D34   D(4,5,6,7)              0.032          estimate D2E/DX2                !
 ! D35   D(4,5,6,16)           179.8644         estimate D2E/DX2                !
 ! D36   D(15,5,6,7)          -179.9299         estimate D2E/DX2                !
 ! D37   D(15,5,6,16)           -0.0975         estimate D2E/DX2                !
 ! D38   D(5,6,7,8)             -0.1268         estimate D2E/DX2                !
 ! D39   D(5,6,7,17)           179.7725         estimate D2E/DX2                !
 ! D40   D(16,6,7,8)          -179.9591         estimate D2E/DX2                !
 ! D41   D(16,6,7,17)           -0.0598         estimate D2E/DX2                !
 ! D42   D(6,7,8,3)             -0.0383         estimate D2E/DX2                !
 ! D43   D(6,7,8,18)           179.2316         estimate D2E/DX2                !
 ! D44   D(17,7,8,3)          -179.9376         estimate D2E/DX2                !
 ! D45   D(17,7,8,18)           -0.6677         estimate D2E/DX2                !
 ! D46   D(2,9,10,11)           50.806          estimate D2E/DX2                !
 ! D47   D(2,9,10,21)          -66.7652         estimate D2E/DX2                !
 ! D48   D(2,9,10,22)          174.1786         estimate D2E/DX2                !
 ! D49   D(19,9,10,11)         169.3741         estimate D2E/DX2                !
 ! D50   D(19,9,10,21)          51.803          estimate D2E/DX2                !
 ! D51   D(19,9,10,22)         -67.2533         estimate D2E/DX2                !
 ! D52   D(20,9,10,11)         -66.7538         estimate D2E/DX2                !
 ! D53   D(20,9,10,21)         175.6751         estimate D2E/DX2                !
 ! D54   D(20,9,10,22)          56.6189         estimate D2E/DX2                !
 ! D55   D(9,10,11,23)          54.3109         estimate D2E/DX2                !
 ! D56   D(21,10,11,23)        174.7826         estimate D2E/DX2                !
 ! D57   D(22,10,11,23)        -68.6063         estimate D2E/DX2                !
 --------------------------------------------------------------------------------
 Trust Radius=3.00D-01 FncErr=1.00D-07 GrdErr=1.00D-06 EigMax=2.50D+02 EigMin=1.00D-04
 Number of steps in this run=    130 maximum allowed number of steps=    144.
 GradGradGradGradGradGradGradGradGradGradGradGradGradGradGradGradGradGrad

                          Input orientation:                          
 ---------------------------------------------------------------------
 Center     Atomic      Atomic             Coordinates (Angstroms)
 Number     Number       Type             X           Y           Z
 ---------------------------------------------------------------------
      1          7           0       -1.599377    0.391137   -1.772306
      2         16           0       -0.925348   -0.595251   -0.817335
      3          6           0        0.709236   -0.053536   -0.205103
      4          6           0        1.011220    1.281817   -0.022384
      5          6           0        2.269379    1.631309    0.441620
      6          6           0        3.206948    0.647360    0.711429
      7          6           0        2.894248   -0.689478    0.519091
      8          6           0        1.637669   -1.041922    0.057573
      9          6           0       -1.786783   -0.834807    0.812598
     10          6           0       -1.721665    0.400817    1.690879
     11          8           0       -2.131098    1.565502    1.017346
     12          7           0       -0.849126   -2.027565   -1.335803
     13          1           0       -1.588657    1.348223   -1.460876
     14          1           0        0.269554    2.038404   -0.228942
     15          1           0        2.516831    2.671633    0.591531
     16          1           0        4.187085    0.924162    1.070822
     17          1           0        3.628257   -1.453679    0.726759
     18          1           0        1.357325   -2.069651   -0.117276
     19          1           0       -1.301075   -1.690102    1.270359
     20          1           0       -2.811045   -1.093635    0.547402
     21          1           0       -0.691540    0.592415    2.003881
     22          1           0       -2.331703    0.244682    2.594730
     23          1           0       -3.009955    1.419630    0.646238
     24          1           0       -0.894833   -2.094550   -2.337857
 ---------------------------------------------------------------------
                    Distance matrix (angstroms):
                    1          2          3          4          5
     1  N    0.000000
     2  S    1.529459   0.000000
     3  C    2.825519   1.827608   0.000000
     4  C    3.266612   2.811695   1.381212   0.000000
     5  C    4.626745   4.092533   2.385581   1.385788   0.000000
     6  C    5.416211   4.577890   2.751336   2.400466   1.385636
     7  C    5.158574   4.047744   2.388127   2.779386   2.404685
     8  C    3.985044   2.744820   1.381264   2.408026   2.773574
     9  C    2.867017   1.859070   2.806459   3.606399   4.761491
    10  C    3.465356   2.813789   3.116162   3.343665   4.359265
    11  O    3.073112   3.080380   3.490439   3.321999   4.438467
    12  N    2.569733   1.525169   2.757492   4.017208   5.125589
    13  H    1.006537   2.152026   2.970220   2.972041   4.310924
    14  H    2.930591   2.951294   2.137780   1.079426   2.148181
    15  H    5.266075   4.950357   3.365794   2.139005   1.079806
    16  H    6.469206   5.657802   3.831358   3.377741   2.138585
    17  H    6.080857   4.884306   3.368894   3.859149   3.383046
    18  H    4.187683   2.806161   2.119541   3.370627   3.852442
    19  H    3.698425   2.387118   2.982731   3.981230   4.946384
    20  H    3.008942   2.380492   3.747059   4.536203   5.766040
    21  H    3.888993   3.069932   2.694260   2.735036   3.505282
    22  H    4.430435   3.784906   4.144310   4.370363   5.265792
    23  H    2.982764   3.247672   4.089912   4.078713   5.287537
    24  H    2.644782   2.135606   3.359675   4.516005   5.623144
                    6          7          8          9         10
     6  C    0.000000
     7  C    1.386330   0.000000
     8  C    2.396631   1.384271   0.000000
     9  C    5.210029   4.692474   3.512809   0.000000
    10  C    5.031037   4.885538   4.004286   1.517360   0.000000
    11  O    5.425063   5.530578   4.682246   2.433507   1.406333
    12  N    5.272392   4.386793   3.016146   2.630114   3.977331
    13  H    5.311115   5.307441   4.292744   3.158094   3.293756
    14  H    3.383428   3.858745   3.382637   3.683567   3.214398
    15  H    2.142036   3.383010   3.853379   5.555635   4.932547
    16  H    1.080024   2.140016   3.375156   6.232796   5.964200
    17  H    2.142919   1.079768   2.140045   5.450965   5.743722
    18  H    3.389691   2.161475   1.079533   3.503559   4.341983
    19  H    5.108660   4.377943   3.244565   1.084890   2.173861
    20  H    6.266914   5.719660   4.475897   1.089236   2.174322
    21  H    4.107513   4.087264   3.447374   2.157701   1.093544
    22  H    5.863926   5.700131   4.883485   2.153655   1.101577
    23  H    6.265024   6.270894   5.292085   2.570274   1.946521
    24  H    5.800071   4.949092   3.641384   3.508261   4.810532
                   11         12         13         14         15
    11  O    0.000000
    12  N    4.482286   0.000000
    13  H    2.546180   3.458105   0.000000
    14  H    2.745906   4.359895   2.333872   0.000000
    15  H    4.796674   6.093171   4.776904   2.474754   0.000000
    16  H    6.350875   6.314107   6.320483   4.275274   2.464371
    17  H    6.509228   4.962908   6.312890   4.938511   4.274547
    18  H    5.164378   2.520914   4.708071   4.251098   4.932204
    19  H    3.369259   2.666499   4.095578   4.314688   5.836261
    20  H    2.784634   2.875380   3.389703   4.461218   6.524220
    21  H    1.998119   4.247660   3.657951   2.828442   4.075724
    22  H    2.067111   4.776006   4.268238   4.237582   5.780240
    23  H    0.965085   4.525573   2.542659   3.450217   5.667086
    24  H    5.116807   1.005330   3.619831   4.783788   6.552653
                   16         17         18         19         20
    16  H    0.000000
    17  H    2.466737   0.000000
    18  H    4.287427   2.499789   0.000000
    19  H    6.082276   4.964847   3.022694   0.000000
    20  H    7.302006   6.451853   4.332403   1.777202   0.000000
    21  H    4.978116   4.947543   3.972877   2.473756   3.075126
    22  H    6.728936   6.472624   5.130307   2.561161   2.492472
    23  H    7.226558   7.233826   5.641912   3.602808   2.523061
    24  H    6.823313   5.500993   3.162881   3.653468   3.605331
                   21         22         23         24
    21  H    0.000000
    22  H    1.777682   0.000000
    23  H    2.811143   2.374268   0.000000
    24  H    5.109970   5.645088   5.072280   0.000000
 Stoichiometry    C8H12N2OS
 Framework group  C1[X(C8H12N2OS)]
 Deg. of freedom    66
 Full point group                 C1      NOp   1
 Largest Abelian subgroup         C1      NOp   1
 Largest concise Abelian subgroup C1      NOp   1
                         Standard orientation:                         
 ---------------------------------------------------------------------
 Center     Atomic      Atomic             Coordinates (Angstroms)
 Number     Number       Type             X           Y           Z
 ---------------------------------------------------------------------
      1          7           0        1.748970   -0.487184    1.624086
      2         16           0        1.070650   -0.829452    0.296690
      3          6           0       -0.670949   -0.288002    0.179138
      4          6           0       -1.125896    0.843638    0.827337
      5          6           0       -2.458746    1.202067    0.703040
      6          6           0       -3.317110    0.426576   -0.059725
      7          6           0       -2.850295   -0.710190   -0.701408
      8          6           0       -1.519000   -1.069793   -0.580799
      9          6           0        1.754272    0.048919   -1.192358
     10          6           0        1.461640    1.537674   -1.173429
     11          8           0        1.827436    2.145537    0.040849
     12          7           0        1.201255   -2.289748   -0.123570
     13          1           0        1.604909    0.459089    1.935423
     14          1           0       -0.445490    1.443589    1.412371
     15          1           0       -2.826107    2.086211    1.202355
     16          1           0       -4.355648    0.708245   -0.152208
     17          1           0       -3.522496   -1.314456   -1.292091
     18          1           0       -1.117487   -1.953256   -1.053738
     19          1           0        1.307182   -0.446660   -2.047634
     20          1           0        2.823507   -0.157305   -1.167021
     21          1           0        0.387796    1.716642   -1.276711
     22          1           0        1.973830    2.026035   -2.017606
     23          1           0        2.754047    1.946908    0.223409
     24          1           0        1.370996   -2.914908    0.645229
 ---------------------------------------------------------------------
 Rotational constants (GHZ):           1.2574263           0.6711085           0.5521703
 Standard basis: def2SVP (5D, 7F)
 There are   244 symmetry adapted cartesian basis functions of A   symmetry.
 There are   232 symmetry adapted basis functions of A   symmetry.
   232 basis functions,   396 primitive gaussians,   244 cartesian basis functions
    49 alpha electrons       49 beta electrons
       nuclear repulsion energy       847.5117414353 Hartrees.
 NAtoms=   24 NActive=   24 NUniq=   24 SFac= 1.00D+00 NAtFMM=   60 NAOKFM=F Big=F
 Integral buffers will be    131072 words long.
 Raffenetti 2 integral format.
 Two-electron integral symmetry is turned on.
 Nuclear repulsion after empirical dispersion term =      847.4840608891 Hartrees.
 One-electron integrals computed using PRISM.
   1 Symmetry operations used in ECPInt.
 ECPInt:  NShTT=    6105 NPrTT=   22357 LenC2=    5969 LenP2D=   16552.
 LDataN:  DoStor=T MaxTD1= 4 Len=   56
 NBasis=   232 RedAO= T EigKep=  2.65D-04  NBF=   232
 NBsUse=   232 1.00D-06 EigRej= -1.00D+00 NBFU=   232
 ExpMin= 1.22D-01 ExpMax= 9.18D+03 ExpMxC= 1.38D+03 IAcc=3 IRadAn=         5 AccDes= 0.00D+00
 Harris functional with IExCor= 1009 and IRadAn=       5 diagonalized for initial guess.
 HarFok:  IExCor= 1009 AccDes= 0.00D+00 IRadAn=         5 IDoV= 1 UseB2=F ITyADJ=14
 ICtDFT=  3500011 ScaDFX=  1.000000  1.000000  1.000000  1.000000
 FoFCou: FMM=F IPFlag=           0 FMFlag=      100000 FMFlg1=           0
         NFxFlg=           0 DoJE=T BraDBF=F KetDBF=T FulRan=T
         wScrn=  0.000000 ICntrl=       500 IOpCl=  0 I1Cent=   200000004 NGrid=           0
         NMat0=    1 NMatS0=      1 NMatT0=    0 NMatD0=    1 NMtDS0=    0 NMtDT0=    0
 Petite list used in FoFCou.
 Requested convergence on RMS density matrix=1.00D-08 within 128 cycles.
 Requested convergence on MAX density matrix=1.00D-06.
 Requested convergence on             energy=1.00D-06.
 No special actions if energy rises.
 Integral accuracy reduced to 1.0D-05 until final iterations.
 Initial convergence to 1.0D-05 achieved.  Increase integral accuracy.
 SCF Done:  E(RPBE1PBE) =  -893.668314874     A.U. after   15 cycles
            NFock= 15  Conv=0.49D-08     -V/T= 2.0060

 **********************************************************************

            Population analysis using the SCF Density.

 **********************************************************************

 Orbital symmetries:
       Occupied  (A) (A) (A) (A) (A) (A) (A) (A) (A) (A) (A) (A)
                 (A) (A) (A) (A) (A) (A) (A) (A) (A) (A) (A) (A)
                 (A) (A) (A) (A) (A) (A) (A) (A) (A) (A) (A) (A)
                 (A) (A) (A) (A) (A) (A) (A) (A) (A) (A) (A) (A)
                 (A)
       Virtual   (A) (A) (A) (A) (A) (A) (A) (A) (A) (A) (A) (A)
                 (A) (A) (A) (A) (A) (A) (A) (A) (A) (A) (A) (A)
                 (A) (A) (A) (A) (A) (A) (A) (A) (A) (A) (A) (A)
                 (A) (A) (A) (A) (A) (A) (A) (A) (A) (A) (A) (A)
                 (A) (A) (A) (A) (A) (A) (A) (A) (A) (A) (A) (A)
                 (A) (A) (A) (A) (A) (A) (A) (A) (A) (A) (A) (A)
                 (A) (A) (A) (A) (A) (A) (A) (A) (A) (A) (A) (A)
                 (A) (A) (A) (A) (A) (A) (A) (A) (A) (A) (A) (A)
                 (A) (A) (A) (A) (A) (A) (A) (A) (A) (A) (A) (A)
                 (A) (A) (A) (A) (A) (A) (A) (A) (A) (A) (A) (A)
                 (A) (A) (A) (A) (A) (A) (A) (A) (A) (A) (A) (A)
                 (A) (A) (A) (A) (A) (A) (A) (A) (A) (A) (A) (A)
                 (A) (A) (A) (A) (A) (A) (A) (A) (A) (A) (A) (A)
                 (A) (A) (A) (A) (A) (A) (A) (A) (A) (A) (A) (A)
                 (A) (A) (A) (A) (A) (A) (A) (A) (A) (A) (A) (A)
                 (A) (A) (A)
 The electronic state is 1-A.
 Alpha  occ. eigenvalues --  -89.17682 -19.22560 -14.34267 -14.33158 -10.29657
 Alpha  occ. eigenvalues --  -10.26241 -10.26187 -10.25601 -10.25234 -10.25166
 Alpha  occ. eigenvalues --  -10.25096 -10.25045  -8.15138  -6.09253  -6.09177
 Alpha  occ. eigenvalues --   -6.09144  -1.05918  -1.00159  -0.89703  -0.84598
 Alpha  occ. eigenvalues --   -0.79990  -0.78285  -0.78158  -0.68601  -0.65293
 Alpha  occ. eigenvalues --   -0.63891  -0.60382  -0.55957  -0.53976  -0.51689
 Alpha  occ. eigenvalues --   -0.50589  -0.49020  -0.48343  -0.47844  -0.46451
 Alpha  occ. eigenvalues --   -0.45256  -0.44442  -0.41444  -0.40343  -0.38786
 Alpha  occ. eigenvalues --   -0.37376  -0.36019  -0.31937  -0.29651  -0.28801
 Alpha  occ. eigenvalues --   -0.28477  -0.27381  -0.24617  -0.24110
 Alpha virt. eigenvalues --   -0.03071  -0.01877   0.04734   0.05841   0.07550
 Alpha virt. eigenvalues --    0.09072   0.09457   0.09875   0.10921   0.11367
 Alpha virt. eigenvalues --    0.12119   0.13186   0.14046   0.15086   0.15268
 Alpha virt. eigenvalues --    0.16750   0.18129   0.18314   0.21321   0.22322
 Alpha virt. eigenvalues --    0.24329   0.29068   0.29329   0.31055   0.32021
 Alpha virt. eigenvalues --    0.36160   0.39339   0.41352   0.42629   0.43641
 Alpha virt. eigenvalues --    0.44104   0.45062   0.47203   0.48200   0.48710
 Alpha virt. eigenvalues --    0.49617   0.50375   0.51297   0.51575   0.55118
 Alpha virt. eigenvalues --    0.56555   0.57433   0.58630   0.60240   0.60816
 Alpha virt. eigenvalues --    0.63446   0.63803   0.64972   0.65476   0.66691
 Alpha virt. eigenvalues --    0.67352   0.67795   0.68159   0.69371   0.70134
 Alpha virt. eigenvalues --    0.70533   0.71079   0.71278   0.72903   0.74629
 Alpha virt. eigenvalues --    0.74913   0.75445   0.76996   0.77837   0.79027
 Alpha virt. eigenvalues --    0.81315   0.83291   0.85276   0.85986   0.87681
 Alpha virt. eigenvalues --    0.89325   0.91368   0.92585   0.95512   0.97322
 Alpha virt. eigenvalues --    0.99549   1.00688   1.03110   1.03469   1.07577
 Alpha virt. eigenvalues --    1.07953   1.10267   1.13330   1.15984   1.17432
 Alpha virt. eigenvalues --    1.18323   1.19862   1.21815   1.23530   1.24018
 Alpha virt. eigenvalues --    1.26783   1.28453   1.29907   1.33657   1.34010
 Alpha virt. eigenvalues --    1.36762   1.37425   1.44864   1.45625   1.49582
 Alpha virt. eigenvalues --    1.50591   1.51905   1.54479   1.56788   1.65387
 Alpha virt. eigenvalues --    1.66695   1.68515   1.70338   1.70743   1.71600
 Alpha virt. eigenvalues --    1.73094   1.75549   1.76343   1.77100   1.77356
 Alpha virt. eigenvalues --    1.77719   1.78624   1.79719   1.82439   1.84107
 Alpha virt. eigenvalues --    1.85743   1.87267   1.89689   1.91346   1.92813
 Alpha virt. eigenvalues --    1.94253   1.95543   1.97844   1.99336   2.01023
 Alpha virt. eigenvalues --    2.01500   2.06354   2.09831   2.11881   2.14971
 Alpha virt. eigenvalues --    2.16628   2.16998   2.19308   2.20371   2.23027
 Alpha virt. eigenvalues --    2.24024   2.28933   2.30384   2.31055   2.31385
 Alpha virt. eigenvalues --    2.34671   2.36148   2.37892   2.39028   2.39410
 Alpha virt. eigenvalues --    2.42148   2.46881   2.52059   2.55318   2.57331
 Alpha virt. eigenvalues --    2.59513   2.61156   2.63097   2.64736   2.66421
 Alpha virt. eigenvalues --    2.66918   2.75811   2.76042   2.76349   2.82695
 Alpha virt. eigenvalues --    2.84590   2.86254   2.88957   2.91412   2.92239
 Alpha virt. eigenvalues --    2.94587   2.96991   3.01276   3.06697   3.09886
 Alpha virt. eigenvalues --    3.14427   3.16108   3.24500   3.27875   3.33571
 Alpha virt. eigenvalues --    3.36489   3.65992   3.77125
          Condensed to atoms (all electrons):
               1          2          3          4          5          6
     1  N    6.879656   0.340118  -0.042305   0.000022   0.000337  -0.000021
     2  S    0.340118  14.697274   0.047860  -0.022935   0.003117   0.000148
     3  C   -0.042305   0.047860   5.990059   0.174792   0.106761  -0.190863
     4  C    0.000022  -0.022935   0.174792   5.161847   0.268788   0.100961
     5  C    0.000337   0.003117   0.106761   0.268788   5.074847   0.262781
     6  C   -0.000021   0.000148  -0.190863   0.100961   0.262781   5.135051
     7  C   -0.000008   0.002752   0.106295  -0.147130   0.090998   0.251016
     8  C    0.003623  -0.046375   0.254314   0.058156  -0.139054   0.106137
     9  C   -0.041075   0.233884  -0.124629  -0.008597  -0.000813  -0.000127
    10  C   -0.003361  -0.056522   0.013607  -0.000133  -0.000083   0.000074
    11  O   -0.004531   0.008856  -0.008899   0.003137   0.000108   0.000002
    12  N   -0.064670   0.384741  -0.082077   0.004388   0.000003  -0.000060
    13  H    0.327816  -0.004387  -0.010092   0.005734   0.000893   0.000002
    14  H    0.003374  -0.000442  -0.084984   0.440215  -0.050178   0.013444
    15  H    0.000004  -0.000114   0.017682  -0.072650   0.456214  -0.073423
    16  H   -0.000000   0.000021  -0.001569   0.014852  -0.068438   0.449587
    17  H    0.000001  -0.000155   0.017018  -0.001933   0.014368  -0.073927
    18  H    0.000790  -0.010610  -0.070905   0.014036  -0.001882   0.012661
    19  H    0.003331  -0.002657   0.000335   0.000236   0.000032  -0.000005
    20  H    0.004882  -0.020028   0.009770  -0.000204  -0.000009   0.000003
    21  H    0.000307  -0.012698   0.010273   0.000133   0.000028  -0.000170
    22  H   -0.000326   0.006045  -0.001518   0.000307   0.000021  -0.000005
    23  H    0.008035  -0.002286   0.000720   0.000214  -0.000018  -0.000000
    24  H    0.004956  -0.015643   0.002978  -0.000245  -0.000026   0.000007
               7          8          9         10         11         12
     1  N   -0.000008   0.003623  -0.041075  -0.003361  -0.004531  -0.064670
     2  S    0.002752  -0.046375   0.233884  -0.056522   0.008856   0.384741
     3  C    0.106295   0.254314  -0.124629   0.013607  -0.008899  -0.082077
     4  C   -0.147130   0.058156  -0.008597  -0.000133   0.003137   0.004388
     5  C    0.090998  -0.139054  -0.000813  -0.000083   0.000108   0.000003
     6  C    0.251016   0.106137  -0.000127   0.000074   0.000002  -0.000060
     7  C    5.126475   0.228438  -0.000343  -0.000200   0.000001   0.002101
     8  C    0.228438   5.121652  -0.004301   0.001648  -0.000072   0.006105
     9  C   -0.000343  -0.004301   5.316814   0.263234  -0.057008  -0.093493
    10  C   -0.000200   0.001648   0.263234   4.611157   0.319537   0.007859
    11  O    0.000001  -0.000072  -0.057008   0.319537   7.789820   0.000015
    12  N    0.002101   0.006105  -0.093493   0.007859   0.000015   6.880496
    13  H   -0.000055  -0.000865  -0.002053  -0.001930   0.016174   0.003355
    14  H   -0.001832   0.013708   0.000289   0.000444   0.008213   0.000153
    15  H    0.014651  -0.002163   0.000027  -0.000024  -0.000014   0.000001
    16  H   -0.068437   0.014190   0.000000  -0.000001   0.000000   0.000000
    17  H    0.457096  -0.072640   0.000025  -0.000002  -0.000000  -0.000008
    18  H   -0.055418   0.440615   0.000334   0.000088  -0.000004   0.032373
    19  H    0.000392   0.002099   0.326730  -0.009959   0.004569   0.008218
    20  H    0.000007   0.000022   0.343276  -0.008922  -0.002073   0.008736
    21  H    0.000529  -0.000400  -0.017960   0.382536  -0.034702   0.000095
    22  H   -0.000009  -0.000057  -0.025510   0.375420  -0.026222  -0.000233
    23  H    0.000004  -0.000035   0.001612  -0.046511   0.325131  -0.000040
    24  H   -0.000114  -0.000665   0.007469  -0.000407   0.000007   0.334248
              13         14         15         16         17         18
     1  N    0.327816   0.003374   0.000004  -0.000000   0.000001   0.000790
     2  S   -0.004387  -0.000442  -0.000114   0.000021  -0.000155  -0.010610
     3  C   -0.010092  -0.084984   0.017682  -0.001569   0.017018  -0.070905
     4  C    0.005734   0.440215  -0.072650   0.014852  -0.001933   0.014036
     5  C    0.000893  -0.050178   0.456214  -0.068438   0.014368  -0.001882
     6  C    0.000002   0.013444  -0.073423   0.449587  -0.073927   0.012661
     7  C   -0.000055  -0.001832   0.014651  -0.068437   0.457096  -0.055418
     8  C   -0.000865   0.013708  -0.002163   0.014190  -0.072640   0.440615
     9  C   -0.002053   0.000289   0.000027   0.000000   0.000025   0.000334
    10  C   -0.001930   0.000444  -0.000024  -0.000001  -0.000002   0.000088
    11  O    0.016174   0.008213  -0.000014   0.000000  -0.000000  -0.000004
    12  N    0.003355   0.000153   0.000001   0.000000  -0.000008   0.032373
    13  H    0.547404   0.003638  -0.000003  -0.000000   0.000000  -0.000131
    14  H    0.003638   0.649832  -0.012179  -0.000251   0.000040  -0.000161
    15  H   -0.000003  -0.012179   0.661664  -0.012174  -0.000257   0.000028
    16  H   -0.000000  -0.000251  -0.012174   0.661557  -0.012180  -0.000209
    17  H    0.000000   0.000040  -0.000257  -0.012180   0.660366  -0.010846
    18  H   -0.000131  -0.000161   0.000028  -0.000209  -0.010846   0.613490
    19  H   -0.000118  -0.000196  -0.000000  -0.000000  -0.000013   0.001155
    20  H   -0.000719  -0.000191  -0.000001   0.000000  -0.000001  -0.000103
    21  H   -0.000453  -0.002856   0.000062  -0.000003  -0.000001  -0.000002
    22  H    0.000336   0.000250   0.000001   0.000000   0.000000   0.000003
    23  H    0.000317  -0.001220   0.000000  -0.000000  -0.000000  -0.000001
    24  H    0.000080  -0.000026  -0.000000   0.000000   0.000000  -0.000756
              19         20         21         22         23         24
     1  N    0.003331   0.004882   0.000307  -0.000326   0.008035   0.004956
     2  S   -0.002657  -0.020028  -0.012698   0.006045  -0.002286  -0.015643
     3  C    0.000335   0.009770   0.010273  -0.001518   0.000720   0.002978
     4  C    0.000236  -0.000204   0.000133   0.000307   0.000214  -0.000245
     5  C    0.000032  -0.000009   0.000028   0.000021  -0.000018  -0.000026
     6  C   -0.000005   0.000003  -0.000170  -0.000005  -0.000000   0.000007
     7  C    0.000392   0.000007   0.000529  -0.000009   0.000004  -0.000114
     8  C    0.002099   0.000022  -0.000400  -0.000057  -0.000035  -0.000665
     9  C    0.326730   0.343276  -0.017960  -0.025510   0.001612   0.007469
    10  C   -0.009959  -0.008922   0.382536   0.375420  -0.046511  -0.000407
    11  O    0.004569  -0.002073  -0.034702  -0.026222   0.325131   0.000007
    12  N    0.008218   0.008736   0.000095  -0.000233  -0.000040   0.334248
    13  H   -0.000118  -0.000719  -0.000453   0.000336   0.000317   0.000080
    14  H   -0.000196  -0.000191  -0.002856   0.000250  -0.001220  -0.000026
    15  H   -0.000000  -0.000001   0.000062   0.000001   0.000000  -0.000000
    16  H   -0.000000   0.000000  -0.000003   0.000000  -0.000000   0.000000
    17  H   -0.000013  -0.000001  -0.000001   0.000000  -0.000000   0.000000
    18  H    0.001155  -0.000103  -0.000002   0.000003  -0.000001  -0.000756
    19  H    0.596623  -0.006510  -0.004537  -0.000229   0.000397  -0.000702
    20  H   -0.006510   0.590030   0.006413  -0.012421   0.006198  -0.000355
    21  H   -0.004537   0.006413   0.628733  -0.031207   0.010127  -0.000005
    22  H   -0.000229  -0.012421  -0.031207   0.678450  -0.008347   0.000016
    23  H    0.000397   0.006198   0.010127  -0.008347   0.528483  -0.000008
    24  H   -0.000702  -0.000355  -0.000005   0.000016  -0.000008   0.538045
 Mulliken charges:
               1
     1  N   -0.420955
     2  S    0.470038
     3  C   -0.134623
     4  C    0.006010
     5  C   -0.018798
     6  C    0.006727
     7  C   -0.007208
     8  C    0.015920
     9  C   -0.117787
    10  C    0.152453
    11  O   -0.342045
    12  N   -0.432307
    13  H    0.115056
    14  H    0.020918
    15  H    0.022667
    16  H    0.023057
    17  H    0.023049
    18  H    0.035453
    19  H    0.080809
    20  H    0.082199
    21  H    0.065757
    22  H    0.045234
    23  H    0.177229
    24  H    0.131147
 Sum of Mulliken charges =  -0.00000
 Mulliken charges with hydrogens summed into heavy atoms:
               1
     1  N   -0.305899
     2  S    0.470038
     3  C   -0.134623
     4  C    0.026927
     5  C    0.003869
     6  C    0.029785
     7  C    0.015840
     8  C    0.051374
     9  C    0.045221
    10  C    0.263445
    11  O   -0.164816
    12  N   -0.301160
 Electronic spatial extent (au):  <R**2>=           2234.0335
 Charge=             -0.0000 electrons
 Dipole moment (field-independent basis, Debye):
    X=             -1.3491    Y=              2.6544    Z=             -1.8081  Tot=              3.4836
 Quadrupole moment (field-independent basis, Debye-Ang):
   XX=            -69.3329   YY=            -82.5156   ZZ=            -79.3693
   XY=              5.1342   XZ=             -2.9208   YZ=              1.0052
 Traceless Quadrupole moment (field-independent basis, Debye-Ang):
   XX=              7.7397   YY=             -5.4430   ZZ=             -2.2967
   XY=              5.1342   XZ=             -2.9208   YZ=              1.0052
 Octapole moment (field-independent basis, Debye-Ang**2):
  XXX=              7.1448  YYY=             -0.5733  ZZZ=             -7.3123  XYY=             -2.7825
  XXY=             24.3006  XXZ=            -14.1200  XZZ=              4.2610  YZZ=             10.8785
  YYZ=             10.3065  XYZ=             -8.0916
 Hexadecapole moment (field-independent basis, Debye-Ang**3):
 XXXX=          -1559.5534 YYYY=           -810.3263 ZZZZ=           -425.9096 XXXY=             56.3095
 XXXZ=              4.0321 YYYX=             -0.3670 YYYZ=            -29.1918 ZZZX=            -10.8971
 ZZZY=             15.4956 XXYY=           -399.7784 XXZZ=           -374.8152 YYZZ=           -190.0429
 XXYZ=             24.1713 YYXZ=             12.2098 ZZXY=             23.4113
 N-N= 8.474840608891D+02 E-N=-3.792794044671D+03  KE= 8.883211908434D+02
   1 Symmetry operations used in ECPInt.
 ECPInt:  NShTT=    6105 NPrTT=   22357 LenC2=    5969 LenP2D=   16552.
 LDataN:  DoStor=T MaxTD1= 5 Len=  102
 Calling FoFJK, ICntrl=      2127 FMM=F ISym2X=0 I1Cent= 0 IOpClX= 0 NMat=1 NMatS=1 NMatT=0.
 ***** Axes restored to original set *****
 -------------------------------------------------------------------
 Center     Atomic                   Forces (Hartrees/Bohr)
 Number     Number              X              Y              Z
 -------------------------------------------------------------------
      1        7          -0.002574419    0.000527316   -0.007086556
      2       16          -0.009012552   -0.008309913    0.004630627
      3        6          -0.010497997   -0.001803210   -0.004267612
      4        6          -0.000816486    0.003060259   -0.000451853
      5        6          -0.000960292    0.000094635   -0.000271945
      6        6           0.001063450   -0.000260518    0.000330621
      7        6          -0.000316073    0.001405021    0.000366746
      8        6           0.000886080   -0.003176847   -0.000055178
      9        6           0.012629260    0.017488956   -0.004102138
     10        6          -0.005816943    0.002088497   -0.006913521
     11        8          -0.000006909    0.002022648   -0.002062087
     12        7           0.001726642   -0.015602834    0.017745482
     13        1           0.001784093    0.010534759    0.006238214
     14        1          -0.006304005    0.007120260   -0.001464591
     15        1           0.002028181    0.008840970    0.001097129
     16        1           0.008296409    0.002393326    0.003021617
     17        1           0.006130398   -0.006636534    0.001566696
     18        1          -0.002178752   -0.009734003   -0.002197730
     19        1           0.003238598   -0.008562627    0.003819969
     20        1          -0.006131256   -0.003285061   -0.006383416
     21        1           0.003733588   -0.000753135    0.003402257
     22        1           0.000236817   -0.003261001    0.004099118
     23        1           0.001089893   -0.000462555    0.000398421
     24        1           0.001772278    0.006271592   -0.011460270
 -------------------------------------------------------------------
 Cartesian Forces:  Max     0.017745482 RMS     0.005941540

 GradGradGradGradGradGradGradGradGradGradGradGradGradGradGradGradGradGrad
 Berny optimization.
 FormGI is forming the generalized inverse of G from B-inverse, IUseBI=4.
 Internal  Forces:  Max     0.012982954 RMS     0.004397792
 Search for a local minimum.
 Step number   1 out of a maximum of  130
 All quantities printed in internal units (Hartrees-Bohrs-Radians)
 Mixed Optimization -- RFO/linear search
 Second derivative matrix not updated -- first step.
 ITU=  0
     Eigenvalues ---    0.00230   0.00230   0.00536   0.01509   0.01608
     Eigenvalues ---    0.02274   0.02277   0.02278   0.02284   0.02295
     Eigenvalues ---    0.02307   0.02316   0.02331   0.03552   0.03609
     Eigenvalues ---    0.03705   0.04812   0.04939   0.05872   0.06749
     Eigenvalues ---    0.07713   0.08283   0.09532   0.11786   0.12064
     Eigenvalues ---    0.14004   0.15999   0.15999   0.16000   0.16000
     Eigenvalues ---    0.16000   0.16000   0.16000   0.16000   0.16258
     Eigenvalues ---    0.19412   0.21966   0.22000   0.22000   0.22014
     Eigenvalues ---    0.22060   0.23497   0.24057   0.24999   0.30622
     Eigenvalues ---    0.33508   0.34406   0.34901   0.35410   0.35991
     Eigenvalues ---    0.36018   0.36022   0.36051   0.36064   0.43598
     Eigenvalues ---    0.43795   0.44587   0.46557   0.46763   0.48033
     Eigenvalues ---    0.48215   0.48484   0.48777   0.54394   0.67693
     Eigenvalues ---    0.68911
 RFO step:  Lambda=-8.88401857D-03 EMin= 2.30000000D-03
 Linear search not attempted -- first point.
 Iteration  1 RMS(Cart)=  0.05619603 RMS(Int)=  0.00113052
 Iteration  2 RMS(Cart)=  0.00160362 RMS(Int)=  0.00020300
 Iteration  3 RMS(Cart)=  0.00000132 RMS(Int)=  0.00020300
 Iteration  4 RMS(Cart)=  0.00000000 RMS(Int)=  0.00020300
 Variable       Old X    -DE/DX   Delta X   Delta X   Delta X     New X
                                 (Linear)    (Quad)   (Total)
    R1        2.89026   0.00801   0.00000   0.01168   0.01168   2.90194
    R2        1.90208   0.01197   0.00000   0.02522   0.02522   1.92730
    R3        3.45368  -0.00278   0.00000  -0.01114  -0.01114   3.44254
    R4        3.51313  -0.01162   0.00000  -0.05087  -0.05087   3.46227
    R5        2.88215   0.00680   0.00000   0.00974   0.00974   2.89190
    R6        2.61011   0.01180   0.00000   0.02393   0.02394   2.63405
    R7        2.61021   0.01129   0.00000   0.02297   0.02297   2.63319
    R8        2.61876   0.00849   0.00000   0.01729   0.01728   2.63604
    R9        2.03982   0.00960   0.00000   0.02599   0.02599   2.06581
   R10        2.61847   0.01007   0.00000   0.02028   0.02028   2.63875
   R11        2.04054   0.00914   0.00000   0.02475   0.02475   2.06529
   R12        2.61978   0.00977   0.00000   0.01978   0.01977   2.63956
   R13        2.04095   0.00915   0.00000   0.02481   0.02481   2.06575
   R14        2.61589   0.00977   0.00000   0.01993   0.01993   2.63582
   R15        2.04046   0.00917   0.00000   0.02483   0.02483   2.06530
   R16        2.04002   0.01019   0.00000   0.02758   0.02758   2.06760
   R17        2.86740  -0.00096   0.00000  -0.00303  -0.00303   2.86436
   R18        2.05014   0.00981   0.00000   0.02703   0.02703   2.07718
   R19        2.05836   0.00810   0.00000   0.02263   0.02263   2.08099
   R20        2.65758   0.00177   0.00000   0.00390   0.00390   2.66148
   R21        2.06650   0.00436   0.00000   0.01235   0.01235   2.07885
   R22        2.08168   0.00369   0.00000   0.01074   0.01074   2.09242
   R23        1.82375  -0.00108   0.00000  -0.00195  -0.00195   1.82180
   R24        1.89980   0.01092   0.00000   0.02293   0.02293   1.92273
    A1        1.99913  -0.00597   0.00000  -0.03538  -0.03538   1.96375
    A2        1.99562  -0.00544   0.00000  -0.04708  -0.04750   1.94811
    A3        2.01122  -0.00214   0.00000  -0.01668  -0.01796   1.99326
    A4        1.99921   0.00683   0.00000   0.06060   0.06084   2.06006
    A5        1.73039   0.00265   0.00000  -0.00649  -0.00721   1.72318
    A6        1.92574  -0.00108   0.00000  -0.00346  -0.00309   1.92265
    A7        1.77235  -0.00105   0.00000   0.00934   0.00923   1.78158
    A8        2.12519  -0.00248   0.00000  -0.01013  -0.01015   2.11504
    A9        2.04067   0.00134   0.00000   0.00461   0.00458   2.04525
   A10        2.11729   0.00114   0.00000   0.00542   0.00541   2.12270
   A11        2.07901  -0.00076   0.00000  -0.00288  -0.00287   2.07614
   A12        2.09683   0.00096   0.00000   0.00485   0.00485   2.10168
   A13        2.10728  -0.00020   0.00000  -0.00201  -0.00201   2.10527
   A14        2.09489   0.00027   0.00000   0.00053   0.00053   2.09542
   A15        2.09153  -0.00026   0.00000  -0.00101  -0.00101   2.09052
   A16        2.09676  -0.00001   0.00000   0.00048   0.00048   2.09724
   A17        2.10032   0.00024   0.00000   0.00010   0.00009   2.10041
   A18        2.09077  -0.00017   0.00000  -0.00036  -0.00035   2.09041
   A19        2.09210  -0.00007   0.00000   0.00025   0.00025   2.09235
   A20        2.09039   0.00103   0.00000   0.00430   0.00430   2.09469
   A21        2.09724  -0.00029   0.00000  -0.00080  -0.00081   2.09643
   A22        2.09555  -0.00074   0.00000  -0.00351  -0.00352   2.09204
   A23        2.08446  -0.00192   0.00000  -0.00750  -0.00750   2.07697
   A24        2.06675   0.00123   0.00000   0.00534   0.00532   2.07207
   A25        2.13190   0.00068   0.00000   0.00206   0.00204   2.13395
   A26        1.96347   0.00422   0.00000   0.01919   0.01904   1.98251
   A27        1.83804  -0.00013   0.00000   0.00980   0.00941   1.84745
   A28        1.82646  -0.00554   0.00000  -0.05076  -0.05070   1.77576
   A29        1.95902  -0.00098   0.00000   0.01035   0.00999   1.96901
   A30        1.95496   0.00194   0.00000   0.01423   0.01440   1.96936
   A31        1.91388   0.00008   0.00000  -0.00731  -0.00749   1.90639
   A32        1.96567   0.00013   0.00000   0.00552   0.00553   1.97120
   A33        1.92706  -0.00008   0.00000  -0.00540  -0.00553   1.92153
   A34        1.91319  -0.00214   0.00000  -0.01550  -0.01568   1.89751
   A35        1.84028   0.00049   0.00000   0.00763   0.00765   1.84793
   A36        1.92743   0.00268   0.00000   0.02742   0.02745   1.95488
   A37        1.88773  -0.00101   0.00000  -0.01983  -0.02012   1.86761
   A38        1.90087  -0.00105   0.00000  -0.00620  -0.00620   1.89467
   A39        1.98137  -0.01298   0.00000  -0.07687  -0.07687   1.90449
    D1       -0.81870   0.00063   0.00000   0.02234   0.02157  -0.79714
    D2        1.17020  -0.00130   0.00000  -0.03166  -0.03130   1.13890
    D3       -3.06584   0.00091   0.00000   0.01465   0.01506  -3.05078
    D4        0.54721  -0.00207   0.00000   0.01069   0.01091   0.55813
    D5       -2.58519  -0.00179   0.00000   0.02270   0.02289  -2.56230
    D6       -1.60207   0.00144   0.00000   0.05786   0.05762  -1.54445
    D7        1.54872   0.00173   0.00000   0.06987   0.06959   1.61831
    D8        2.83079   0.00175   0.00000   0.05133   0.05140   2.88219
    D9       -0.30161   0.00203   0.00000   0.06333   0.06337  -0.23824
   D10       -1.19336   0.00419   0.00000   0.06262   0.06258  -1.13078
   D11        2.95072   0.00300   0.00000   0.03202   0.03186   2.98257
   D12        0.93315   0.00534   0.00000   0.05784   0.05760   0.99075
   D13        0.94475  -0.00169   0.00000  -0.00681  -0.00668   0.93807
   D14       -1.19436  -0.00288   0.00000  -0.03741  -0.03741  -1.23177
   D15        3.07126  -0.00055   0.00000  -0.01159  -0.01166   3.05960
   D16        2.91854  -0.00234   0.00000  -0.00989  -0.00966   2.90888
   D17        0.77943  -0.00353   0.00000  -0.04050  -0.04038   0.73905
   D18       -1.23813  -0.00119   0.00000  -0.01467  -0.01464  -1.25277
   D19        0.40902   0.00057   0.00000   0.02388   0.02352   0.43254
   D20       -1.87266   0.00322   0.00000   0.03996   0.03976  -1.83290
   D21        2.58838   0.00106   0.00000   0.04415   0.04471   2.63309
   D22       -3.13892   0.00017   0.00000   0.00731   0.00727  -3.13165
   D23        0.01486   0.00026   0.00000   0.01012   0.01010   0.02496
   D24       -0.00692  -0.00012   0.00000  -0.00524  -0.00525  -0.01217
   D25       -3.13632  -0.00003   0.00000  -0.00242  -0.00242  -3.13874
   D26        3.13774  -0.00014   0.00000  -0.00557  -0.00564   3.13210
   D27        0.00842   0.00015   0.00000   0.00316   0.00311   0.01153
   D28        0.00530   0.00016   0.00000   0.00647   0.00648   0.01178
   D29       -3.12403   0.00045   0.00000   0.01520   0.01523  -3.10880
   D30        0.00394   0.00002   0.00000   0.00115   0.00113   0.00507
   D31       -3.13832  -0.00004   0.00000  -0.00076  -0.00077  -3.13908
   D32        3.13327  -0.00007   0.00000  -0.00164  -0.00166   3.13161
   D33       -0.00899  -0.00012   0.00000  -0.00355  -0.00355  -0.01255
   D34        0.00056   0.00004   0.00000   0.00158   0.00158   0.00214
   D35        3.13923  -0.00006   0.00000  -0.00186  -0.00185   3.13738
   D36       -3.14037   0.00009   0.00000   0.00350   0.00349  -3.13688
   D37       -0.00170  -0.00000   0.00000   0.00006   0.00006  -0.00164
   D38       -0.00221  -0.00000   0.00000  -0.00035  -0.00034  -0.00255
   D39        3.13762  -0.00021   0.00000  -0.00710  -0.00710   3.13052
   D40       -3.14088   0.00010   0.00000   0.00309   0.00310  -3.13778
   D41       -0.00104  -0.00011   0.00000  -0.00366  -0.00367  -0.00471
   D42       -0.00067  -0.00010   0.00000  -0.00360  -0.00360  -0.00427
   D43        3.12818  -0.00040   0.00000  -0.01265  -0.01266   3.11552
   D44       -3.14050   0.00011   0.00000   0.00314   0.00314  -3.13736
   D45       -0.01165  -0.00019   0.00000  -0.00591  -0.00591  -0.01757
   D46        0.88673  -0.00237   0.00000  -0.04969  -0.04974   0.83700
   D47       -1.16527  -0.00301   0.00000  -0.05922  -0.05920  -1.22447
   D48        3.03999  -0.00039   0.00000  -0.02181  -0.02198   3.01801
   D49        2.95614  -0.00030   0.00000  -0.01665  -0.01659   2.93955
   D50        0.90413  -0.00094   0.00000  -0.02618  -0.02604   0.87809
   D51       -1.17379   0.00168   0.00000   0.01123   0.01117  -1.16262
   D52       -1.16507   0.00054   0.00000  -0.00757  -0.00754  -1.17261
   D53        3.06611  -0.00010   0.00000  -0.01709  -0.01700   3.04911
   D54        0.98819   0.00252   0.00000   0.02031   0.02022   1.00841
   D55        0.94790  -0.00049   0.00000  -0.00541  -0.00534   0.94256
   D56        3.05053  -0.00020   0.00000  -0.00396  -0.00396   3.04657
   D57       -1.19741   0.00022   0.00000  -0.00947  -0.00955  -1.20695
         Item               Value     Threshold  Converged?
 Maximum Force            0.012983     0.000450     NO 
 RMS     Force            0.004398     0.000300     NO 
 Maximum Displacement     0.177722     0.001800     NO 
 RMS     Displacement     0.056511     0.001200     NO 
 Predicted change in Energy=-4.749834D-03
 GradGradGradGradGradGradGradGradGradGradGradGradGradGradGradGradGradGrad

                          Input orientation:                          
 ---------------------------------------------------------------------
 Center     Atomic      Atomic             Coordinates (Angstroms)
 Number     Number       Type             X           Y           Z
 ---------------------------------------------------------------------
      1          7           0       -1.578333    0.401311   -1.734719
      2         16           0       -0.941250   -0.637525   -0.800300
      3          6           0        0.686534   -0.087171   -0.195259
      4          6           0        0.960694    1.263783    0.011278
      5          6           0        2.226924    1.634312    0.464276
      6          6           0        3.199026    0.659537    0.698091
      7          6           0        2.912492   -0.689773    0.478331
      8          6           0        1.649100   -1.070116    0.025896
      9          6           0       -1.791009   -0.818155    0.812793
     10          6           0       -1.726818    0.426848    1.674976
     11          8           0       -2.066920    1.599217    0.972510
     12          7           0       -0.861503   -2.087112   -1.284276
     13          1           0       -1.511987    1.350215   -1.366829
     14          1           0        0.189813    2.018365   -0.165876
     15          1           0        2.455716    2.689597    0.632999
     16          1           0        4.191026    0.955487    1.049269
     17          1           0        3.679375   -1.448690    0.652638
     18          1           0        1.392436   -2.113375   -0.181109
     19          1           0       -1.336006   -1.694717    1.295330
     20          1           0       -2.816518   -1.068371    0.499118
     21          1           0       -0.700552    0.581532    2.039701
     22          1           0       -2.367619    0.275974    2.565278
     23          1           0       -2.929744    1.471437    0.561887
     24          1           0       -0.869331   -2.099697   -2.301630
 ---------------------------------------------------------------------
                    Distance matrix (angstroms):
                    1          2          3          4          5
     1  N    0.000000
     2  S    1.535641   0.000000
     3  C    2.781757   1.821714   0.000000
     4  C    3.199847   2.809096   1.393878   0.000000
     5  C    4.564631   4.098502   2.402352   1.394933   0.000000
     6  C    5.367346   4.590144   2.769163   2.418047   1.396365
     7  C    5.124019   4.060659   2.402446   2.800720   2.423133
     8  C    3.959948   2.753116   1.393421   2.433351   2.799997
     9  C    2.832338   1.832153   2.772855   3.542423   4.720153
    10  C    3.413022   2.806599   3.096169   3.269721   4.307649
    11  O    3.000464   3.068061   3.433526   3.194203   4.323961
    12  N    2.628496   1.530325   2.753568   4.028319   5.142452
    13  H    1.019884   2.144249   2.876134   2.832102   4.172902
    14  H    2.863995   2.955595   2.163533   1.093177   2.166660
    15  H    5.207293   4.966232   3.395064   2.157446   1.092904
    16  H    6.429868   5.683207   3.862311   3.406980   2.158868
    17  H    6.063454   4.911130   3.395551   3.893594   3.413208
    18  H    4.190802   2.829774   2.145694   3.410074   3.893334
    19  H    3.692323   2.380157   2.982738   3.959335   4.946468
    20  H    2.946709   2.321798   3.703550   4.465900   5.722064
    21  H    3.879333   3.099942   2.714078   2.709189   3.487180
    22  H    4.373631   3.767774   4.132831   4.310029   5.231550
    23  H    2.871564   3.202715   4.009987   3.934692   5.160163
    24  H    2.660660   2.096930   3.302692   4.473425   5.583893
                    6          7          8          9         10
     6  C    0.000000
     7  C    1.396794   0.000000
     8  C    2.417812   1.394819   0.000000
     9  C    5.205494   4.717125   3.537943   0.000000
    10  C    5.027164   4.919553   4.044401   1.515755   0.000000
    11  O    5.356164   5.502567   4.672282   2.438303   1.408396
    12  N    5.287887   4.393447   3.008980   2.621436   3.978182
    13  H    5.189852   5.209816   4.217837   3.087139   3.186117
    14  H    3.412948   3.893841   3.421258   3.595454   3.097602
    15  H    2.162843   3.413607   3.892897   5.511018   4.868197
    16  H    1.093150   2.160439   3.407601   6.243914   5.974264
    17  H    2.162734   1.092908   2.158273   5.508932   5.812894
    18  H    3.424295   2.184507   1.094128   3.577675   4.430297
    19  H    5.144483   4.441524   3.303399   1.099195   2.190411
    20  H    6.261950   5.741544   4.490622   1.101213   2.192206
    21  H    4.124646   4.136204   3.507736   2.157203   1.100079
    22  H    5.883964   5.759131   4.939074   2.144948   1.107261
    23  H    6.183814   6.229730   5.264275   2.569417   1.943494
    24  H    5.758752   4.900843   3.580490   3.491628   4.788748
                   11         12         13         14         15
    11  O    0.000000
    12  N    4.487218   0.000000
    13  H    2.417118   3.499308   0.000000
    14  H    2.562119   4.383038   2.187426   0.000000
    15  H    4.664594   6.123466   4.640681   2.494609   0.000000
    16  H    6.291436   6.342782   6.206262   4.314625   2.488316
    17  H    6.512447   4.977831   6.233968   4.986730   4.315454
    18  H    5.203972   2.509564   4.673121   4.303232   4.986168
    19  H    3.389461   2.652073   4.048415   4.272027   5.834213
    20  H    2.811054   2.835561   3.321614   4.359837   6.475855
    21  H    2.010359   4.265722   3.585212   2.778814   4.047811
    22  H    2.092439   4.761473   4.165041   4.127419   5.729209
    23  H    0.964056   4.511009   2.396805   3.249677   5.521970
    24  H    5.082930   1.017462   3.631632   4.758326   6.527276
                   16         17         18         19         20
    16  H    0.000000
    17  H    2.489813   0.000000
    18  H    4.331725   2.523297   0.000000
    19  H    6.134509   5.062374   3.130422   0.000000
    20  H    7.314666   6.508828   4.389765   1.793928   0.000000
    21  H    5.004830   5.022898   4.071255   2.477741   3.094009
    22  H    6.765784   6.572579   5.233512   2.561370   2.505552
    23  H    7.156054   7.226053   5.664288   3.619733   2.543106
    24  H    6.794843   5.462806   3.100386   3.649646   3.563616
                   21         22         23         24
    21  H    0.000000
    22  H    1.774460   0.000000
    23  H    2.818717   2.399728   0.000000
    24  H    5.105353   5.619206   5.019764   0.000000
 Stoichiometry    C8H12N2OS
 Framework group  C1[X(C8H12N2OS)]
 Deg. of freedom    66
 Full point group                 C1      NOp   1
 Largest Abelian subgroup         C1      NOp   1
 Largest concise Abelian subgroup C1      NOp   1
                         Standard orientation:                         
 ---------------------------------------------------------------------
 Center     Atomic      Atomic             Coordinates (Angstroms)
 Number     Number       Type             X           Y           Z
 ---------------------------------------------------------------------
      1          7           0        1.715292   -0.397458    1.627983
      2         16           0        1.084787   -0.836555    0.298378
      3          6           0       -0.649764   -0.295510    0.167064
      4          6           0       -1.083198    0.888947    0.760438
      5          6           0       -2.424532    1.252740    0.640788
      6          6           0       -3.311825    0.432790   -0.059376
      7          6           0       -2.864811   -0.755702   -0.641353
      8          6           0       -1.525338   -1.127692   -0.527536
      9          6           0        1.756890    0.024771   -1.172397
     10          6           0        1.466183    1.512286   -1.189736
     11          8           0        1.762807    2.143915    0.033635
     12          7           0        1.210682   -2.307004   -0.106373
     13          1           0        1.509864    0.575342    1.855189
     14          1           0       -0.378631    1.528528    1.298544
     15          1           0       -2.778415    2.179826    1.098740
     16          1           0       -4.362817    0.720429   -0.146873
     17          1           0       -3.564654   -1.399813   -1.179672
     18          1           0       -1.140738   -2.061664   -0.948125
     19          1           0        1.341725   -0.500859   -2.043937
     20          1           0        2.831968   -0.199672   -1.091761
     21          1           0        0.394282    1.685900   -1.365972
     22          1           0        2.012127    1.971211   -2.036706
     23          1           0        2.675756    1.942897    0.269262
     24          1           0        1.337025   -2.873113    0.729562
 ---------------------------------------------------------------------
 Rotational constants (GHZ):           1.2571399           0.6818942           0.5532198
 Standard basis: def2SVP (5D, 7F)
 There are   244 symmetry adapted cartesian basis functions of A   symmetry.
 There are   232 symmetry adapted basis functions of A   symmetry.
   232 basis functions,   396 primitive gaussians,   244 cartesian basis functions
    49 alpha electrons       49 beta electrons
       nuclear repulsion energy       848.2885934520 Hartrees.
 NAtoms=   24 NActive=   24 NUniq=   24 SFac= 1.00D+00 NAtFMM=   60 NAOKFM=F Big=F
 Integral buffers will be    131072 words long.
 Raffenetti 2 integral format.
 Two-electron integral symmetry is turned on.
 Nuclear repulsion after empirical dispersion term =      848.2607486339 Hartrees.
 One-electron integrals computed using PRISM.
   1 Symmetry operations used in ECPInt.
 ECPInt:  NShTT=    6105 NPrTT=   22357 LenC2=    5969 LenP2D=   16556.
 LDataN:  DoStor=T MaxTD1= 4 Len=   56
 NBasis=   232 RedAO= T EigKep=  2.85D-04  NBF=   232
 NBsUse=   232 1.00D-06 EigRej= -1.00D+00 NBFU=   232
 Initial guess from the checkpoint file:  "SDI0054_5.chk"
 B after Tr=    -0.000000   -0.000000   -0.000000
         Rot=    0.999905    0.013753    0.000287   -0.000947 Ang=   1.58 deg.
 ExpMin= 1.22D-01 ExpMax= 9.18D+03 ExpMxC= 1.38D+03 IAcc=3 IRadAn=         5 AccDes= 0.00D+00
 Harris functional with IExCor= 1009 and IRadAn=       5 diagonalized for initial guess.
 HarFok:  IExCor= 1009 AccDes= 0.00D+00 IRadAn=         5 IDoV= 1 UseB2=F ITyADJ=14
 ICtDFT=  3500011 ScaDFX=  1.000000  1.000000  1.000000  1.000000
 FoFCou: FMM=F IPFlag=           0 FMFlag=      100000 FMFlg1=           0
         NFxFlg=           0 DoJE=T BraDBF=F KetDBF=T FulRan=T
         wScrn=  0.000000 ICntrl=       500 IOpCl=  0 I1Cent=   200000004 NGrid=           0
         NMat0=    1 NMatS0=      1 NMatT0=    0 NMatD0=    1 NMtDS0=    0 NMtDT0=    0
 Petite list used in FoFCou.
 Requested convergence on RMS density matrix=1.00D-08 within 128 cycles.
 Requested convergence on MAX density matrix=1.00D-06.
 Requested convergence on             energy=1.00D-06.
 No special actions if energy rises.
 Integral accuracy reduced to 1.0D-05 until final iterations.
 Initial convergence to 1.0D-05 achieved.  Increase integral accuracy.
 SCF Done:  E(RPBE1PBE) =  -893.672892098     A.U. after   12 cycles
            NFock= 12  Conv=0.91D-08     -V/T= 2.0064
   1 Symmetry operations used in ECPInt.
 ECPInt:  NShTT=    6105 NPrTT=   22357 LenC2=    5969 LenP2D=   16556.
 LDataN:  DoStor=T MaxTD1= 5 Len=  102
 Calling FoFJK, ICntrl=      2127 FMM=F ISym2X=0 I1Cent= 0 IOpClX= 0 NMat=1 NMatS=1 NMatT=0.
 ***** Axes restored to original set *****
 -------------------------------------------------------------------
 Center     Atomic                   Forces (Hartrees/Bohr)
 Number     Number              X              Y              Z
 -------------------------------------------------------------------
      1        7          -0.003959915   -0.000357425   -0.005497830
      2       16           0.001866018    0.006376246    0.010596028
      3        6           0.000865154   -0.000318171   -0.001873070
      4        6           0.001634795    0.000137785    0.000028796
      5        6          -0.000604712   -0.001044745   -0.000093685
      6        6          -0.000371383   -0.000796259   -0.000212794
      7        6          -0.000255636    0.001402831   -0.000058451
      8        6           0.000830025    0.001503955   -0.000102046
      9        6           0.003357165    0.002633888   -0.003161939
     10        6          -0.001007177    0.001325766   -0.002299895
     11        8          -0.000252794   -0.000977639    0.002765596
     12        7          -0.004225028   -0.007946424    0.000157334
     13        1           0.001919425   -0.001586447    0.001473189
     14        1           0.000708521   -0.000420793    0.000594810
     15        1           0.000014604   -0.000274977   -0.000086583
     16        1          -0.000311211   -0.000154343   -0.000093390
     17        1          -0.000069045    0.000202949   -0.000018320
     18        1          -0.000168733    0.000618455    0.000172959
     19        1          -0.001156161   -0.000183883    0.000569452
     20        1          -0.000534184   -0.001230586   -0.000255181
     21        1          -0.000135619   -0.000386569    0.000702019
     22        1          -0.000009304    0.000095441    0.000064980
     23        1          -0.000432822   -0.000268834   -0.000194695
     24        1           0.002298018    0.001649779   -0.003177285
 -------------------------------------------------------------------
 Cartesian Forces:  Max     0.010596028 RMS     0.002283609

 GradGradGradGradGradGradGradGradGradGradGradGradGradGradGradGradGradGrad
 Berny optimization.
 Using GEDIIS/GDIIS optimizer.
 FormGI is forming the generalized inverse of G from B-inverse, IUseBI=4.
 Internal  Forces:  Max     0.006818826 RMS     0.001410091
 Search for a local minimum.
 Step number   2 out of a maximum of  130
 All quantities printed in internal units (Hartrees-Bohrs-Radians)
 Mixed Optimization -- RFO/linear search
 Update second derivatives using D2CorX and points    1    2
 DE= -4.58D-03 DEPred=-4.75D-03 R= 9.64D-01
 TightC=F SS=  1.41D+00  RLast= 2.70D-01 DXNew= 5.0454D-01 8.0869D-01
 Trust test= 9.64D-01 RLast= 2.70D-01 DXMaxT set to 5.05D-01
 ITU=  1  0
 Use linear search instead of GDIIS.
     Eigenvalues ---    0.00228   0.00234   0.00544   0.01513   0.01608
     Eigenvalues ---    0.02274   0.02277   0.02278   0.02285   0.02295
     Eigenvalues ---    0.02306   0.02318   0.02332   0.03425   0.03558
     Eigenvalues ---    0.03602   0.04710   0.04891   0.05904   0.07438
     Eigenvalues ---    0.08219   0.08643   0.09742   0.11765   0.12147
     Eigenvalues ---    0.13978   0.14167   0.15996   0.15998   0.15999
     Eigenvalues ---    0.16000   0.16000   0.16000   0.16139   0.16216
     Eigenvalues ---    0.18814   0.21013   0.21999   0.22000   0.22020
     Eigenvalues ---    0.22460   0.23647   0.24238   0.25128   0.30629
     Eigenvalues ---    0.33513   0.34410   0.34798   0.35440   0.35998
     Eigenvalues ---    0.36018   0.36020   0.36054   0.36832   0.43673
     Eigenvalues ---    0.43827   0.44602   0.46046   0.46765   0.48052
     Eigenvalues ---    0.48267   0.48760   0.50684   0.54426   0.67251
     Eigenvalues ---    0.69036
 RFO step:  Lambda=-1.99135716D-03 EMin= 2.27664380D-03
 Quartic linear search produced a step of  0.02553.
 Iteration  1 RMS(Cart)=  0.10241284 RMS(Int)=  0.00240971
 Iteration  2 RMS(Cart)=  0.00398488 RMS(Int)=  0.00006539
 Iteration  3 RMS(Cart)=  0.00000712 RMS(Int)=  0.00006517
 Iteration  4 RMS(Cart)=  0.00000000 RMS(Int)=  0.00006517
 Variable       Old X    -DE/DX   Delta X   Delta X   Delta X     New X
                                 (Linear)    (Quad)   (Total)
    R1        2.90194   0.00198   0.00030   0.00516   0.00546   2.90740
    R2        1.92730  -0.00082   0.00064   0.00290   0.00354   1.93085
    R3        3.44254   0.00171  -0.00028   0.00515   0.00486   3.44740
    R4        3.46227  -0.00162  -0.00130  -0.01683  -0.01813   3.44413
    R5        2.89190   0.00682   0.00025   0.01189   0.01214   2.90404
    R6        2.63405  -0.00011   0.00061   0.00431   0.00493   2.63898
    R7        2.63319  -0.00104   0.00059   0.00217   0.00276   2.63594
    R8        2.63604  -0.00113   0.00044   0.00086   0.00131   2.63735
    R9        2.06581  -0.00089   0.00066   0.00233   0.00299   2.06879
   R10        2.63875  -0.00120   0.00052   0.00118   0.00169   2.64044
   R11        2.06529  -0.00028   0.00063   0.00382   0.00445   2.06974
   R12        2.63956  -0.00213   0.00050  -0.00093  -0.00043   2.63913
   R13        2.06575  -0.00035   0.00063   0.00360   0.00424   2.06999
   R14        2.63582  -0.00068   0.00051   0.00223   0.00274   2.63857
   R15        2.06530  -0.00019   0.00063   0.00407   0.00470   2.07000
   R16        2.06760  -0.00058   0.00070   0.00348   0.00418   2.07179
   R17        2.86436   0.00034  -0.00008   0.00056   0.00048   2.86484
   R18        2.07718  -0.00008   0.00069   0.00478   0.00547   2.08265
   R19        2.08099   0.00085   0.00058   0.00667   0.00725   2.08824
   R20        2.66148  -0.00215   0.00010  -0.00418  -0.00408   2.65740
   R21        2.07885   0.00005   0.00032   0.00244   0.00276   2.08161
   R22        2.09242   0.00004   0.00027   0.00213   0.00240   2.09482
   R23        1.82180   0.00051  -0.00005   0.00058   0.00053   1.82234
   R24        1.92273   0.00314   0.00059   0.01109   0.01167   1.93440
    A1        1.96375  -0.00512  -0.00090  -0.03874  -0.03964   1.92411
    A2        1.94811  -0.00047  -0.00121  -0.00501  -0.00638   1.94173
    A3        1.99326   0.00010  -0.00046   0.00098   0.00043   1.99369
    A4        2.06006  -0.00156   0.00155  -0.01531  -0.01379   2.04626
    A5        1.72318   0.00320  -0.00018   0.02942   0.02918   1.75237
    A6        1.92265   0.00027  -0.00008   0.00159   0.00142   1.92408
    A7        1.78158  -0.00072   0.00024  -0.00369  -0.00354   1.77804
    A8        2.11504   0.00167  -0.00026   0.00475   0.00447   2.11950
    A9        2.04525  -0.00014   0.00012   0.00015   0.00024   2.04550
   A10        2.12270  -0.00153   0.00014  -0.00511  -0.00498   2.11772
   A11        2.07614   0.00046  -0.00007   0.00169   0.00162   2.07776
   A12        2.10168   0.00010   0.00012   0.00177   0.00188   2.10356
   A13        2.10527  -0.00055  -0.00005  -0.00358  -0.00364   2.10163
   A14        2.09542   0.00040   0.00001   0.00175   0.00176   2.09718
   A15        2.09052  -0.00014  -0.00003  -0.00064  -0.00067   2.08986
   A16        2.09724  -0.00026   0.00001  -0.00111  -0.00110   2.09614
   A17        2.10041  -0.00037   0.00000  -0.00214  -0.00215   2.09826
   A18        2.09041   0.00025  -0.00001   0.00141   0.00140   2.09181
   A19        2.09235   0.00013   0.00001   0.00074   0.00075   2.09309
   A20        2.09469   0.00014   0.00011   0.00103   0.00114   2.09583
   A21        2.09643  -0.00017  -0.00002  -0.00088  -0.00090   2.09552
   A22        2.09204   0.00003  -0.00009  -0.00015  -0.00024   2.09180
   A23        2.07697   0.00092  -0.00019   0.00274   0.00255   2.07952
   A24        2.07207  -0.00075   0.00014  -0.00290  -0.00277   2.06930
   A25        2.13395  -0.00017   0.00005   0.00016   0.00021   2.13415
   A26        1.98251   0.00591   0.00049   0.03584   0.03616   2.01868
   A27        1.84745  -0.00162   0.00024   0.00242   0.00238   1.84983
   A28        1.77576  -0.00202  -0.00129  -0.01608  -0.01735   1.75841
   A29        1.96901  -0.00153   0.00026  -0.00317  -0.00330   1.96572
   A30        1.96936  -0.00114   0.00037  -0.00424  -0.00375   1.96561
   A31        1.90639   0.00030  -0.00019  -0.01644  -0.01671   1.88968
   A32        1.97120   0.00243   0.00014   0.01358   0.01365   1.98485
   A33        1.92153  -0.00036  -0.00014   0.00204   0.00173   1.92327
   A34        1.89751  -0.00077  -0.00040  -0.01129  -0.01168   1.88583
   A35        1.84793  -0.00001   0.00020   0.01152   0.01159   1.85951
   A36        1.95488  -0.00134   0.00070  -0.00715  -0.00639   1.94849
   A37        1.86761  -0.00004  -0.00051  -0.00916  -0.00969   1.85792
   A38        1.89467  -0.00035  -0.00016  -0.00335  -0.00350   1.89116
   A39        1.90449  -0.00298  -0.00196  -0.03292  -0.03488   1.86961
    D1       -0.79714  -0.00129   0.00055  -0.00372  -0.00311  -0.80025
    D2        1.13890   0.00247  -0.00080   0.03041   0.02958   1.16848
    D3       -3.05078   0.00026   0.00038   0.01345   0.01381  -3.03697
    D4        0.55813   0.00148   0.00028   0.06452   0.06479   0.62292
    D5       -2.56230   0.00165   0.00058   0.07548   0.07608  -2.48622
    D6       -1.54445  -0.00020   0.00147   0.04927   0.05076  -1.49370
    D7        1.61831  -0.00003   0.00178   0.06023   0.06205   1.68035
    D8        2.88219  -0.00085   0.00131   0.04031   0.04158   2.92376
    D9       -0.23824  -0.00068   0.00162   0.05127   0.05287  -0.18537
   D10       -1.13078  -0.00081   0.00160   0.08006   0.08174  -1.04904
   D11        2.98257  -0.00150   0.00081   0.05931   0.06002   3.04259
   D12        0.99075  -0.00045   0.00147   0.08301   0.08438   1.07513
   D13        0.93807   0.00058  -0.00017   0.09210   0.09208   1.03015
   D14       -1.23177  -0.00011  -0.00095   0.07135   0.07036  -1.16141
   D15        3.05960   0.00095  -0.00030   0.09504   0.09472  -3.12887
   D16        2.90888   0.00163  -0.00025   0.10157   0.10146   3.01034
   D17        0.73905   0.00094  -0.00103   0.08082   0.07974   0.81879
   D18       -1.25277   0.00200  -0.00037   0.10452   0.10410  -1.14867
   D19        0.43254   0.00134   0.00060   0.04269   0.04325   0.47579
   D20       -1.83290   0.00319   0.00102   0.06254   0.06353  -1.76937
   D21        2.63309  -0.00014   0.00114   0.03097   0.03217   2.66526
   D22       -3.13165   0.00010   0.00019   0.00652   0.00670  -3.12495
   D23        0.02496   0.00029   0.00026   0.01513   0.01540   0.04036
   D24       -0.01217  -0.00006  -0.00013  -0.00486  -0.00498  -0.01716
   D25       -3.13874   0.00014  -0.00006   0.00375   0.00371  -3.13503
   D26        3.13210  -0.00013  -0.00014  -0.00821  -0.00832   3.12378
   D27        0.01153  -0.00016   0.00008  -0.00796  -0.00786   0.00366
   D28        0.01178   0.00000   0.00017   0.00268   0.00283   0.01461
   D29       -3.10880  -0.00003   0.00039   0.00292   0.00329  -3.10551
   D30        0.00507   0.00009   0.00003   0.00410   0.00413   0.00921
   D31       -3.13908   0.00005  -0.00002   0.00210   0.00208  -3.13700
   D32        3.13161  -0.00010  -0.00004  -0.00448  -0.00450   3.12711
   D33       -0.01255  -0.00014  -0.00009  -0.00648  -0.00656  -0.01910
   D34        0.00214  -0.00004   0.00004  -0.00121  -0.00117   0.00097
   D35        3.13738  -0.00002  -0.00005  -0.00127  -0.00131   3.13607
   D36       -3.13688  -0.00000   0.00009   0.00080   0.00089  -3.13599
   D37       -0.00164   0.00002   0.00000   0.00074   0.00075  -0.00089
   D38       -0.00255  -0.00002  -0.00001  -0.00101  -0.00102  -0.00357
   D39        3.13052   0.00001  -0.00018  -0.00103  -0.00121   3.12931
   D40       -3.13778  -0.00004   0.00008  -0.00096  -0.00088  -3.13866
   D41       -0.00471  -0.00001  -0.00009  -0.00098  -0.00107  -0.00578
   D42       -0.00427   0.00003  -0.00009   0.00028   0.00018  -0.00409
   D43        3.11552   0.00006  -0.00032  -0.00001  -0.00033   3.11519
[...]
 Alpha virt. eigenvalues --    2.43292   2.44504   2.46543   2.47735   2.50009
 Alpha virt. eigenvalues --    2.50425   2.50899   2.53323   2.54821   2.55283
 Alpha virt. eigenvalues --    2.57281   2.58545   2.59634   2.60917   2.61583
 Alpha virt. eigenvalues --    2.62719   2.64101   2.64720   2.65274   2.66466
 Alpha virt. eigenvalues --    2.67059   2.67634   2.68825   2.69338   2.73174
 Alpha virt. eigenvalues --    2.74009   2.74330   2.76266   2.77220   2.77542
 Alpha virt. eigenvalues --    2.78183   2.78788   2.81291   2.81696   2.82748
 Alpha virt. eigenvalues --    2.84332   2.84839   2.85454   2.87890   2.89995
 Alpha virt. eigenvalues --    2.92221   2.92580   2.93396   2.96850   2.98524
 Alpha virt. eigenvalues --    3.00071   3.02932   3.04315   3.08752   3.09338
 Alpha virt. eigenvalues --    3.11047   3.11631   3.11998   3.12875   3.13125
 Alpha virt. eigenvalues --    3.14794   3.15751   3.17875   3.18409   3.20055
 Alpha virt. eigenvalues --    3.21711   3.22559   3.23858   3.24285   3.25408
 Alpha virt. eigenvalues --    3.27257   3.27421   3.29260   3.31347   3.33351
 Alpha virt. eigenvalues --    3.33843   3.35285   3.35743   3.36662   3.38305
 Alpha virt. eigenvalues --    3.39772   3.41309   3.42269   3.44434   3.45200
 Alpha virt. eigenvalues --    3.45921   3.48145   3.49529   3.50439   3.51312
 Alpha virt. eigenvalues --    3.53553   3.53723   3.55775   3.56759   3.62883
 Alpha virt. eigenvalues --    3.65886   3.67526   3.70039   3.73301   3.76064
 Alpha virt. eigenvalues --    3.78564   3.79957   3.81708   3.84498   3.86948
 Alpha virt. eigenvalues --    3.91671   3.92543   3.95148   3.96090   3.99380
 Alpha virt. eigenvalues --    4.00426   4.02240   4.05157   4.06305   4.06654
 Alpha virt. eigenvalues --    4.07250   4.12455   4.12889   4.15309   4.18187
 Alpha virt. eigenvalues --    4.19130   4.20025   4.20833   4.21661   4.22588
 Alpha virt. eigenvalues --    4.23037   4.25102   4.26530   4.26679   4.29302
 Alpha virt. eigenvalues --    4.30514   4.34903   4.35287   4.36999   4.40041
 Alpha virt. eigenvalues --    4.42412   4.52352   4.56399   4.57307   4.59489
 Alpha virt. eigenvalues --    4.62532   4.63373   4.63668   4.66654   4.68738
 Alpha virt. eigenvalues --    4.70526   4.71891   4.72550   4.76996   4.80120
 Alpha virt. eigenvalues --    4.83912   4.87164   4.90946   4.92299   4.96151
 Alpha virt. eigenvalues --    5.04948   5.12387   5.13616   5.17239   5.19439
 Alpha virt. eigenvalues --    5.20411   5.21430   5.22667   5.26761   5.32169
 Alpha virt. eigenvalues --    5.34439   5.38740   5.42232   5.50552   5.54617
 Alpha virt. eigenvalues --    5.57152   5.60156   5.79505   5.85557   6.01609
 Alpha virt. eigenvalues --    6.33761   6.51213   6.76847   6.82747   7.03482
 Alpha virt. eigenvalues --    7.22263   9.47737   9.56547   9.63128  21.64899
 Alpha virt. eigenvalues --   22.05983  22.48993  22.55807  22.62125  22.63246
 Alpha virt. eigenvalues --   22.74161  22.81113  23.15189  31.93982  32.01421
 Alpha virt. eigenvalues --   43.97832
          Condensed to atoms (all electrons):
               1          2          3          4          5          6
     1  N    7.058560   0.436159  -0.075787   0.004011  -0.000256   0.000386
     2  S    0.436159  14.073682   0.236449  -0.023384   0.007752  -0.001331
     3  C   -0.075787   0.236449   5.400477   0.293203   0.077003  -0.121144
     4  C    0.004011  -0.023384   0.293203   5.264162   0.337293   0.060954
     5  C   -0.000256   0.007752   0.077003   0.337293   4.982842   0.432970
     6  C    0.000386  -0.001331  -0.121144   0.060954   0.432970   4.892033
     7  C   -0.001133   0.007280   0.038664  -0.102240   0.039185   0.442612
     8  C    0.017681  -0.030335   0.337368  -0.069045  -0.095801   0.046177
     9  C   -0.090471   0.318618  -0.023968   0.002569   0.002852  -0.001186
    10  C    0.018173   0.002623   0.013355  -0.007970  -0.001550   0.000436
    11  O   -0.039826  -0.020072  -0.003398  -0.001138  -0.000483   0.000040
    12  N   -0.069174   0.508566  -0.076548   0.015872  -0.000678  -0.000063
    13  H    0.312152  -0.016242   0.001712  -0.003299   0.000449  -0.000103
    14  H    0.022654  -0.004880  -0.068655   0.444448  -0.060091   0.012506
    15  H   -0.000013  -0.000078   0.012632  -0.053875   0.428386  -0.051268
    16  H    0.000002   0.000032  -0.003124   0.011271  -0.049202   0.424017
    17  H    0.000007  -0.000173   0.013052  -0.001471   0.009574  -0.050872
    18  H    0.001468  -0.001851  -0.062421   0.006799  -0.003447   0.010548
    19  H    0.005603  -0.023288   0.001936  -0.001321   0.000734  -0.000367
    20  H    0.001523  -0.025953   0.007072  -0.000893   0.000080  -0.000012
    21  H   -0.001354  -0.003622   0.015064  -0.013868   0.008195  -0.001986
    22  H   -0.000123   0.003961  -0.001062   0.001145  -0.000144   0.000049
    23  H    0.038704  -0.004228   0.000808  -0.000187  -0.000082   0.000018
    24  H   -0.005442  -0.014443   0.005322   0.001301   0.000240  -0.000204
               7          8          9         10         11         12
     1  N   -0.001133   0.017681  -0.090471   0.018173  -0.039826  -0.069174
     2  S    0.007280  -0.030335   0.318618   0.002623  -0.020072   0.508566
     3  C    0.038664   0.337368  -0.023968   0.013355  -0.003398  -0.076548
     4  C   -0.102240  -0.069045   0.002569  -0.007970  -0.001138   0.015872
     5  C    0.039185  -0.095801   0.002852  -0.001550  -0.000483  -0.000678
     6  C    0.442612   0.046177  -0.001186   0.000436   0.000040  -0.000063
     7  C    4.947847   0.404549   0.001240  -0.000407  -0.000027   0.002538
     8  C    0.404549   5.205934  -0.021759   0.006951   0.000334   0.001594
     9  C    0.001240  -0.021759   5.160962   0.281577  -0.028551  -0.081817
    10  C   -0.000407   0.006951   0.281577   4.701045   0.316688   0.007402
    11  O   -0.000027   0.000334  -0.028551   0.316688   7.982666  -0.000496
    12  N    0.002538   0.001594  -0.081817   0.007402  -0.000496   6.919243
    13  H    0.000083   0.000623   0.010652  -0.002629   0.002079  -0.004525
    14  H   -0.004638   0.009692  -0.003068   0.002680   0.002945   0.001041
    15  H    0.010690  -0.002378   0.000049  -0.000061  -0.000010   0.000009
    16  H   -0.049716   0.010467  -0.000007   0.000003   0.000000   0.000001
    17  H    0.424125  -0.050859   0.000065  -0.000011  -0.000000   0.000018
    18  H   -0.047287   0.434312  -0.004094   0.000770   0.000006   0.021677
    19  H    0.001348  -0.005972   0.368692  -0.021732   0.005826   0.003221
    20  H    0.000051  -0.000014   0.372144  -0.014992   0.002944   0.012382
    21  H    0.001728  -0.004420  -0.058650   0.398996  -0.050132   0.000568
    22  H   -0.000112   0.000153  -0.022210   0.385082  -0.038440  -0.000493
    23  H   -0.000012  -0.000234  -0.003408  -0.039032   0.312798   0.000150
    24  H    0.000044  -0.008840   0.010660  -0.000929   0.000031   0.306321
              13         14         15         16         17         18
     1  N    0.312152   0.022654  -0.000013   0.000002   0.000007   0.001468
     2  S   -0.016242  -0.004880  -0.000078   0.000032  -0.000173  -0.001851
     3  C    0.001712  -0.068655   0.012632  -0.003124   0.013052  -0.062421
     4  C   -0.003299   0.444448  -0.053875   0.011271  -0.001471   0.006799
     5  C    0.000449  -0.060091   0.428386  -0.049202   0.009574  -0.003447
     6  C   -0.000103   0.012506  -0.051268   0.424017  -0.050872   0.010548
     7  C    0.000083  -0.004638   0.010690  -0.049716   0.424125  -0.047287
     8  C    0.000623   0.009692  -0.002378   0.010467  -0.050859   0.434312
     9  C    0.010652  -0.003068   0.000049  -0.000007   0.000065  -0.004094
    10  C   -0.002629   0.002680  -0.000061   0.000003  -0.000011   0.000770
    11  O    0.002079   0.002945  -0.000010   0.000000  -0.000000   0.000006
    12  N   -0.004525   0.001041   0.000009   0.000001   0.000018   0.021677
    13  H    0.487918  -0.002053   0.000012  -0.000000   0.000001  -0.000080
    14  H   -0.002053   0.492876  -0.006966  -0.000087   0.000070  -0.000167
    15  H    0.000012  -0.006966   0.540201  -0.007310  -0.000218   0.000057
    16  H   -0.000000  -0.000087  -0.007310   0.541858  -0.007200  -0.000125
    17  H    0.000001   0.000070  -0.000218  -0.007200   0.541618  -0.006847
    18  H   -0.000080  -0.000167   0.000057  -0.000125  -0.006847   0.489055
    19  H   -0.000378  -0.000523   0.000009  -0.000002  -0.000009   0.000685
    20  H   -0.000501  -0.000209  -0.000001   0.000000  -0.000002  -0.000157
    21  H   -0.000017  -0.009349   0.000184  -0.000011   0.000008  -0.000261
    22  H    0.000093   0.000405  -0.000002   0.000000  -0.000000   0.000014
    23  H   -0.000205   0.000846  -0.000006   0.000000  -0.000000  -0.000008
    24  H    0.002755  -0.000100   0.000001  -0.000001   0.000025  -0.004092
              19         20         21         22         23         24
     1  N    0.005603   0.001523  -0.001354  -0.000123   0.038704  -0.005442
     2  S   -0.023288  -0.025953  -0.003622   0.003961  -0.004228  -0.014443
     3  C    0.001936   0.007072   0.015064  -0.001062   0.000808   0.005322
     4  C   -0.001321  -0.000893  -0.013868   0.001145  -0.000187   0.001301
     5  C    0.000734   0.000080   0.008195  -0.000144  -0.000082   0.000240
     6  C   -0.000367  -0.000012  -0.001986   0.000049   0.000018  -0.000204
     7  C    0.001348   0.000051   0.001728  -0.000112  -0.000012   0.000044
     8  C   -0.005972  -0.000014  -0.004420   0.000153  -0.000234  -0.008840
     9  C    0.368692   0.372144  -0.058650  -0.022210  -0.003408   0.010660
    10  C   -0.021732  -0.014992   0.398996   0.385082  -0.039032  -0.000929
    11  O    0.005826   0.002944  -0.050132  -0.038440   0.312798   0.000031
    12  N    0.003221   0.012382   0.000568  -0.000493   0.000150   0.306321
    13  H   -0.000378  -0.000501  -0.000017   0.000093  -0.000205   0.002755
    14  H   -0.000523  -0.000209  -0.009349   0.000405   0.000846  -0.000100
    15  H    0.000009  -0.000001   0.000184  -0.000002  -0.000006   0.000001
    16  H   -0.000002   0.000000  -0.000011   0.000000   0.000000  -0.000001
    17  H   -0.000009  -0.000002   0.000008  -0.000000  -0.000000   0.000025
    18  H    0.000685  -0.000157  -0.000261   0.000014  -0.000008  -0.004092
    19  H    0.533117  -0.011553   0.008049  -0.006449  -0.000205  -0.000289
    20  H   -0.011553   0.504475   0.008513  -0.010411  -0.000705  -0.000677
    21  H    0.008049   0.008513   0.657085  -0.052302  -0.004326   0.000008
    22  H   -0.006449  -0.010411  -0.052302   0.623723   0.008444   0.000029
    23  H   -0.000205  -0.000705  -0.004326   0.008444   0.351746   0.000023
    24  H   -0.000289  -0.000677   0.000008   0.000029   0.000023   0.491760
 Mulliken charges:
               1
     1  N   -0.633505
     2  S    0.574757
     3  C   -0.018010
     4  C   -0.164336
     5  C   -0.115820
     6  C   -0.094210
     7  C   -0.116413
     8  C   -0.186180
     9  C   -0.190891
    10  C   -0.046466
    11  O   -0.443784
    12  N   -0.566810
    13  H    0.211505
    14  H    0.170624
    15  H    0.129954
    16  H    0.129137
    17  H    0.129099
    18  H    0.165444
    19  H    0.142866
    20  H    0.156895
    21  H    0.101899
    22  H    0.108650
    23  H    0.339101
    24  H    0.216496
 Sum of Mulliken charges =  -0.00000
 Mulliken charges with hydrogens summed into heavy atoms:
               1
     1  N   -0.422000
     2  S    0.574757
     3  C   -0.018010
     4  C    0.006288
     5  C    0.014134
     6  C    0.034927
     7  C    0.012686
     8  C   -0.020736
     9  C    0.108869
    10  C    0.164083
    11  O   -0.104684
    12  N   -0.350314
 Electronic spatial extent (au):  <R**2>=           2355.8350
 Charge=             -0.0000 electrons
 Dipole moment (field-independent basis, Debye):
    X=             -4.8375    Y=              0.0108    Z=             -0.3999  Tot=              4.8540
 Quadrupole moment (field-independent basis, Debye-Ang):
   XX=            -82.7235   YY=            -84.3070   ZZ=            -73.3664
   XY=             -3.4337   XZ=             -1.8230   YZ=             -0.1760
 Traceless Quadrupole moment (field-independent basis, Debye-Ang):
   XX=             -2.5912   YY=             -4.1747   ZZ=              6.7659
   XY=             -3.4337   XZ=             -1.8230   YZ=             -0.1760
 Octapole moment (field-independent basis, Debye-Ang**2):
  XXX=            -49.8788  YYY=              7.7351  ZZZ=              6.9829  XYY=            -25.9386
  XXY=             -7.7781  XXZ=            -16.3788  XZZ=             15.3009  YZZ=             -2.6268
  YYZ=             11.7442  XYZ=             -6.5516
 Hexadecapole moment (field-independent basis, Debye-Ang**3):
 XXXX=          -1958.6536 YYYY=           -793.5545 ZZZZ=           -357.8741 XXXY=            -76.8921
 XXXZ=             22.1066 YYYX=              9.9183 YYYZ=            -15.3739 ZZZX=             -2.0588
 ZZZY=            -10.9628 XXYY=           -495.4082 XXZZ=           -394.4110 YYZZ=           -174.5672
 XXYZ=             27.0446 YYXZ=             -1.5926 ZZXY=             15.6313
 N-N= 8.403277285460D+02 E-N=-3.782530524642D+03  KE= 8.911477277778D+02
 Breneman (CHELPG) radii used.
 Read replacement radii for each type of atom:
 Atom Element Radius
    1     7    1.70
    2    16    2.00
    3     6    1.50
    4     6    1.50
    5     6    1.50
    6     6    1.50
    7     6    1.50
    8     6    1.50
    9     6    1.50
   10     6    1.50
   11     8    1.70
   12     7    1.70
   13     1    1.45
   14     1    1.45
   15     1    1.45
   16     1    1.45
   17     1    1.45
   18     1    1.45
   19     1    1.45
   20     1    1.45
   21     1    1.45
   22     1    1.45
   23     1    1.45
   24     1    1.45
 Generate Potential Derived Charges using the Breneman model, NDens= 1.
 Grid spacing= 0.300 Box extension= 2.800
 NStep X,Y,Z=   44     38     35   Total possible points=       58520
 Number of Points to Fit=   14921

 **********************************************************************

            Electrostatic Properties Using The SCF Density.

 **********************************************************************

       Atomic Center    1 is at   1.582091 -0.055598  1.495538
       Atomic Center    2 is at   0.890669 -0.847373  0.338116
       Atomic Center    3 is at  -0.800865 -0.215243  0.140566
       Atomic Center    4 is at  -1.157885  0.998425  0.724658
       Atomic Center    5 is at  -2.464253  1.461649  0.576348
       Atomic Center    6 is at  -3.392939  0.712796 -0.146519
       Atomic Center    7 is at  -3.024172 -0.504678 -0.720988
       Atomic Center    8 is at  -1.721903 -0.977538 -0.576674
       Atomic Center    9 is at   1.744498 -0.238352 -1.106849
       Atomic Center   10 is at   1.961918  1.269005 -1.102298
       Atomic Center   11 is at   2.870068  1.690053 -0.146579
       Atomic Center   12 is at   0.894064 -2.381258  0.135778
       Atomic Center   13 is at   1.195274 -0.329702  2.400156
       Atomic Center   14 is at  -0.407947  1.556694  1.290230
       Atomic Center   15 is at  -2.758669  2.411391  1.028861
       Atomic Center   16 is at  -4.416077  1.079012 -0.259692
       Atomic Center   17 is at  -3.757139 -1.091053 -1.280014
       Atomic Center   18 is at  -1.404070 -1.933651 -1.000129
       Atomic Center   19 is at   1.149618 -0.592959 -1.959908
       Atomic Center   20 is at   2.697868 -0.787197 -1.075596
       Atomic Center   21 is at   0.973967  1.772613 -1.019597
       Atomic Center   22 is at   2.353657  1.535610 -2.098722
       Atomic Center   23 is at   2.585707  1.267590  0.692114
       Atomic Center   24 is at   0.377082 -2.829195  0.896397
   14921 points will be used for fitting atomic charges
 Fitting point charges to electrostatic potential
 Charges from ESP fit, RMS=   0.00336 RRMS=   0.19427:
 ESP charges:
               1
     1  N   -0.740496
     2  S    0.613105
     3  C    0.014833
     4  C   -0.049693
     5  C   -0.121946
     6  C   -0.049112
     7  C   -0.119683
     8  C   -0.081597
     9  C   -0.263241
    10  C    0.401045
    11  O   -0.644489
    12  N   -0.716668
    13  H    0.315242
    14  H    0.097492
    15  H    0.108208
    16  H    0.093763
    17  H    0.107041
    18  H    0.108846
    19  H    0.101703
    20  H    0.166436
    21  H   -0.071905
    22  H    0.015887
    23  H    0.401655
    24  H    0.313574
 Sum of ESP charges =  -0.00000
 ESP charges with hydrogens summed into heavy atoms:
               1
     1  N   -0.425254
     2  S    0.613105
     3  C    0.014833
     4  C    0.047799
     5  C   -0.013738
     6  C    0.044651
     7  C   -0.012642
     8  C    0.027249
     9  C    0.004898
    10  C    0.345028
    11  O   -0.242834
    12  N   -0.403094
 Charge=  -0.00000 Dipole=    -4.8682    -0.0238    -0.3512 Tot=     4.8809
 -----------------------------------------------------------------

              Electrostatic Properties (Atomic Units)

 -----------------------------------------------------------------
    Center     Electric         -------- Electric Field --------
               Potential          X             Y             Z
 -----------------------------------------------------------------
    1 Atom    -18.413245
    2 Atom    -59.066437
    3 Atom    -14.723091
    4 Atom    -14.736940
    5 Atom    -14.739053
    6 Atom    -14.737407
    7 Atom    -14.738834
    8 Atom    -14.736903
    9 Atom    -14.725230
   10 Atom    -14.708593
   11 Atom    -22.370742
   12 Atom    -18.418925
   13 Atom     -1.037128
   14 Atom     -1.081146
   15 Atom     -1.082337
   16 Atom     -1.081212
   17 Atom     -1.081960
   18 Atom     -1.080588
   19 Atom     -1.072119
   20 Atom     -1.076927
   21 Atom     -1.118049
   22 Atom     -1.111501
   23 Atom     -1.027156
   24 Atom     -1.039669
 -----------------------------------------------------------------
 Unable to Open any file for archive entry.
 1\1\GINC-NOTCH344\SP\RPBE1PBE\def2TZVP\C8H12N2O1S1\U1414944\10-Feb-202
 5\0\\#N Guess=Read Geom=Check Integral(Ultrafine) Density Pop=(ChelpG,
 ReadRadii) NMR pbe1pbe EmpiricalDispersion=GD3BJ def2TZVP\\SDI0054_5\\
 0,1\N,0,-1.6862559985,0.7859329085,-1.1578271682\S,0,-0.9723344125,-0.
 5061554972,-0.6426365417\C,0,0.7170177203,-0.0669242272,-0.1395799853\
 C,0,1.0564200833,1.2714057474,0.0482954295\C,0,2.3612316597,1.59225365
 31,0.4193664022\C,0,3.3058318754,0.5811074947,0.5956870512\C,0,2.95457
 40142,-0.7551939191,0.397788834\C,0,1.6539922288,-1.0862117978,0.02464
 04194\C,0,-1.8099571123,-0.8168534954,0.903232175\C,0,-2.0388380381,0.
 4346032572,1.7404216565\O,0,-2.9637578071,1.3033860344,1.1880115653\N,
 0,-0.9612044945,-1.8929017397,-1.3286161869\H,0,-1.3103778124,1.067354
 631,-2.0648066315\H,0,0.2942437608,2.0392408735,-0.1048651585\H,0,2.64
 19257323,2.6372232883,0.5700590036\H,0,4.3276817797,0.8368964987,0.885
 7346442\H,0,3.6999014153,-1.5429729971,0.5299935945\H,0,1.3495156999,-
 2.120631922,-0.1535558326\H,0,-1.2002408786,-1.5777748565,1.409773649\
 H,0,-2.7594894425,-1.2689427534,0.5790024178\H,0,-1.0560190101,0.91304
 67017,1.9445459286\H,0,-2.4182638693,0.0957766366,2.7195180866\H,0,-2.
 688252776,1.4234181603,0.2539713476\H,0,-0.4517966996,-1.8341682416,-2
 .2137796001\\Version=ES64L-G16RevC.01\State=1-A\HF=-894.4038137\RMSD=3
 .747e-09\Dipole=1.9051973,-0.0568986,0.1184228\Quadrupole=-2.0026958,-
 0.6219072,2.624603,2.8279852,0.3839591,-3.7292737\PG=C01 [X(C8H12N2O1S
 1)]\\@
 The archive entry for this job was punched.


 ... IT IS NO ONE DREAME THAT
     CAN PLEASE THESE ALL ...

                -- BEN JONSON
 Job cpu time:       0 days  0 hours 21 minutes  6.0 seconds.
 Elapsed time:       0 days  0 hours  1 minutes 26.8 seconds.
 File lengths (MBytes):  RWF=    130 Int=      0 D2E=      0 Chk=     20 Scr=      2
 Normal termination of Gaussian 16 at Mon Feb 10 19:54:22 2025.
