 Entering Gaussian System, Link 0=g16
 Input=SDI1145_4.com
 Output=SDI1145_4.log
 Initial command:
 /uufs/chpc.utah.edu/sys/installdir/gaussian16/C01/AVX/g16/l1.exe "/scratch/general/vast/u1414944/3351103-notchpeak.peaks/Gau-568858.inp" -scrdir="/scratch/general/vast/u1414944/3351103-notchpeak.peaks/"
 Entering Link 1 = /uufs/chpc.utah.edu/sys/installdir/gaussian16/C01/AVX/g16/l1.exe PID=    568859.
  
 Copyright (c) 1988-2019, Gaussian, Inc.  All Rights Reserved.
  
 This is part of the Gaussian(R) 16 program.  It is based on
 the Gaussian(R) 09 system (copyright 2009, Gaussian, Inc.),
 the Gaussian(R) 03 system (copyright 2003, Gaussian, Inc.),
 the Gaussian(R) 98 system (copyright 1998, Gaussian, Inc.),
 the Gaussian(R) 94 system (copyright 1995, Gaussian, Inc.),
 the Gaussian 92(TM) system (copyright 1992, Gaussian, Inc.),
 the Gaussian 90(TM) system (copyright 1990, Gaussian, Inc.),
 the Gaussian 88(TM) system (copyright 1988, Gaussian, Inc.),
 the Gaussian 86(TM) system (copyright 1986, Carnegie Mellon
 University), and the Gaussian 82(TM) system (copyright 1983,
 Carnegie Mellon University). Gaussian is a federally registered
 trademark of Gaussian, Inc.
  
 This software contains proprietary and confidential information,
 including trade secrets, belonging to Gaussian, Inc.
  
 This software is provided under written license and may be
 used, copied, transmitted, or stored only in accord with that
 written license.
  
 The following legend is applicable only to US Government
 contracts under FAR:
  
                    RESTRICTED RIGHTS LEGEND
  
 Use, reproduction and disclosure by the US Government is
 subject to restrictions as set forth in subparagraphs (a)
 and (c) of the Commercial Computer Software - Restricted
 Rights clause in FAR 52.227-19.
  
 Gaussian, Inc.
 340 Quinnipiac St., Bldg. 40, Wallingford CT 06492
  
  
 ---------------------------------------------------------------
 Warning -- This program may not be used in any manner that
 competes with the business of Gaussian, Inc. or will provide
 assistance to any competitor of Gaussian, Inc.  The licensee
 of this program is prohibited from giving any competitor of
 Gaussian, Inc. access to this program.  By using this program,
 the user acknowledges that Gaussian, Inc. is engaged in the
 business of creating and licensing software in the field of
 computational chemistry and represents and warrants to the
 licensee that it is not a competitor of Gaussian, Inc. and that
 it will not use this program in any manner prohibited above.
 ---------------------------------------------------------------
  

 Cite this work as:
 Gaussian 16, Revision C.01,
 M. J. Frisch, G. W. Trucks, H. B. Schlegel, G. E. Scuseria, 
 M. A. Robb, J. R. Cheeseman, G. Scalmani, V. Barone, 
 G. A. Petersson, H. Nakatsuji, X. Li, M. Caricato, A. V. Marenich, 
 J. Bloino, B. G. Janesko, R. Gomperts, B. Mennucci, H. P. Hratchian, 
 J. V. Ortiz, A. F. Izmaylov, J. L. Sonnenberg, D. Williams-Young, 
 F. Ding, F. Lipparini, F. Egidi, J. Goings, B. Peng, A. Petrone, 
 T. Henderson, D. Ranasinghe, V. G. Zakrzewski, J. Gao, N. Rega, 
 G. Zheng, W. Liang, M. Hada, M. Ehara, K. Toyota, R. Fukuda, 
 J. Hasegawa, M. Ishida, T. Nakajima, Y. Honda, O. Kitao, H. Nakai, 
 T. Vreven, K. Throssell, J. A. Montgomery, Jr., J. E. Peralta, 
 F. Ogliaro, M. J. Bearpark, J. J. Heyd, E. N. Brothers, K. N. Kudin, 
 V. N. Staroverov, T. A. Keith, R. Kobayashi, J. Normand, 
 K. Raghavachari, A. P. Rendell, J. C. Burant, S. S. Iyengar, 
 J. Tomasi, M. Cossi, J. M. Millam, M. Klene, C. Adamo, R. Cammi, 
 J. W. Ochterski, R. L. Martin, K. Morokuma, O. Farkas, 
 J. B. Foresman, and D. J. Fox, Gaussian, Inc., Wallingford CT, 2019.
 
 ******************************************
 Gaussian 16:  ES64L-G16RevC.01  3-Jul-2019
                24-Feb-2025 
 ******************************************
 %NProcShared=16
 Will use up to   16 processors via shared memory.
 %Mem=40GB
 %chk=SDI1145_4.chk
 ----------------------------------------------------------------------
 #N OPT FREQ=NORAMAN Integral(Ultrafine) pbe1pbe EmpiricalDispersion=GD
 3BJ def2SVP
 ----------------------------------------------------------------------
 1/18=20,19=15,26=4,38=1/1,3;
 2/9=110,12=2,17=6,18=5,40=1/2;
 3/5=43,7=101,11=2,25=1,30=1,71=1,74=-13,75=-5,124=41/1,2,3;
 4//1;
 5/5=2,38=5/2;
 6/7=2,8=2,9=2,10=2,28=1/1;
 7//1,2,3,16;
 1/18=20,19=15,26=4/3(2);
 2/9=110/2;
 99//99;
 2/9=110/2;
 3/5=43,7=101,11=2,25=1,30=1,71=1,74=-13,75=-5,124=41/1,2,3;
 4/5=5,16=3,69=1/1;
 5/5=2,38=5/2;
 7//1,2,3,16;
 1/18=20,19=15,26=4/3(-5);
 2/9=110/2;
 6/7=2,8=2,9=2,10=2,19=2,28=1/1;
 99/9=1/99;
 ---------
 SDI1145_4
 ---------
 Symbolic Z-matrix:
 Charge =  0 Multiplicity = 1
 N                    -3.0622   -1.60593  -0.10359 
 S                    -2.6497   -0.34074   0.66825 
 C                    -0.87189  -0.26423   0.32336 
 C                    -0.31124  -1.06177  -0.65622 
 C                     1.05077  -0.99689  -0.89229 
 C                     1.82298  -0.13113  -0.13355 
 Br                    3.69559  -0.03219  -0.45713 
 C                     1.268     0.66146   0.85937 
 C                    -0.09465   0.58741   1.08733 
 C                    -3.20288   1.24468  -0.12127 
 C                    -2.83957   1.18386  -1.58884 
 C                    -4.69336   1.36536   0.12279 
 N                    -2.96523  -0.07855   2.15043 
 H                    -3.95364  -1.9821    0.17422 
 H                    -0.95427  -1.72682  -1.20914 
 H                     1.50914  -1.60963  -1.65322 
 H                     1.89235   1.31986   1.44352 
 H                    -0.56401   1.17259   1.86365 
 H                    -2.65966   2.02344   0.41172 
 H                    -3.18885   0.2387   -2.00201 
 H                    -1.76258   1.24412  -1.73065 
 H                    -3.30778   2.00024  -2.13503 
 H                    -5.06682   2.32412  -0.23118 
 H                    -4.89168   1.27788   1.18821 
 H                    -5.22124   0.5703   -0.40063 
 H                    -2.9549   -0.90302   2.72886 
 

 GradGradGradGradGradGradGradGradGradGradGradGradGradGradGradGradGradGrad
 Berny optimization.
 Initialization pass.
                           ----------------------------
                           !    Initial Parameters    !
                           ! (Angstroms and Degrees)  !
 --------------------------                            --------------------------
 ! Name  Definition              Value          Derivative Info.                !
 --------------------------------------------------------------------------------
 ! R1    R(1,2)                  1.5384         estimate D2E/DX2                !
 ! R2    R(1,14)                 1.0067         estimate D2E/DX2                !
 ! R3    R(2,3)                  1.8126         estimate D2E/DX2                !
 ! R4    R(2,10)                 1.8555         estimate D2E/DX2                !
 ! R5    R(2,13)                 1.5379         estimate D2E/DX2                !
 ! R6    R(3,4)                  1.382          estimate D2E/DX2                !
 ! R7    R(3,9)                  1.3831         estimate D2E/DX2                !
 ! R8    R(4,5)                  1.3838         estimate D2E/DX2                !
 ! R9    R(4,15)                 1.0777         estimate D2E/DX2                !
 ! R10   R(5,6)                  1.3862         estimate D2E/DX2                !
 ! R11   R(5,16)                 1.0791         estimate D2E/DX2                !
 ! R12   R(6,7)                  1.9029         estimate D2E/DX2                !
 ! R13   R(6,8)                  1.3864         estimate D2E/DX2                !
 ! R14   R(8,9)                  1.3836         estimate D2E/DX2                !
 ! R15   R(8,17)                 1.0791         estimate D2E/DX2                !
 ! R16   R(9,18)                 1.0795         estimate D2E/DX2                !
 ! R17   R(10,11)                1.5131         estimate D2E/DX2                !
 ! R18   R(10,12)                1.5151         estimate D2E/DX2                !
 ! R19   R(10,19)                1.0889         estimate D2E/DX2                !
 ! R20   R(11,20)                1.0891         estimate D2E/DX2                !
 ! R21   R(11,21)                1.0879         estimate D2E/DX2                !
 ! R22   R(11,22)                1.0881         estimate D2E/DX2                !
 ! R23   R(12,23)                1.0881         estimate D2E/DX2                !
 ! R24   R(12,24)                1.0872         estimate D2E/DX2                !
 ! R25   R(12,25)                1.0885         estimate D2E/DX2                !
 ! R26   R(13,26)                1.0072         estimate D2E/DX2                !
 ! A1    A(2,1,14)             113.9736         estimate D2E/DX2                !
 ! A2    A(1,2,3)              101.6682         estimate D2E/DX2                !
 ! A3    A(1,2,10)             114.1601         estimate D2E/DX2                !
 ! A4    A(1,2,13)             124.6624         estimate D2E/DX2                !
 ! A5    A(3,2,10)             100.1011         estimate D2E/DX2                !
 ! A6    A(3,2,13)             112.1739         estimate D2E/DX2                !
 ! A7    A(10,2,13)            101.7267         estimate D2E/DX2                !
 ! A8    A(2,3,4)              120.5575         estimate D2E/DX2                !
 ! A9    A(2,3,9)              118.1674         estimate D2E/DX2                !
 ! A10   A(4,3,9)              121.2573         estimate D2E/DX2                !
 ! A11   A(3,4,5)              119.5468         estimate D2E/DX2                !
 ! A12   A(3,4,15)             118.5363         estimate D2E/DX2                !
 ! A13   A(5,4,15)             121.914          estimate D2E/DX2                !
 ! A14   A(4,5,6)              118.9593         estimate D2E/DX2                !
 ! A15   A(4,5,16)             120.7784         estimate D2E/DX2                !
 ! A16   A(6,5,16)             120.2623         estimate D2E/DX2                !
 ! A17   A(5,6,7)              119.1823         estimate D2E/DX2                !
 ! A18   A(5,6,8)              121.7404         estimate D2E/DX2                !
 ! A19   A(7,6,8)              119.0768         estimate D2E/DX2                !
 ! A20   A(6,8,9)              118.7937         estimate D2E/DX2                !
 ! A21   A(6,8,17)             120.3236         estimate D2E/DX2                !
 ! A22   A(9,8,17)             120.8823         estimate D2E/DX2                !
 ! A23   A(3,9,8)              119.695          estimate D2E/DX2                !
 ! A24   A(3,9,18)             119.1212         estimate D2E/DX2                !
 ! A25   A(8,9,18)             121.1771         estimate D2E/DX2                !
 ! A26   A(2,10,11)            107.8647         estimate D2E/DX2                !
 ! A27   A(2,10,12)            107.0252         estimate D2E/DX2                !
 ! A28   A(2,10,19)            104.7195         estimate D2E/DX2                !
 ! A29   A(11,10,12)           113.3061         estimate D2E/DX2                !
 ! A30   A(11,10,19)           112.5642         estimate D2E/DX2                !
 ! A31   A(12,10,19)           110.7903         estimate D2E/DX2                !
 ! A32   A(10,11,20)           109.0165         estimate D2E/DX2                !
 ! A33   A(10,11,21)           111.2169         estimate D2E/DX2                !
 ! A34   A(10,11,22)           110.694          estimate D2E/DX2                !
 ! A35   A(20,11,21)           108.4278         estimate D2E/DX2                !
 ! A36   A(20,11,22)           108.8258         estimate D2E/DX2                !
 ! A37   A(21,11,22)           108.6004         estimate D2E/DX2                !
 ! A38   A(10,12,23)           110.819          estimate D2E/DX2                !
 ! A39   A(10,12,24)           109.3219         estimate D2E/DX2                !
 ! A40   A(10,12,25)           109.9651         estimate D2E/DX2                !
 ! A41   A(23,12,24)           109.0906         estimate D2E/DX2                !
 ! A42   A(23,12,25)           108.7062         estimate D2E/DX2                !
 ! A43   A(24,12,25)           108.9047         estimate D2E/DX2                !
 ! A44   A(2,13,26)            114.3193         estimate D2E/DX2                !
 ! D1    D(14,1,2,3)           162.7665         estimate D2E/DX2                !
 ! D2    D(14,1,2,10)          -90.4404         estimate D2E/DX2                !
 ! D3    D(14,1,2,13)           35.0804         estimate D2E/DX2                !
 ! D4    D(1,2,3,4)             12.2014         estimate D2E/DX2                !
 ! D5    D(1,2,3,9)           -166.2833         estimate D2E/DX2                !
 ! D6    D(10,2,3,4)          -105.2692         estimate D2E/DX2                !
 ! D7    D(10,2,3,9)            76.2461         estimate D2E/DX2                !
 ! D8    D(13,2,3,4)           147.5411         estimate D2E/DX2                !
 ! D9    D(13,2,3,9)           -30.9436         estimate D2E/DX2                !
 ! D10   D(1,2,10,11)          -48.0201         estimate D2E/DX2                !
 ! D11   D(1,2,10,12)           74.2176         estimate D2E/DX2                !
 ! D12   D(1,2,10,19)         -168.1202         estimate D2E/DX2                !
 ! D13   D(3,2,10,11)           59.7418         estimate D2E/DX2                !
 ! D14   D(3,2,10,12)         -178.0205         estimate D2E/DX2                !
 ! D15   D(3,2,10,19)          -60.3582         estimate D2E/DX2                !
 ! D16   D(13,2,10,11)         175.115          estimate D2E/DX2                !
 ! D17   D(13,2,10,12)         -62.6473         estimate D2E/DX2                !
 ! D18   D(13,2,10,19)          55.0149         estimate D2E/DX2                !
 ! D19   D(1,2,13,26)           34.6554         estimate D2E/DX2                !
 ! D20   D(3,2,13,26)          -88.5289         estimate D2E/DX2                !
 ! D21   D(10,2,13,26)         165.3285         estimate D2E/DX2                !
 ! D22   D(2,3,4,5)           -179.3069         estimate D2E/DX2                !
 ! D23   D(2,3,4,15)             0.0886         estimate D2E/DX2                !
 ! D24   D(9,3,4,5)             -0.8696         estimate D2E/DX2                !
 ! D25   D(9,3,4,15)           178.5259         estimate D2E/DX2                !
 ! D26   D(2,3,9,8)            179.399          estimate D2E/DX2                !
 ! D27   D(2,3,9,18)             0.3377         estimate D2E/DX2                !
 ! D28   D(4,3,9,8)              0.9254         estimate D2E/DX2                !
 ! D29   D(4,3,9,18)          -178.1358         estimate D2E/DX2                !
 ! D30   D(3,4,5,6)              0.1636         estimate D2E/DX2                !
 ! D31   D(3,4,5,16)          -179.9115         estimate D2E/DX2                !
 ! D32   D(15,4,5,6)          -179.2108         estimate D2E/DX2                !
 ! D33   D(15,4,5,16)            0.7141         estimate D2E/DX2                !
 ! D34   D(4,5,6,7)           -179.7797         estimate D2E/DX2                !
 ! D35   D(4,5,6,8)              0.4848         estimate D2E/DX2                !
 ! D36   D(16,5,6,7)             0.295          estimate D2E/DX2                !
 ! D37   D(16,5,6,8)          -179.4405         estimate D2E/DX2                !
 ! D38   D(5,6,8,9)             -0.4303         estimate D2E/DX2                !
 ! D39   D(5,6,8,17)           179.3462         estimate D2E/DX2                !
 ! D40   D(7,6,8,9)            179.834          estimate D2E/DX2                !
 ! D41   D(7,6,8,17)            -0.3896         estimate D2E/DX2                !
 ! D42   D(6,8,9,3)             -0.2713         estimate D2E/DX2                !
 ! D43   D(6,8,9,18)           178.7702         estimate D2E/DX2                !
 ! D44   D(17,8,9,3)           179.9535         estimate D2E/DX2                !
 ! D45   D(17,8,9,18)           -1.005          estimate D2E/DX2                !
 ! D46   D(2,10,11,20)          49.495          estimate D2E/DX2                !
 ! D47   D(2,10,11,21)         -70.0078         estimate D2E/DX2                !
 ! D48   D(2,10,11,22)         169.1681         estimate D2E/DX2                !
 ! D49   D(12,10,11,20)        -68.7866         estimate D2E/DX2                !
 ! D50   D(12,10,11,21)        171.7106         estimate D2E/DX2                !
 ! D51   D(12,10,11,22)         50.8865         estimate D2E/DX2                !
 ! D52   D(19,10,11,20)        164.5203         estimate D2E/DX2                !
 ! D53   D(19,10,11,21)         45.0174         estimate D2E/DX2                !
 ! D54   D(19,10,11,22)        -75.8066         estimate D2E/DX2                !
 ! D55   D(2,10,12,23)         174.4427         estimate D2E/DX2                !
 ! D56   D(2,10,12,24)          54.1699         estimate D2E/DX2                !
 ! D57   D(2,10,12,25)         -65.3457         estimate D2E/DX2                !
 ! D58   D(11,10,12,23)        -66.7903         estimate D2E/DX2                !
 ! D59   D(11,10,12,24)        172.9369         estimate D2E/DX2                !
 ! D60   D(11,10,12,25)         53.4212         estimate D2E/DX2                !
 ! D61   D(19,10,12,23)         60.8332         estimate D2E/DX2                !
 ! D62   D(19,10,12,24)        -59.4396         estimate D2E/DX2                !
 ! D63   D(19,10,12,25)       -178.9552         estimate D2E/DX2                !
 --------------------------------------------------------------------------------
 Trust Radius=3.00D-01 FncErr=1.00D-07 GrdErr=1.00D-06 EigMax=2.50D+02 EigMin=1.00D-04
 Number of steps in this run=    143 maximum allowed number of steps=    156.
 GradGradGradGradGradGradGradGradGradGradGradGradGradGradGradGradGradGrad

                          Input orientation:                          
 ---------------------------------------------------------------------
 Center     Atomic      Atomic             Coordinates (Angstroms)
 Number     Number       Type             X           Y           Z
 ---------------------------------------------------------------------
      1          7           0       -3.062198   -1.605933   -0.103589
      2         16           0       -2.649701   -0.340740    0.668245
      3          6           0       -0.871886   -0.264234    0.323356
      4          6           0       -0.311243   -1.061771   -0.656217
      5          6           0        1.050770   -0.996890   -0.892293
      6          6           0        1.822977   -0.131132   -0.133546
      7         35           0        3.695588   -0.032189   -0.457132
      8          6           0        1.268003    0.661461    0.859366
      9          6           0       -0.094653    0.587415    1.087335
     10          6           0       -3.202881    1.244677   -0.121273
     11          6           0       -2.839566    1.183861   -1.588836
     12          6           0       -4.693355    1.365360    0.122788
     13          7           0       -2.965233   -0.078545    2.150433
     14          1           0       -3.953643   -1.982104    0.174218
     15          1           0       -0.954270   -1.726825   -1.209142
     16          1           0        1.509141   -1.609634   -1.653216
     17          1           0        1.892352    1.319860    1.443519
     18          1           0       -0.564014    1.172590    1.863648
     19          1           0       -2.659662    2.023438    0.411716
     20          1           0       -3.188853    0.238699   -2.002005
     21          1           0       -1.762585    1.244123   -1.730654
     22          1           0       -3.307781    2.000242   -2.135029
     23          1           0       -5.066822    2.324123   -0.231184
     24          1           0       -4.891675    1.277884    1.188213
     25          1           0       -5.221245    0.570299   -0.400633
     26          1           0       -2.954902   -0.903024    2.728863
 ---------------------------------------------------------------------
                    Distance matrix (angstroms):
                    1          2          3          4          5
     1  N    0.000000
     2  S    1.538374   0.000000
     3  C    2.603825   1.812575   0.000000
     4  C    2.858193   2.782530   1.382009   0.000000
     5  C    4.231961   4.069312   2.389810   1.383842   0.000000
     6  C    5.103026   4.548808   2.736560   2.386246   1.386195
     7  Br   6.947614   6.451696   4.639486   4.141784   2.848698
     8  C    4.981867   4.048375   2.392351   2.785775   2.421906
     9  C    3.877550   2.750523   1.383134   2.409709   2.782255
    10  C    2.854134   1.855504   2.812126   3.737305   4.869563
    11  C    3.168354   2.730361   3.102454   3.507857   4.513929
    12  C    3.397131   2.717503   4.159259   5.069588   6.293297
    13  N    2.724505   1.537916   2.784743   3.985936   5.121505
    14  H    1.006656   2.153695   3.531366   3.847560   5.210781
    15  H    2.383322   2.884493   2.120025   1.077731   2.157170
    16  H    4.826852   4.929020   3.374348   2.146615   1.079150
    17  H    5.958303   4.897846   3.377148   3.864827   3.395822
    18  H    4.222692   2.840641   2.128790   3.377275   3.861266
    19  H    3.687805   2.378076   2.904720   4.021700   4.958843
    20  H    2.650036   2.785080   3.320931   3.432639   4.553300
    21  H    3.529753   3.008901   2.699527   2.928815   3.693230
    22  H    4.146270   3.711012   4.135831   4.532334   5.433613
    23  H    4.413630   3.708496   4.960302   5.853244   6.992218
    24  H    3.651320   2.813673   4.391448   5.464089   6.694457
    25  H    3.079886   2.930073   4.487486   5.180453   6.483516
    26  H    2.920339   2.157651   3.245532   4.298012   5.400647
                    6          7          8          9         10
     6  C    0.000000
     7  Br   1.902938   0.000000
     8  C    1.386389   2.847365   0.000000
     9  C    2.384149   4.139471   1.383577   0.000000
    10  C    5.210782   7.023679   4.614174   3.399089   0.000000
    11  C    5.058298   6.742980   4.810272   3.879714   1.513088
    12  C    6.690873   8.524308   6.047794   4.762731   1.515138
    13  N    5.305307   7.153187   4.487176   3.132716   2.639705
    14  H    6.073726   7.919060   5.892661   4.725252   3.326121
    15  H    3.378792   5.005845   3.862788   3.371713   3.881950
    16  H    2.143329   2.949492   3.395452   3.861321   5.718137
    17  H    2.144137   2.948249   1.079136   2.147449   5.330631
    18  H    3.374344   4.998172   2.150842   1.079533   3.302836
    19  H    5.003353   6.735704   4.181139   3.016272   1.088868
    20  H    5.361563   7.060846   5.313166   4.386308   2.132919
    21  H    4.159126   5.748259   4.028915   3.339808   2.159760
    22  H    5.905368   7.482867   5.629967   4.764860   2.153391
    23  H    7.314858   9.076513   6.639560   5.429282   2.156747
    24  H    6.987054   8.841072   6.199174   4.847509   2.137260
    25  H    7.084095   8.937343   6.611070   5.338191   2.146304
    26  H    5.622929   7.425493   4.876019   3.618984   3.577345
                   11         12         13         14         15
    11  C    0.000000
    12  C    2.529651   0.000000
    13  N    3.948619   3.030282   0.000000
    14  H    3.791156   3.428605   2.916490   0.000000
    15  H    3.488639   5.031541   4.248239   3.312868   0.000000
    16  H    5.169043   7.104628   6.068937   5.772370   2.505859
    17  H    5.621808   6.716989   5.104057   6.832990   4.941877
    18  H    4.134961   4.485444   2.722762   4.929082   4.242751
    19  H    2.177031   2.156955   2.744967   4.216060   4.427190
    20  H    1.089055   2.836837   4.170539   3.202003   3.079818
    21  H    1.087949   3.469779   4.273014   4.340256   3.122800
    22  H    1.088132   2.724083   4.775340   4.648531   4.504143
    23  H    2.846768   1.088118   3.982661   4.466219   5.854884
    24  H    3.454271   1.087250   2.544984   3.540567   5.502612
    25  H    2.731424   1.088466   3.466774   2.907237   4.912997
    26  H    4.796970   3.867740   1.007201   2.947560   4.493224
                   16         17         18         19         20
    16  H    0.000000
    17  H    4.280018   0.000000
    18  H    4.940352   2.496384   0.000000
    19  H    5.902718   4.720220   2.687711   0.000000
    20  H    5.060547   6.233714   4.764998   3.048178   0.000000
    21  H    4.342132   4.841453   3.789550   2.449863   1.765998
    22  H    6.038715   6.349040   4.919621   2.628023   1.770557
    23  H    7.793581   7.227951   5.098002   2.509612   3.318369
    24  H    7.575086   6.788960   4.381318   2.478040   3.762579
    25  H    7.184648   7.386880   5.213398   3.055034   2.608634
    26  H    6.295205   5.485363   3.282242   3.744399   4.872308
                   21         22         23         24         25
    21  H    0.000000
    22  H    1.767163   0.000000
    23  H    3.785868   2.612231   0.000000
    24  H    4.279268   3.751594   1.771999   0.000000
    25  H    3.766341   2.951984   1.768745   1.770233   0.000000
    26  H    5.091086   5.675467   4.861745   3.298644   4.135304
                   26
    26  H    0.000000
 Stoichiometry    C9H13BrN2S
 Framework group  C1[X(C9H13BrN2S)]
 Deg. of freedom    72
 Full point group                 C1      NOp   1
 Largest Abelian subgroup         C1      NOp   1
 Largest concise Abelian subgroup C1      NOp   1
                         Standard orientation:                         
 ---------------------------------------------------------------------
 Center     Atomic      Atomic             Coordinates (Angstroms)
 Number     Number       Type             X           Y           Z
 ---------------------------------------------------------------------
      1          7           0        2.686484   -0.175307    1.817582
      2         16           0        2.423163   -0.554205    0.350036
      3          6           0        0.627463   -0.337500    0.232012
      4          6           0       -0.069876    0.307618    1.235750
      5          6           0       -1.442503    0.448818    1.130975
      6          6           0       -2.087143   -0.066365    0.017169
      7         35           0       -3.973701    0.129793   -0.136441
      8          6           0       -1.394422   -0.726081   -0.986318
      9          6           0       -0.022462   -0.862324   -0.870357
     10          6           0        2.985975    0.719791   -0.875963
     11          6           0        2.479061    2.067414   -0.410790
     12          6           0        4.497532    0.637179   -0.939312
     13          7           0        2.895419   -1.858022   -0.314962
     14          1           0        3.577947   -0.486376    2.166702
     15          1           0        0.477746    0.678710    2.086576
     16          1           0       -2.006530    0.950277    1.902321
     17          1           0       -1.920831   -1.127443   -1.838573
     18          1           0        0.552419   -1.385959   -1.619163
     19          1           0        2.542032    0.409766   -1.820649
     20          1           0        2.732509    2.198387    0.640234
     21          1           0        1.398547    2.139201   -0.515533
     22          1           0        2.937518    2.869864   -0.985178
     23          1           0        4.888563    1.293299   -1.714297
     24          1           0        4.793063   -0.386173   -1.157311
     25          1           0        4.926248    0.932001    0.016743
     26          1           0        2.894616   -2.659018    0.295661
 ---------------------------------------------------------------------
 Rotational constants (GHZ):           1.5184083           0.2062497           0.2048417
 Standard basis: def2SVP (5D, 7F)
 There are   284 symmetry adapted cartesian basis functions of A   symmetry.
 There are   269 symmetry adapted basis functions of A   symmetry.
   269 basis functions,   483 primitive gaussians,   284 cartesian basis functions
    66 alpha electrons       66 beta electrons
       nuclear repulsion energy      1215.6614409245 Hartrees.
 NAtoms=   26 NActive=   26 NUniq=   26 SFac= 1.00D+00 NAtFMM=   60 NAOKFM=F Big=F
 Integral buffers will be    131072 words long.
 Raffenetti 2 integral format.
 Two-electron integral symmetry is turned on.
 Nuclear repulsion after empirical dispersion term =     1215.6290721456 Hartrees.
 One-electron integrals computed using PRISM.
   1 Symmetry operations used in ECPInt.
 ECPInt:  NShTT=    7875 NPrTT=   30380 LenC2=    7399 LenP2D=   20856.
 LDataN:  DoStor=T MaxTD1= 4 Len=   56
 NBasis=   269 RedAO= T EigKep=  2.54D-04  NBF=   269
 NBsUse=   269 1.00D-06 EigRej= -1.00D+00 NBFU=   269
 ExpMin= 1.22D-01 ExpMax= 1.13D+05 ExpMxC= 1.70D+04 IAcc=3 IRadAn=         5 AccDes= 0.00D+00
 Harris functional with IExCor= 1009 and IRadAn=       5 diagonalized for initial guess.
 HarFok:  IExCor= 1009 AccDes= 0.00D+00 IRadAn=         5 IDoV= 1 UseB2=F ITyADJ=14
 ICtDFT=  3500011 ScaDFX=  1.000000  1.000000  1.000000  1.000000
 FoFCou: FMM=F IPFlag=           0 FMFlag=      100000 FMFlg1=           0
         NFxFlg=           0 DoJE=T BraDBF=F KetDBF=T FulRan=T
         wScrn=  0.000000 ICntrl=       500 IOpCl=  0 I1Cent=   200000004 NGrid=           0
         NMat0=    1 NMatS0=      1 NMatT0=    0 NMatD0=    1 NMtDS0=    0 NMtDT0=    0
 Petite list used in FoFCou.
 Requested convergence on RMS density matrix=1.00D-08 within 128 cycles.
 Requested convergence on MAX density matrix=1.00D-06.
 Requested convergence on             energy=1.00D-06.
 No special actions if energy rises.
 Integral accuracy reduced to 1.0D-05 until final iterations.
 Initial convergence to 1.0D-05 achieved.  Increase integral accuracy.
 SCF Done:  E(RPBE1PBE) =  -3430.79228516     A.U. after   14 cycles
            NFock= 14  Conv=0.74D-08     -V/T= 2.0023

 **********************************************************************

            Population analysis using the SCF Density.

 **********************************************************************

 Orbital symmetries:
       Occupied  (A) (A) (A) (A) (A) (A) (A) (A) (A) (A) (A) (A)
                 (A) (A) (A) (A) (A) (A) (A) (A) (A) (A) (A) (A)
                 (A) (A) (A) (A) (A) (A) (A) (A) (A) (A) (A) (A)
                 (A) (A) (A) (A) (A) (A) (A) (A) (A) (A) (A) (A)
                 (A) (A) (A) (A) (A) (A) (A) (A) (A) (A) (A) (A)
                 (A) (A) (A) (A) (A) (A)
       Virtual   (A) (A) (A) (A) (A) (A) (A) (A) (A) (A) (A) (A)
                 (A) (A) (A) (A) (A) (A) (A) (A) (A) (A) (A) (A)
                 (A) (A) (A) (A) (A) (A) (A) (A) (A) (A) (A) (A)
                 (A) (A) (A) (A) (A) (A) (A) (A) (A) (A) (A) (A)
                 (A) (A) (A) (A) (A) (A) (A) (A) (A) (A) (A) (A)
                 (A) (A) (A) (A) (A) (A) (A) (A) (A) (A) (A) (A)
                 (A) (A) (A) (A) (A) (A) (A) (A) (A) (A) (A) (A)
                 (A) (A) (A) (A) (A) (A) (A) (A) (A) (A) (A) (A)
                 (A) (A) (A) (A) (A) (A) (A) (A) (A) (A) (A) (A)
                 (A) (A) (A) (A) (A) (A) (A) (A) (A) (A) (A) (A)
                 (A) (A) (A) (A) (A) (A) (A) (A) (A) (A) (A) (A)
                 (A) (A) (A) (A) (A) (A) (A) (A) (A) (A) (A) (A)
                 (A) (A) (A) (A) (A) (A) (A) (A) (A) (A) (A) (A)
                 (A) (A) (A) (A) (A) (A) (A) (A) (A) (A) (A) (A)
                 (A) (A) (A) (A) (A) (A) (A) (A) (A) (A) (A) (A)
                 (A) (A) (A) (A) (A) (A) (A) (A) (A) (A) (A) (A)
                 (A) (A) (A) (A) (A) (A) (A) (A) (A) (A) (A)
 The electronic state is 1-A.
 Alpha  occ. eigenvalues -- -483.20041 -89.17922 -62.63415 -56.42409 -56.42058
 Alpha  occ. eigenvalues --  -56.42044 -14.35002 -14.34723 -10.30585 -10.26953
 Alpha  occ. eigenvalues --  -10.26887 -10.26305 -10.26203 -10.26032 -10.25781
 Alpha  occ. eigenvalues --  -10.23293 -10.23189  -8.78027  -8.15391  -6.59508
 Alpha  occ. eigenvalues --   -6.58228  -6.58190  -6.09533  -6.09438  -6.09356
 Alpha  occ. eigenvalues --   -2.68063  -2.67697  -2.67668  -2.66639  -2.66639
 Alpha  occ. eigenvalues --   -1.00729  -0.91417  -0.85554  -0.83968  -0.82896
 Alpha  occ. eigenvalues --   -0.79191  -0.76465  -0.71456  -0.68456  -0.65275
 Alpha  occ. eigenvalues --   -0.62451  -0.59350  -0.55197  -0.53103  -0.50551
 Alpha  occ. eigenvalues --   -0.49954  -0.48330  -0.47614  -0.46259  -0.45954
 Alpha  occ. eigenvalues --   -0.43219  -0.42032  -0.41037  -0.39555  -0.38883
 Alpha  occ. eigenvalues --   -0.38435  -0.37078  -0.36800  -0.34757  -0.33896
 Alpha  occ. eigenvalues --   -0.30763  -0.29344  -0.27260  -0.26783  -0.25817
 Alpha  occ. eigenvalues --   -0.24495
 Alpha virt. eigenvalues --   -0.03846  -0.02597   0.00615   0.06001   0.06927
 Alpha virt. eigenvalues --    0.08112   0.08900   0.09726   0.10481   0.10971
 Alpha virt. eigenvalues --    0.12323   0.12819   0.13175   0.13860   0.14789
 Alpha virt. eigenvalues --    0.15867   0.17128   0.18097   0.18184   0.19061
 Alpha virt. eigenvalues --    0.19972   0.22515   0.24211   0.25234   0.27086
 Alpha virt. eigenvalues --    0.30005   0.30572   0.32846   0.35764   0.38949
 Alpha virt. eigenvalues --    0.39435   0.40754   0.41686   0.42434   0.43153
 Alpha virt. eigenvalues --    0.43954   0.45673   0.46213   0.47383   0.48493
 Alpha virt. eigenvalues --    0.49460   0.50404   0.50757   0.52153   0.52826
 Alpha virt. eigenvalues --    0.53696   0.54265   0.55525   0.57353   0.58311
 Alpha virt. eigenvalues --    0.60216   0.60765   0.62489   0.62996   0.63354
 Alpha virt. eigenvalues --    0.64124   0.65623   0.66343   0.66837   0.67149
 Alpha virt. eigenvalues --    0.67496   0.68225   0.69004   0.69922   0.70661
 Alpha virt. eigenvalues --    0.70943   0.71371   0.72253   0.72685   0.73367
 Alpha virt. eigenvalues --    0.73808   0.74208   0.74422   0.76761   0.77452
 Alpha virt. eigenvalues --    0.77590   0.78988   0.80232   0.82958   0.85421
 Alpha virt. eigenvalues --    0.85675   0.87552   0.90350   0.90895   0.92083
 Alpha virt. eigenvalues --    0.94540   0.95174   0.95912   0.98403   1.01222
 Alpha virt. eigenvalues --    1.02589   1.06773   1.10183   1.11528   1.14175
 Alpha virt. eigenvalues --    1.15284   1.15847   1.17769   1.18343   1.21587
 Alpha virt. eigenvalues --    1.22901   1.23144   1.24418   1.24993   1.28842
 Alpha virt. eigenvalues --    1.29994   1.32092   1.32399   1.34378   1.43509
 Alpha virt. eigenvalues --    1.45403   1.47669   1.47877   1.50157   1.51865
 Alpha virt. eigenvalues --    1.53979   1.55971   1.58123   1.59797   1.63649
 Alpha virt. eigenvalues --    1.67322   1.69576   1.71815   1.73663   1.74321
 Alpha virt. eigenvalues --    1.74810   1.76035   1.77328   1.78807   1.79832
 Alpha virt. eigenvalues --    1.80082   1.81652   1.82633   1.83497   1.84834
 Alpha virt. eigenvalues --    1.86074   1.86655   1.89506   1.91973   1.93112
 Alpha virt. eigenvalues --    1.94170   1.95222   1.97802   1.99828   2.01773
 Alpha virt. eigenvalues --    2.04243   2.08495   2.11127   2.12449   2.14554
 Alpha virt. eigenvalues --    2.15504   2.16318   2.19112   2.20724   2.22152
 Alpha virt. eigenvalues --    2.27443   2.28101   2.29053   2.29364   2.29480
 Alpha virt. eigenvalues --    2.35210   2.36060   2.36882   2.40629   2.41989
 Alpha virt. eigenvalues --    2.43055   2.43980   2.50137   2.50655   2.54577
 Alpha virt. eigenvalues --    2.56844   2.57428   2.59663   2.61568   2.63382
 Alpha virt. eigenvalues --    2.64065   2.65244   2.65656   2.66617   2.74087
 Alpha virt. eigenvalues --    2.76930   2.79008   2.86729   2.87489   2.87846
 Alpha virt. eigenvalues --    2.91052   2.91502   2.92211   2.95143   2.96596
 Alpha virt. eigenvalues --    3.02289   3.05437   3.08199   3.09531   3.20380
 Alpha virt. eigenvalues --    3.28275   3.32643   3.44770   3.48430   3.52782
 Alpha virt. eigenvalues --    3.56457   3.65023   3.84554
          Condensed to atoms (all electrons):
               1          2          3          4          5          6
     1  N    6.833189   0.368666  -0.098402  -0.001149   0.001701  -0.000051
     2  S    0.368666  14.775735   0.140096  -0.032873   0.005058   0.000476
     3  C   -0.098402   0.140096   5.855514   0.263768   0.113042  -0.214660
     4  C   -0.001149  -0.032873   0.263768   5.038854   0.249051   0.125353
     5  C    0.001701   0.005058   0.113042   0.249051   5.111599   0.231292
     6  C   -0.000051   0.000476  -0.214660   0.125353   0.231292   5.429828
     7  Br   0.000000   0.000006   0.001452   0.002038  -0.062173   0.233325
     8  C   -0.000056   0.001306   0.108318  -0.124096   0.067483   0.244378
     9  C    0.007143  -0.060765   0.199178   0.053286  -0.133352   0.122138
    10  C   -0.051683   0.212086  -0.129579  -0.003047  -0.000344  -0.000153
    11  C   -0.006538  -0.063670   0.004092   0.001647  -0.000216   0.000078
    12  C   -0.005138  -0.055706   0.011087  -0.000130  -0.000001   0.000002
    13  N   -0.036653   0.362577  -0.062574   0.002468   0.000019  -0.000050
    14  H    0.336595  -0.017694   0.010893  -0.000325  -0.000049   0.000008
    15  H    0.031012  -0.014120  -0.056593   0.449476  -0.068308   0.013983
    16  H   -0.000011  -0.000131   0.015935  -0.060087   0.449557  -0.071631
    17  H    0.000001  -0.000157   0.015788  -0.001780   0.013578  -0.069440
    18  H    0.000666  -0.009628  -0.078147   0.012821  -0.002153   0.014693
    19  H    0.003098  -0.010514  -0.000637   0.000239  -0.000031   0.000031
    20  H    0.025439  -0.001827  -0.003472   0.001732   0.000335   0.000004
    21  H   -0.000250  -0.003929   0.004587   0.000232  -0.000327   0.000036
    22  H    0.000107   0.005372  -0.000578  -0.000053   0.000022  -0.000004
    23  H   -0.000165   0.005414  -0.000141  -0.000006   0.000000   0.000000
    24  H    0.000148  -0.005993   0.000892  -0.000018  -0.000000   0.000000
    25  H    0.010004  -0.000880   0.000323   0.000028  -0.000000   0.000000
    26  H   -0.001825  -0.014142  -0.001823   0.000108  -0.000031  -0.000002
               7          8          9         10         11         12
     1  N    0.000000  -0.000056   0.007143  -0.051683  -0.006538  -0.005138
     2  S    0.000006   0.001306  -0.060765   0.212086  -0.063670  -0.055706
     3  C    0.001452   0.108318   0.199178  -0.129579   0.004092   0.011087
     4  C    0.002038  -0.124096   0.053286  -0.003047   0.001647  -0.000130
     5  C   -0.062173   0.067483  -0.133352  -0.000344  -0.000216  -0.000001
     6  C    0.233325   0.244378   0.122138  -0.000153   0.000078   0.000002
     7  Br  34.910743  -0.062421   0.002700  -0.000000  -0.000000   0.000000
     8  C   -0.062421   5.039790   0.296824  -0.000294  -0.000109  -0.000010
     9  C    0.002700   0.296824   5.095890  -0.002852  -0.000111  -0.000204
    10  C   -0.000000  -0.000294  -0.002852   5.496591   0.304072   0.331368
    11  C   -0.000000  -0.000109  -0.000111   0.304072   4.681190  -0.046258
    12  C    0.000000  -0.000010  -0.000204   0.331368  -0.046258   4.611823
    13  N    0.000000   0.001336   0.007544  -0.105120   0.007290  -0.003886
    14  H   -0.000000  -0.000007  -0.000334  -0.005554   0.000100   0.001907
    15  H   -0.000139  -0.002204   0.014053   0.001045  -0.000328  -0.000059
    16  H   -0.000335   0.013951  -0.001988   0.000013  -0.000016  -0.000000
    17  H   -0.000178   0.449164  -0.060772   0.000025  -0.000003  -0.000000
    18  H   -0.000163  -0.052486   0.444290   0.000114   0.000284  -0.000302
    19  H   -0.000000   0.000241   0.005123   0.339718  -0.024527  -0.013890
    20  H    0.000000   0.000007  -0.000194  -0.034021   0.387990  -0.005680
    21  H   -0.000002   0.000193  -0.000622  -0.016940   0.391660   0.006927
    22  H    0.000000  -0.000012   0.000025  -0.012132   0.384177  -0.006884
    23  H   -0.000000  -0.000000  -0.000022  -0.019048  -0.004120   0.399760
    24  H    0.000000   0.000002   0.000044  -0.031198   0.010436   0.389883
    25  H   -0.000000   0.000001   0.000002  -0.038224  -0.009002   0.390392
    26  H   -0.000000  -0.000101  -0.001178   0.009995  -0.000492  -0.000344
              13         14         15         16         17         18
     1  N   -0.036653   0.336595   0.031012  -0.000011   0.000001   0.000666
     2  S    0.362577  -0.017694  -0.014120  -0.000131  -0.000157  -0.009628
     3  C   -0.062574   0.010893  -0.056593   0.015935   0.015788  -0.078147
     4  C    0.002468  -0.000325   0.449476  -0.060087  -0.001780   0.012821
     5  C    0.000019  -0.000049  -0.068308   0.449557   0.013578  -0.002153
     6  C   -0.000050   0.000008   0.013983  -0.071631  -0.069440   0.014693
     7  Br   0.000000  -0.000000  -0.000139  -0.000335  -0.000178  -0.000163
     8  C    0.001336  -0.000007  -0.002204   0.013951   0.449164  -0.052486
     9  C    0.007544  -0.000334   0.014053  -0.001988  -0.060772   0.444290
    10  C   -0.105120  -0.005554   0.001045   0.000013   0.000025   0.000114
    11  C    0.007290   0.000100  -0.000328  -0.000016  -0.000003   0.000284
    12  C   -0.003886   0.001907  -0.000059  -0.000000  -0.000000  -0.000302
    13  N    6.856242  -0.000912   0.000247   0.000001  -0.000004   0.021497
    14  H   -0.000912   0.548203  -0.000961  -0.000002  -0.000000  -0.000045
    15  H    0.000247  -0.000961   0.596446  -0.010689   0.000026  -0.000315
    16  H    0.000001  -0.000002  -0.010689   0.639325  -0.000237   0.000034
    17  H   -0.000004  -0.000000   0.000026  -0.000237   0.639184  -0.011294
    18  H    0.021497  -0.000045  -0.000315   0.000034  -0.011294   0.624545
    19  H    0.003654  -0.000026  -0.000089   0.000000  -0.000013   0.001988
    20  H    0.000562  -0.000381   0.000823  -0.000007   0.000000  -0.000075
    21  H    0.000006  -0.000028  -0.000033   0.000006  -0.000003   0.000022
    22  H   -0.000171  -0.000024   0.000051   0.000001   0.000000  -0.000011
    23  H    0.000127  -0.000000   0.000001   0.000000   0.000000  -0.000004
    24  H    0.031415   0.000369  -0.000006  -0.000000  -0.000000   0.000096
    25  H   -0.000511   0.001679  -0.000019   0.000000  -0.000000   0.000001
    26  H    0.328705   0.001677   0.000015   0.000000   0.000003  -0.000530
              19         20         21         22         23         24
     1  N    0.003098   0.025439  -0.000250   0.000107  -0.000165   0.000148
     2  S   -0.010514  -0.001827  -0.003929   0.005372   0.005414  -0.005993
     3  C   -0.000637  -0.003472   0.004587  -0.000578  -0.000141   0.000892
     4  C    0.000239   0.001732   0.000232  -0.000053  -0.000006  -0.000018
     5  C   -0.000031   0.000335  -0.000327   0.000022   0.000000  -0.000000
     6  C    0.000031   0.000004   0.000036  -0.000004   0.000000   0.000000
     7  Br  -0.000000   0.000000  -0.000002   0.000000  -0.000000   0.000000
     8  C    0.000241   0.000007   0.000193  -0.000012  -0.000000   0.000002
     9  C    0.005123  -0.000194  -0.000622   0.000025  -0.000022   0.000044
    10  C    0.339718  -0.034021  -0.016940  -0.012132  -0.019048  -0.031198
    11  C   -0.024527   0.387990   0.391660   0.384177  -0.004120   0.010436
    12  C   -0.013890  -0.005680   0.006927  -0.006884   0.399760   0.389883
    13  N    0.003654   0.000562   0.000006  -0.000171   0.000127   0.031415
    14  H   -0.000026  -0.000381  -0.000028  -0.000024  -0.000000   0.000369
    15  H   -0.000089   0.000823  -0.000033   0.000051   0.000001  -0.000006
    16  H    0.000000  -0.000007   0.000006   0.000001   0.000000  -0.000000
    17  H   -0.000013   0.000000  -0.000003   0.000000   0.000000  -0.000000
    18  H    0.001988  -0.000075   0.000022  -0.000011  -0.000004   0.000096
    19  H    0.630620   0.008122  -0.007767  -0.004150  -0.008137  -0.004963
    20  H    0.008122   0.593859  -0.020128  -0.016232  -0.001102  -0.000345
    21  H   -0.007767  -0.020128   0.602041  -0.017656   0.000107  -0.000446
    22  H   -0.004150  -0.016232  -0.017656   0.613898   0.003867  -0.000150
    23  H   -0.008137  -0.001102   0.000107   0.003867   0.604554  -0.014976
    24  H   -0.004963  -0.000345  -0.000446  -0.000150  -0.014976   0.579497
    25  H    0.009493   0.008142   0.000018  -0.001501  -0.022994  -0.019688
    26  H   -0.000778  -0.000055   0.000005   0.000011   0.000034  -0.001465
              25         26
     1  N    0.010004  -0.001825
     2  S   -0.000880  -0.014142
     3  C    0.000323  -0.001823
     4  C    0.000028   0.000108
     5  C   -0.000000  -0.000031
     6  C    0.000000  -0.000002
     7  Br  -0.000000  -0.000000
     8  C    0.000001  -0.000101
     9  C    0.000002  -0.001178
    10  C   -0.038224   0.009995
    11  C   -0.009002  -0.000492
    12  C    0.390392  -0.000344
    13  N   -0.000511   0.328705
    14  H    0.001679   0.001677
    15  H   -0.000019   0.000015
    16  H    0.000000   0.000000
    17  H   -0.000000   0.000003
    18  H    0.000001  -0.000530
    19  H    0.009493  -0.000778
    20  H    0.008142  -0.000055
    21  H    0.000018   0.000005
    22  H   -0.001501   0.000011
    23  H   -0.022994   0.000034
    24  H   -0.019688  -0.001465
    25  H    0.638439  -0.000267
    26  H   -0.000267   0.557776
 Mulliken charges:
               1
     1  N   -0.415851
     2  S    0.415238
     3  C   -0.098357
     4  C    0.022463
     5  C    0.024247
     6  C   -0.059636
     7  Br  -0.024854
     8  C    0.018803
     9  C    0.014155
    10  C   -0.244839
    11  C   -0.017627
    12  C   -0.004656
    13  N   -0.413809
    14  H    0.124911
    15  H    0.046684
    16  H    0.026311
    17  H    0.026111
    18  H    0.034103
    19  H    0.073192
    20  H    0.056505
    21  H    0.062291
    22  H    0.052025
    23  H    0.056852
    24  H    0.066468
    25  H    0.034565
    26  H    0.124703
 Sum of Mulliken charges =  -0.00000
 Mulliken charges with hydrogens summed into heavy atoms:
               1
     1  N   -0.290940
     2  S    0.415238
     3  C   -0.098357
     4  C    0.069148
     5  C    0.050558
     6  C   -0.059636
     7  Br  -0.024854
     8  C    0.044914
     9  C    0.048258
    10  C   -0.171647
    11  C    0.153195
    12  C    0.153229
    13  N   -0.289107
 Electronic spatial extent (au):  <R**2>=           5007.6519
 Charge=              0.0000 electrons
 Dipole moment (field-independent basis, Debye):
    X=              0.7813    Y=              0.9274    Z=             -0.6459  Tot=              1.3739
 Quadrupole moment (field-independent basis, Debye-Ang):
   XX=            -96.7458   YY=            -97.2345   ZZ=            -96.7882
   XY=              3.2983   XZ=              0.3924   YZ=             -1.6864
 Traceless Quadrupole moment (field-independent basis, Debye-Ang):
   XX=              0.1770   YY=             -0.3116   ZZ=              0.1347
   XY=              3.2983   XZ=              0.3924   YZ=             -1.6864
 Octapole moment (field-independent basis, Debye-Ang**2):
  XXX=            -85.6903  YYY=             -2.7485  ZZZ=             -9.0903  XYY=            -32.2081
  XXY=             13.7928  XXZ=              8.9602  XZZ=            -40.6698  YZZ=              1.0775
  YYZ=              4.5573  XYZ=            -20.7576
 Hexadecapole moment (field-independent basis, Debye-Ang**3):
 XXXX=          -4506.4319 YYYY=           -566.6855 ZZZZ=           -537.7709 XXXY=              5.0083
 XXXZ=             88.6489 YYYX=            -36.2407 YYYZ=            -22.6067 ZZZX=             15.3746
 ZZZY=              5.9381 XXYY=           -875.2868 XXZZ=           -841.5576 YYZZ=           -184.3037
 XXYZ=            -50.6758 YYXZ=             26.8473 ZZXY=             -7.9444
 N-N= 1.215629072146D+03 E-N=-1.059299779240D+04  KE= 3.422931073130D+03
   1 Symmetry operations used in ECPInt.
 ECPInt:  NShTT=    7875 NPrTT=   30380 LenC2=    7399 LenP2D=   20856.
 LDataN:  DoStor=T MaxTD1= 5 Len=  102
 Calling FoFJK, ICntrl=      2127 FMM=F ISym2X=0 I1Cent= 0 IOpClX= 0 NMat=1 NMatS=1 NMatT=0.
 ***** Axes restored to original set *****
 -------------------------------------------------------------------
 Center     Atomic                   Forces (Hartrees/Bohr)
 Number     Number              X              Y              Z
 -------------------------------------------------------------------
      1        7           0.011795534   -0.003641624   -0.012010910
      2       16           0.003578527    0.001312413    0.005597158
      3        6          -0.009951343   -0.002459868   -0.000091871
      4        6           0.000739032   -0.000848146   -0.000906807
      5        6           0.000454838    0.000815161    0.000753081
      6        6           0.014797819    0.000874208   -0.002425109
      7       35          -0.005658791   -0.000331843    0.000998054
      8        6           0.000073747   -0.000256203   -0.000976414
      9        6          -0.002632852    0.000665461    0.000620212
     10        6          -0.006213036   -0.008612072   -0.004531605
     11        6           0.001295138    0.000318789    0.008350852
     12        6           0.008707061   -0.002526387    0.003291653
     13        7          -0.005619324    0.019353297    0.000513065
     14        1          -0.010552223    0.001881153    0.004683809
     15        1          -0.005795812   -0.006618988   -0.005279545
     16        1           0.003612914   -0.004965167   -0.006061590
     17        1           0.004849662    0.005137529    0.004767753
     18        1          -0.003704451    0.005266909    0.007955819
     19        1           0.004642474    0.004990947    0.004495610
     20        1          -0.002913314   -0.006742303   -0.004562691
     21        1           0.007368239    0.000666790   -0.002907205
     22        1          -0.003371896    0.006351377   -0.003200672
     23        1          -0.001966231    0.006877167   -0.003677309
     24        1          -0.003091853   -0.000030449    0.007476915
     25        1          -0.005124676   -0.005969375   -0.004405210
     26        1           0.004680815   -0.011508777    0.001532956
 -------------------------------------------------------------------
 Cartesian Forces:  Max     0.019353297 RMS     0.005719511

 GradGradGradGradGradGradGradGradGradGradGradGradGradGradGradGradGradGrad
 Berny optimization.
 FormGI is forming the generalized inverse of G from B-inverse, IUseBI=4.
 Internal  Forces:  Max     0.011920719 RMS     0.003946025
 Search for a local minimum.
 Step number   1 out of a maximum of  143
 All quantities printed in internal units (Hartrees-Bohrs-Radians)
 Mixed Optimization -- RFO/linear search
 Second derivative matrix not updated -- first step.
 ITU=  0
     Eigenvalues ---    0.00230   0.00230   0.00566   0.00593   0.01501
     Eigenvalues ---    0.02270   0.02278   0.02286   0.02290   0.02300
     Eigenvalues ---    0.02309   0.02313   0.02319   0.03434   0.03440
     Eigenvalues ---    0.03895   0.04465   0.05387   0.05689   0.05762
     Eigenvalues ---    0.05900   0.05907   0.06531   0.08636   0.09143
     Eigenvalues ---    0.15473   0.15951   0.15998   0.15999   0.16000
     Eigenvalues ---    0.16000   0.16000   0.16000   0.16000   0.16000
     Eigenvalues ---    0.16000   0.16000   0.16000   0.16000   0.16680
     Eigenvalues ---    0.18108   0.19085   0.22000   0.22190   0.22996
     Eigenvalues ---    0.23998   0.24991   0.25000   0.25151   0.30840
     Eigenvalues ---    0.31042   0.34922   0.34944   0.34990   0.35029
     Eigenvalues ---    0.35031   0.35051   0.35132   0.36051   0.36097
     Eigenvalues ---    0.36099   0.36270   0.43746   0.43823   0.46444
     Eigenvalues ---    0.46537   0.48054   0.48307   0.48430   0.48615
     Eigenvalues ---    0.65253   0.65375
 RFO step:  Lambda=-7.17458675D-03 EMin= 2.30000000D-03
 Linear search not attempted -- first point.
 Iteration  1 RMS(Cart)=  0.03272596 RMS(Int)=  0.00071486
 Iteration  2 RMS(Cart)=  0.00081845 RMS(Int)=  0.00007293
 Iteration  3 RMS(Cart)=  0.00000085 RMS(Int)=  0.00007293
 Variable       Old X    -DE/DX   Delta X   Delta X   Delta X     New X
                                 (Linear)    (Quad)   (Total)
    R1        2.90711   0.00479   0.00000   0.00726   0.00726   2.91437
    R2        1.90230   0.00993   0.00000   0.02102   0.02102   1.92333
    R3        3.42527  -0.00315   0.00000  -0.01216  -0.01216   3.41311
    R4        3.50640  -0.00394   0.00000  -0.01718  -0.01718   3.48921
    R5        2.90624   0.00350   0.00000   0.00530   0.00530   2.91154
    R6        2.61162   0.01032   0.00000   0.02107   0.02108   2.63269
    R7        2.61374   0.00867   0.00000   0.01773   0.01773   2.63147
    R8        2.61508   0.00936   0.00000   0.01914   0.01914   2.63422
    R9        2.03662   0.01025   0.00000   0.02772   0.02772   2.06433
   R10        2.61953   0.00871   0.00000   0.01775   0.01775   2.63728
   R11        2.03930   0.00863   0.00000   0.02344   0.02344   2.06273
   R12        3.59603  -0.00576   0.00000  -0.03057  -0.03057   3.56546
   R13        2.61990   0.00854   0.00000   0.01732   0.01732   2.63722
   R14        2.61458   0.00904   0.00000   0.01830   0.01830   2.63289
   R15        2.03927   0.00852   0.00000   0.02314   0.02314   2.06242
   R16        2.04002   0.01019   0.00000   0.02771   0.02771   2.06773
   R17        2.85932   0.00280   0.00000   0.00881   0.00881   2.86813
   R18        2.86320   0.00175   0.00000   0.00555   0.00555   2.86875
   R19        2.05766   0.00809   0.00000   0.02268   0.02268   2.08034
   R20        2.05802   0.00852   0.00000   0.02390   0.02390   2.08191
   R21        2.05593   0.00771   0.00000   0.02156   0.02156   2.07748
   R22        2.05627   0.00782   0.00000   0.02188   0.02188   2.07815
   R23        2.05624   0.00793   0.00000   0.02218   0.02218   2.07843
   R24        2.05460   0.00789   0.00000   0.02202   0.02202   2.07662
   R25        2.05690   0.00896   0.00000   0.02510   0.02510   2.08201
   R26        1.90333   0.01035   0.00000   0.02194   0.02194   1.92528
    A1        1.98922  -0.01063   0.00000  -0.06356  -0.06356   1.92565
    A2        1.77445  -0.00087   0.00000   0.00048   0.00048   1.77492
    A3        1.99247  -0.00299   0.00000  -0.02173  -0.02163   1.97084
    A4        2.17577   0.00405   0.00000   0.02658   0.02639   2.20216
    A5        1.74709   0.00328   0.00000   0.01269   0.01273   1.75982
    A6        1.95780  -0.00132   0.00000  -0.00457  -0.00462   1.95318
    A7        1.77547  -0.00212   0.00000  -0.01533  -0.01524   1.76022
    A8        2.10413   0.00353   0.00000   0.01332   0.01331   2.11744
    A9        2.06241  -0.00461   0.00000  -0.01835  -0.01836   2.04405
   A10        2.11634   0.00108   0.00000   0.00485   0.00484   2.12118
   A11        2.08649  -0.00139   0.00000  -0.00539  -0.00538   2.08110
   A12        2.06885   0.00106   0.00000   0.00486   0.00486   2.07370
   A13        2.12780   0.00033   0.00000   0.00050   0.00049   2.12830
   A14        2.07623   0.00069   0.00000   0.00304   0.00304   2.07927
   A15        2.10798  -0.00042   0.00000  -0.00193  -0.00193   2.10605
   A16        2.09897  -0.00028   0.00000  -0.00111  -0.00111   2.09786
   A17        2.08012   0.00009   0.00000   0.00065   0.00064   2.08077
   A18        2.12477  -0.00021   0.00000  -0.00142  -0.00143   2.12334
   A19        2.07828   0.00012   0.00000   0.00076   0.00076   2.07904
   A20        2.07334   0.00075   0.00000   0.00272   0.00271   2.07605
   A21        2.10004  -0.00025   0.00000  -0.00061  -0.00062   2.09943
   A22        2.10979  -0.00050   0.00000  -0.00213  -0.00214   2.10765
   A23        2.08907  -0.00092   0.00000  -0.00389  -0.00390   2.08517
   A24        2.07906   0.00116   0.00000   0.00610   0.00609   2.08514
   A25        2.11494  -0.00025   0.00000  -0.00232  -0.00233   2.11261
   A26        1.88259   0.00237   0.00000   0.01811   0.01811   1.90070
   A27        1.86794  -0.00156   0.00000  -0.00491  -0.00507   1.86287
   A28        1.82770  -0.00088   0.00000  -0.01463  -0.01461   1.81309
   A29        1.97756   0.00020   0.00000   0.00698   0.00695   1.98451
   A30        1.96462  -0.00085   0.00000  -0.00663  -0.00655   1.95807
   A31        1.93366   0.00065   0.00000   0.00004  -0.00001   1.93364
   A32        1.90270   0.00177   0.00000   0.01237   0.01225   1.91494
   A33        1.94110   0.00282   0.00000   0.01860   0.01850   1.95960
   A34        1.93197  -0.00217   0.00000  -0.01651  -0.01644   1.91554
   A35        1.89242  -0.00138   0.00000  -0.00127  -0.00154   1.89088
   A36        1.89937  -0.00033   0.00000  -0.00562  -0.00558   1.89379
   A37        1.89543  -0.00077   0.00000  -0.00781  -0.00772   1.88771
   A38        1.93416  -0.00231   0.00000  -0.01693  -0.01690   1.91725
   A39        1.90803   0.00286   0.00000   0.02052   0.02047   1.92850
   A40        1.91925   0.00105   0.00000   0.00597   0.00586   1.92511
   A41        1.90399  -0.00026   0.00000  -0.00103  -0.00093   1.90306
   A42        1.89728  -0.00026   0.00000  -0.00814  -0.00818   1.88911
   A43        1.90074  -0.00111   0.00000  -0.00039  -0.00057   1.90017
   A44        1.99525  -0.01192   0.00000  -0.07131  -0.07131   1.92394
    D1        2.84081   0.00090   0.00000   0.03935   0.03945   2.88026
    D2       -1.57848   0.00317   0.00000   0.04658   0.04672  -1.53176
    D3        0.61227   0.00050   0.00000   0.02435   0.02410   0.63637
    D4        0.21295  -0.00208   0.00000  -0.02141  -0.02132   0.19163
    D5       -2.90219  -0.00193   0.00000  -0.01387  -0.01379  -2.91598
    D6       -1.83729   0.00030   0.00000  -0.00251  -0.00252  -1.83982
    D7        1.33075   0.00046   0.00000   0.00503   0.00501   1.33576
    D8        2.57508   0.00152   0.00000   0.01004   0.00997   2.58505
    D9       -0.54007   0.00168   0.00000   0.01758   0.01751  -0.52256
   D10       -0.83811   0.00014   0.00000  -0.01022  -0.01009  -0.84820
   D11        1.29534   0.00081   0.00000   0.00553   0.00565   1.30099
   D12       -2.93425   0.00042   0.00000  -0.00374  -0.00354  -2.93779
   D13        1.04269  -0.00011   0.00000  -0.01015  -0.01018   1.03251
   D14       -3.10704   0.00057   0.00000   0.00559   0.00556  -3.10148
   D15       -1.05345   0.00017   0.00000  -0.00367  -0.00363  -1.05708
   D16        3.05633  -0.00112   0.00000  -0.01556  -0.01572   3.04061
   D17       -1.09340  -0.00044   0.00000   0.00019   0.00002  -1.09338
   D18        0.96019  -0.00083   0.00000  -0.00907  -0.00917   0.95102
   D19        0.60485   0.00329   0.00000   0.06041   0.06061   0.66546
   D20       -1.54512   0.00227   0.00000   0.03970   0.03966  -1.50546
   D21        2.88553   0.00003   0.00000   0.03430   0.03414   2.91967
   D22       -3.12950   0.00010   0.00000   0.00250   0.00257  -3.12693
   D23        0.00155  -0.00001   0.00000  -0.00040  -0.00034   0.00120
   D24       -0.01518  -0.00015   0.00000  -0.00563  -0.00564  -0.02082
   D25        3.11586  -0.00025   0.00000  -0.00852  -0.00855   3.10731
   D26        3.13110   0.00007   0.00000  -0.00007  -0.00002   3.13108
   D27        0.00589   0.00033   0.00000   0.00817   0.00823   0.01413
   D28        0.01615   0.00019   0.00000   0.00740   0.00740   0.02355
   D29       -3.10906   0.00045   0.00000   0.01564   0.01565  -3.09341
   D30        0.00286   0.00002   0.00000   0.00083   0.00083   0.00369
   D31       -3.14005  -0.00005   0.00000  -0.00122  -0.00123  -3.14127
   D32       -3.12782   0.00012   0.00000   0.00380   0.00381  -3.12400
   D33        0.01246   0.00006   0.00000   0.00175   0.00175   0.01422
   D34       -3.13775  -0.00008   0.00000  -0.00243  -0.00243  -3.14018
   D35        0.00846   0.00005   0.00000   0.00210   0.00209   0.01055
   D36        0.00515  -0.00001   0.00000  -0.00039  -0.00038   0.00477
   D37       -3.13183   0.00012   0.00000   0.00414   0.00414  -3.12769
   D38       -0.00751  -0.00001   0.00000  -0.00037  -0.00037  -0.00788
   D39        3.13018  -0.00021   0.00000  -0.00754  -0.00752   3.12266
   D40        3.13870   0.00012   0.00000   0.00416   0.00415  -3.14034
   D41       -0.00680  -0.00008   0.00000  -0.00301  -0.00300  -0.00980
   D42       -0.00474  -0.00011   0.00000  -0.00428  -0.00426  -0.00900
   D43        3.12013  -0.00035   0.00000  -0.01262  -0.01257   3.10756
   D44        3.14078   0.00010   0.00000   0.00292   0.00292  -3.13948
   D45       -0.01754  -0.00015   0.00000  -0.00541  -0.00539  -0.02292
   D46        0.86385   0.00071   0.00000   0.02875   0.02887   0.89272
   D47       -1.22187  -0.00046   0.00000   0.01094   0.01089  -1.21097
   D48        2.95254   0.00009   0.00000   0.01952   0.01958   2.97212
   D49       -1.20055   0.00096   0.00000   0.01867   0.01870  -1.18185
   D50        2.99691  -0.00020   0.00000   0.00087   0.00072   2.99763
   D51        0.88814   0.00034   0.00000   0.00945   0.00940   0.89754
   D52        2.87142   0.00062   0.00000   0.01836   0.01846   2.88988
   D53        0.78570  -0.00055   0.00000   0.00056   0.00048   0.78618
   D54       -1.32308  -0.00000   0.00000   0.00914   0.00916  -1.31391
   D55        3.04460  -0.00062   0.00000   0.00553   0.00550   3.05010
   D56        0.94544  -0.00069   0.00000   0.00420   0.00429   0.94973
   D57       -1.14050  -0.00174   0.00000  -0.01160  -0.01163  -1.15213
   D58       -1.16571   0.00139   0.00000   0.02877   0.02872  -1.13699
   D59        3.01832   0.00132   0.00000   0.02745   0.02750   3.04582
   D60        0.93238   0.00028   0.00000   0.01165   0.01159   0.94396
   D61        1.06174   0.00095   0.00000   0.02547   0.02545   1.08719
   D62       -1.03742   0.00087   0.00000   0.02415   0.02424  -1.01318
   D63       -3.12336  -0.00017   0.00000   0.00835   0.00832  -3.11504
         Item               Value     Threshold  Converged?
 Maximum Force            0.011921     0.000450     NO 
 RMS     Force            0.003946     0.000300     NO 
 Maximum Displacement     0.156604     0.001800     NO 
 RMS     Displacement     0.032988     0.001200     NO 
 Predicted change in Energy=-3.744768D-03
 GradGradGradGradGradGradGradGradGradGradGradGradGradGradGradGradGradGrad

                          Input orientation:                          
 ---------------------------------------------------------------------
 Center     Atomic      Atomic             Coordinates (Angstroms)
 Number     Number       Type             X           Y           Z
 ---------------------------------------------------------------------
      1          7           0       -3.073015   -1.594845   -0.119322
      2         16           0       -2.643395   -0.337856    0.664156
      3          6           0       -0.872764   -0.275154    0.313334
      4          6           0       -0.298803   -1.086273   -0.663168
      5          6           0        1.075396   -1.015063   -0.885999
      6          6           0        1.842999   -0.135362   -0.121425
      7         35           0        3.702880   -0.035348   -0.422588
      8          6           0        1.271287    0.665181    0.868450
      9          6           0       -0.102229    0.587361    1.088860
     10          6           0       -3.209676    1.231274   -0.127297
     11          6           0       -2.857431    1.192587   -1.603097
     12          6           0       -4.699475    1.343718    0.141804
     13          7           0       -2.946830   -0.041631    2.145371
     14          1           0       -3.997058   -1.899233    0.179624
     15          1           0       -0.940515   -1.769979   -1.223600
     16          1           0        1.549393   -1.639700   -1.645366
     17          1           0        1.895446    1.332543    1.465253
     18          1           0       -0.581464    1.175869    1.877056
     19          1           0       -2.654978    2.014356    0.412149
     20          1           0       -3.223352    0.253532   -2.048092
     21          1           0       -1.773478    1.257331   -1.774671
     22          1           0       -3.337458    2.035032   -2.121967
     23          1           0       -5.073931    2.309512   -0.227939
     24          1           0       -4.902542    1.269261    1.219210
     25          1           0       -5.243831    0.540307   -0.379791
     26          1           0       -2.882511   -0.896410    2.696005
 ---------------------------------------------------------------------
                    Distance matrix (angstroms):
                    1          2          3          4          5
     1  N    0.000000
     2  S    1.542217   0.000000
     3  C    2.601899   1.806140   0.000000
     4  C    2.872397   2.796253   1.393162   0.000000
     5  C    4.258315   4.085462   2.404410   1.393968   0.000000
     6  C    5.128088   4.559153   2.753893   2.405210   1.395587
     7  Br   6.959652   6.445753   4.640647   4.144369   2.842229
     8  C    4.995635   4.046301   2.406104   2.806889   2.437146
     9  C    3.879084   2.737503   1.392515   2.430904   2.802611
    10  C    2.829432   1.846413   2.815074   3.759171   4.897295
    11  C    3.165097   2.743812   3.125040   3.552921   4.566735
    12  C    3.368785   2.707029   4.158592   5.091046   6.322132
    13  N    2.749041   1.540720   2.777165   3.998902   5.129822
    14  H    1.017780   2.122516   3.523737   3.879212   5.258050
    15  H    2.407832   2.917945   2.145054   1.092398   2.178938
    16  H    4.868005   4.960662   3.400785   2.164908   1.091551
    17  H    5.980474   4.902353   3.402145   3.898150   3.422297
    18  H    4.227317   2.830910   2.153034   3.413199   3.896131
    19  H    3.671995   2.365701   2.903086   4.040020   4.977776
    20  H    2.675677   2.835909   3.373589   3.502296   4.630229
    21  H    3.544557   3.041259   2.742182   2.983720   3.750946
    22  H    4.154097   3.724890   4.164417   4.593916   5.504905
    23  H    4.388561   3.702958   4.962186   5.875596   7.021401
    24  H    3.652662   2.827482   4.409642   5.503299   6.736897
    25  H    3.056004   2.936539   4.500181   5.213383   6.527484
    26  H    2.906918   2.120747   3.178390   4.242127   5.339462
                    6          7          8          9         10
     6  C    0.000000
     7  Br   1.886759   0.000000
     8  C    1.395556   2.840804   0.000000
     9  C    2.402297   4.141388   1.393263   0.000000
    10  C    5.234238   7.033844   4.625041   3.398512   0.000000
    11  C    5.104198   6.777839   4.840766   3.899239   1.517748
    12  C    6.712744   8.533459   6.052968   4.754331   1.518078
    13  N    5.299963   7.128331   4.463476   3.098968   2.618089
    14  H    6.108039   7.945173   5.899674   4.709517   3.242568
    15  H    3.410970   5.021124   3.898557   3.406942   3.918992
    16  H    2.161397   2.950702   3.421855   3.894054   5.761577
    17  H    2.162184   2.949896   1.091384   2.165103   5.348713
    18  H    3.404596   5.011089   2.170432   1.094194   3.305753
    19  H    5.013759   6.732045   4.176606   3.001796   1.100867
    20  H    5.434261   7.120281   5.373774   4.437715   2.155371
    21  H    4.213279   5.787024   4.075208   3.382564   2.185677
    22  H    5.962375   7.532644   5.662121   4.782454   2.154313
    23  H    7.337076   9.086731   6.645878   5.423798   2.155963
    24  H    7.019444   8.857245   6.213221   4.850256   2.163404
    25  H    7.123654   8.965314   6.634792   5.347450   2.163094
    26  H    5.554057   7.337195   4.799225   3.537578   3.550367
                   11         12         13         14         15
    11  C    0.000000
    12  C    2.541780   0.000000
    13  N    3.947442   3.000873   0.000000
    14  H    3.746491   3.318366   2.901348   0.000000
    15  H    3.548997   5.068453   4.285143   3.365739   0.000000
    16  H    5.238677   7.151441   6.094222   5.844747   2.528735
    17  H    5.658992   6.726412   5.079227   6.842427   4.989814
    18  H    4.158338   4.471833   2.673810   4.899369   4.291971
    19  H    2.185750   2.168596   2.704869   4.143842   4.465003
    20  H    1.101701   2.857112   4.212922   3.193076   3.160020
    21  H    1.099356   3.498828   4.293109   4.327525   3.187807
    22  H    1.099712   2.730872   4.761858   4.605523   4.585904
    23  H    2.837509   1.099857   3.960433   4.363405   5.892260
    24  H    3.486226   1.098901   2.530024   3.455430   5.558953
    25  H    2.759865   1.101751   3.462847   2.796202   4.956608
    26  H    4.779834   3.852723   1.018814   2.929171   4.460693
                   16         17         18         19         20
    16  H    0.000000
    17  H    4.316241   0.000000
    18  H    4.987529   2.515792   0.000000
    19  H    5.938201   4.720196   2.673663   0.000000
    20  H    5.150302   6.301583   4.820484   3.078365   0.000000
    21  H    4.410327   4.895280   3.842219   2.476350   1.784519
    22  H    6.132872   6.383175   4.932125   2.624490   1.786679
    23  H    7.840524   7.238341   5.089049   2.519557   3.311292
    24  H    7.635137   6.802733   4.371865   2.501611   3.811384
    25  H    7.245827   7.416273   5.218714   3.082556   2.635869
    26  H    6.248341   5.414042   3.203098   3.706795   4.893362
                   21         22         23         24         25
    21  H    0.000000
    22  H    1.780862   0.000000
    23  H    3.793739   2.584187   0.000000
    24  H    4.330647   3.768203   1.790457   0.000000
    25  H    3.808302   2.983897   1.783820   1.790155   0.000000
    26  H    5.084830   5.658020   4.861040   3.309318   4.135276
                   26
    26  H    0.000000
 Stoichiometry    C9H13BrN2S
 Framework group  C1[X(C9H13BrN2S)]
 Deg. of freedom    72
 Full point group                 C1      NOp   1
 Largest Abelian subgroup         C1      NOp   1
 Largest concise Abelian subgroup C1      NOp   1
                         Standard orientation:                         
 ---------------------------------------------------------------------
 Center     Atomic      Atomic             Coordinates (Angstroms)
 Number     Number       Type             X           Y           Z
 ---------------------------------------------------------------------
      1          7           0        2.698978    0.061973    1.819548
      2         16           0        2.416426   -0.508971    0.415048
      3          6           0        0.627852   -0.293739    0.285343
      4          6           0       -0.078937    0.468805    1.212639
      5          6           0       -1.461243    0.591538    1.081054
      6          6           0       -2.103475   -0.056856    0.025220
      7         35           0       -3.974078    0.109509   -0.156513
      8          6           0       -1.398318   -0.834622   -0.894241
      9          6           0       -0.017296   -0.956250   -0.755791
     10          6           0        2.998567    0.599291   -0.942194
     11          6           0        2.511638    2.010364   -0.667723
     12          6           0        4.510699    0.474071   -0.990532
     13          7           0        2.870310   -1.881940   -0.116705
     14          1           0        3.627135   -0.213736    2.133214
     15          1           0        0.468151    0.943192    2.030553
     16          1           0       -2.038015    1.183459    1.794110
     17          1           0       -1.925593   -1.346257   -1.701291
     18          1           0        0.565207   -1.582635   -1.438135
     19          1           0        2.541852    0.170588   -1.847475
     20          1           0        2.780214    2.302967    0.359893
     21          1           0        1.422172    2.104641   -0.780674
     22          1           0        2.990587    2.711347   -1.366720
     23          1           0        4.905464    1.043225   -1.844880
     24          1           0        4.806432   -0.579208   -1.094121
     25          1           0        4.957576    0.880735   -0.069240
     26          1           0        2.806809   -2.583437    0.619401
 ---------------------------------------------------------------------
 Rotational constants (GHZ):           1.5176311           0.2057479           0.2044572
 Standard basis: def2SVP (5D, 7F)
 There are   284 symmetry adapted cartesian basis functions of A   symmetry.
 There are   269 symmetry adapted basis functions of A   symmetry.
   269 basis functions,   483 primitive gaussians,   284 cartesian basis functions
    66 alpha electrons       66 beta electrons
       nuclear repulsion energy      1213.9158764941 Hartrees.
 NAtoms=   26 NActive=   26 NUniq=   26 SFac= 1.00D+00 NAtFMM=   60 NAOKFM=F Big=F
 Integral buffers will be    131072 words long.
 Raffenetti 2 integral format.
 Two-electron integral symmetry is turned on.
 Nuclear repulsion after empirical dispersion term =     1213.8835745209 Hartrees.
 One-electron integrals computed using PRISM.
   1 Symmetry operations used in ECPInt.
 ECPInt:  NShTT=    7875 NPrTT=   30380 LenC2=    7397 LenP2D=   20825.
 LDataN:  DoStor=T MaxTD1= 4 Len=   56
 NBasis=   269 RedAO= T EigKep=  2.72D-04  NBF=   269
 NBsUse=   269 1.00D-06 EigRej= -1.00D+00 NBFU=   269
 Initial guess from the checkpoint file:  "SDI1145_4.chk"
 B after Tr=     0.000000    0.000000    0.000000
         Rot=    0.998081    0.061916    0.000332    0.001036 Ang=   7.10 deg.
 ExpMin= 1.22D-01 ExpMax= 1.13D+05 ExpMxC= 1.70D+04 IAcc=3 IRadAn=         5 AccDes= 0.00D+00
 Harris functional with IExCor= 1009 and IRadAn=       5 diagonalized for initial guess.
 HarFok:  IExCor= 1009 AccDes= 0.00D+00 IRadAn=         5 IDoV= 1 UseB2=F ITyADJ=14
 ICtDFT=  3500011 ScaDFX=  1.000000  1.000000  1.000000  1.000000
 FoFCou: FMM=F IPFlag=           0 FMFlag=      100000 FMFlg1=           0
         NFxFlg=           0 DoJE=T BraDBF=F KetDBF=T FulRan=T
         wScrn=  0.000000 ICntrl=       500 IOpCl=  0 I1Cent=   200000004 NGrid=           0
         NMat0=    1 NMatS0=      1 NMatT0=    0 NMatD0=    1 NMtDS0=    0 NMtDT0=    0
 Petite list used in FoFCou.
 Requested convergence on RMS density matrix=1.00D-08 within 128 cycles.
 Requested convergence on MAX density matrix=1.00D-06.
 Requested convergence on             energy=1.00D-06.
 No special actions if energy rises.
 Integral accuracy reduced to 1.0D-05 until final iterations.
 Initial convergence to 1.0D-05 achieved.  Increase integral accuracy.
 SCF Done:  E(RPBE1PBE) =  -3430.79633100     A.U. after   12 cycles
            NFock= 12  Conv=0.65D-08     -V/T= 2.0024
   1 Symmetry operations used in ECPInt.
 ECPInt:  NShTT=    7875 NPrTT=   30380 LenC2=    7397 LenP2D=   20825.
 LDataN:  DoStor=T MaxTD1= 5 Len=  102
 Calling FoFJK, ICntrl=      2127 FMM=F ISym2X=0 I1Cent= 0 IOpClX= 0 NMat=1 NMatS=1 NMatT=0.
 ***** Axes restored to original set *****
 -------------------------------------------------------------------
 Center     Atomic                   Forces (Hartrees/Bohr)
 Number     Number              X              Y              Z
 -------------------------------------------------------------------
      1        7           0.001398324   -0.008038446   -0.003175023
      2       16           0.005688557    0.007076742   -0.004305937
      3        6          -0.001240626   -0.001894044   -0.000695355
      4        6           0.000843523    0.000318060   -0.000013643
      5        6          -0.001996624    0.000427863    0.000939632
      6        6           0.001927908    0.000181372   -0.000118628
      7       35          -0.000303214   -0.000017403   -0.000002138
      8        6          -0.001694865   -0.000538041   -0.000324321
      9        6           0.000439110    0.000309215    0.000039453
     10        6           0.000004194   -0.002454472   -0.000569304
     11        6          -0.000367572    0.000232374    0.001900506
     12        6           0.000926620   -0.000180272    0.000770748
     13        7          -0.005329772    0.003639908    0.006585738
     14        1          -0.002856883    0.001962522    0.000270211
     15        1           0.000225507    0.000436271    0.000354730
     16        1          -0.000050334    0.000180230    0.000263539
     17        1          -0.000072206   -0.000199581   -0.000238729
     18        1           0.000162277   -0.000571360   -0.000279824
     19        1          -0.000300219    0.000509615   -0.000075018
     20        1          -0.000201006    0.000365119   -0.000150546
     21        1          -0.000115054   -0.000070712    0.000064233
     22        1           0.000096743    0.000360390   -0.000084378
     23        1          -0.000321269   -0.000064774   -0.000653815
     24        1           0.000033534    0.000446314   -0.000699315
     25        1          -0.000244418    0.000158681   -0.000179291
     26        1           0.003347764   -0.002575573    0.000376477
 -------------------------------------------------------------------
 Cartesian Forces:  Max     0.008038446 RMS     0.002045383

 GradGradGradGradGradGradGradGradGradGradGradGradGradGradGradGradGradGrad
 Berny optimization.
 Using GEDIIS/GDIIS optimizer.
 FormGI is forming the generalized inverse of G from B-inverse, IUseBI=4.
 Internal  Forces:  Max     0.007288528 RMS     0.001145949
 Search for a local minimum.
 Step number   2 out of a maximum of  143
 All quantities printed in internal units (Hartrees-Bohrs-Radians)
 Mixed Optimization -- RFO/linear search
 Update second derivatives using D2CorX and points    1    2
 DE= -4.05D-03 DEPred=-3.74D-03 R= 1.08D+00
 TightC=F SS=  1.41D+00  RLast= 2.08D-01 DXNew= 5.0454D-01 6.2347D-01
 Trust test= 1.08D+00 RLast= 2.08D-01 DXMaxT set to 5.05D-01
 ITU=  1  0
 Use linear search instead of GDIIS.
     Eigenvalues ---    0.00229   0.00230   0.00564   0.00592   0.01506
     Eigenvalues ---    0.02270   0.02278   0.02286   0.02290   0.02300
     Eigenvalues ---    0.02308   0.02314   0.02319   0.03102   0.03437
     Eigenvalues ---    0.03799   0.04440   0.05466   0.05613   0.05751
     Eigenvalues ---    0.05830   0.05886   0.06648   0.08714   0.09183
     Eigenvalues ---    0.14234   0.15638   0.15995   0.15999   0.15999
     Eigenvalues ---    0.16000   0.16000   0.16000   0.16000   0.16000
     Eigenvalues ---    0.16000   0.16000   0.16018   0.16130   0.16938
     Eigenvalues ---    0.18138   0.19102   0.21997   0.22154   0.22942
     Eigenvalues ---    0.24029   0.24831   0.24999   0.25116   0.30852
     Eigenvalues ---    0.31110   0.34919   0.34955   0.34987   0.35006
     Eigenvalues ---    0.35030   0.35063   0.35398   0.36070   0.36098
     Eigenvalues ---    0.36205   0.37546   0.43801   0.43869   0.45456
     Eigenvalues ---    0.46501   0.48053   0.48362   0.48593   0.50483
     Eigenvalues ---    0.65279   0.67079
 RFO step:  Lambda=-1.18419476D-03 EMin= 2.29430702D-03
 Quartic linear search produced a step of  0.15225.
 Iteration  1 RMS(Cart)=  0.05122199 RMS(Int)=  0.00087549
 Iteration  2 RMS(Cart)=  0.00143960 RMS(Int)=  0.00001796
 Iteration  3 RMS(Cart)=  0.00000095 RMS(Int)=  0.00001794
 Variable       Old X    -DE/DX   Delta X   Delta X   Delta X     New X
                                 (Linear)    (Quad)   (Total)
    R1        2.91437   0.00683   0.00111   0.01195   0.01306   2.92742
    R2        1.92333   0.00209   0.00320   0.00499   0.00819   1.93151
    R3        3.41311  -0.00176  -0.00185  -0.00788  -0.00974   3.40338
    R4        3.48921  -0.00058  -0.00262  -0.00284  -0.00545   3.48376
    R5        2.91154   0.00729   0.00081   0.01274   0.01355   2.92508
    R6        2.63269  -0.00124   0.00321  -0.00314   0.00007   2.63276
    R7        2.63147  -0.00064   0.00270  -0.00166   0.00104   2.63251
    R8        2.63422  -0.00127   0.00291  -0.00316  -0.00025   2.63397
    R9        2.06433  -0.00059   0.00422  -0.00206   0.00216   2.06649
   R10        2.63728  -0.00014   0.00270  -0.00043   0.00227   2.63955
   R11        2.06273  -0.00031   0.00357  -0.00115   0.00242   2.06515
   R12        3.56546  -0.00030  -0.00465  -0.00159  -0.00625   3.55921
[...]
 Alpha virt. eigenvalues --    4.67795   4.70121   4.71707   4.74250   4.76996
 Alpha virt. eigenvalues --    4.79359   4.85261   4.89627   4.90856   4.92037
 Alpha virt. eigenvalues --    4.93646   4.95720   4.97368   4.99353   5.08437
 Alpha virt. eigenvalues --    5.11303   5.15349   5.18028   5.19660   5.24408
 Alpha virt. eigenvalues --    5.25781   5.28603   5.38229   5.43675   5.54009
 Alpha virt. eigenvalues --    5.55856   5.60804   7.79146   9.48278   9.55722
 Alpha virt. eigenvalues --    9.66870  21.68785  22.06274  22.42219  22.43989
 Alpha virt. eigenvalues --   22.61544  22.68033  22.71240  22.76430  22.82897
 Alpha virt. eigenvalues --   23.18920  31.95638  31.97037
          Condensed to atoms (all electrons):
               1          2          3          4          5          6
     1  N    6.947115   0.485225  -0.120845   0.014466  -0.001608   0.000760
     2  S    0.485225  14.183125   0.220449  -0.000328   0.005591   0.001559
     3  C   -0.120845   0.220449   5.410327   0.293597   0.050407  -0.113756
     4  C    0.014466  -0.000328   0.293597   5.196898   0.317785   0.072532
     5  C   -0.001608   0.005591   0.050407   0.317785   5.162717   0.377579
     6  C    0.000760   0.001559  -0.113756   0.072532   0.377579   4.834578
     7  Br  -0.000001   0.000024  -0.003091   0.017799  -0.072619   0.323868
     8  C   -0.001680   0.002375   0.084960  -0.100982   0.034592   0.372105
     9  C    0.020753  -0.050843   0.329705  -0.055681  -0.107038   0.087968
    10  C   -0.031235   0.270970  -0.083268   0.024807  -0.000047  -0.000787
    11  C   -0.030353  -0.029619   0.027081  -0.018993  -0.000185   0.000273
    12  C   -0.006816  -0.025371   0.003539   0.000075   0.000030  -0.000009
    13  N   -0.081668   0.529646  -0.098104   0.014445  -0.000605   0.000336
    14  H    0.318462  -0.020524   0.017471  -0.003214   0.000047  -0.000018
    15  H    0.021754  -0.002575  -0.044511   0.432667  -0.062406   0.008978
    16  H   -0.000137  -0.000331   0.011630  -0.062441   0.443570  -0.062036
    17  H   -0.000002  -0.000269   0.013377  -0.002811   0.013291  -0.061815
    18  H    0.002073  -0.000521  -0.061062   0.005382  -0.001637   0.009695
    19  H    0.005724  -0.018669   0.002567   0.000666   0.000069   0.000015
    20  H    0.019621  -0.000644  -0.008882   0.004053   0.000140   0.000097
    21  H   -0.000430  -0.003109   0.003639  -0.006608   0.000999   0.000190
    22  H   -0.000003   0.005754  -0.001215   0.001180   0.000022  -0.000008
    23  H   -0.000036   0.006920  -0.000093  -0.000041   0.000000   0.000000
    24  H    0.000904   0.000087   0.001012  -0.000250  -0.000001   0.000002
    25  H    0.009117  -0.001858   0.001060   0.000004   0.000006  -0.000000
    26  H   -0.003416  -0.027412   0.001087   0.003356   0.000032  -0.000129
               7          8          9         10         11         12
     1  N   -0.000001  -0.001680   0.020753  -0.031235  -0.030353  -0.006816
     2  S    0.000024   0.002375  -0.050843   0.270970  -0.029619  -0.025371
     3  C   -0.003091   0.084960   0.329705  -0.083268   0.027081   0.003539
     4  C    0.017799  -0.100982  -0.055681   0.024807  -0.018993   0.000075
     5  C   -0.072619   0.034592  -0.107038  -0.000047  -0.000185   0.000030
     6  C    0.323868   0.372105   0.087968  -0.000787   0.000273  -0.000009
     7  Br  34.874297  -0.074640   0.018611   0.000002  -0.000002   0.000000
     8  C   -0.074640   5.168288   0.294927   0.002827  -0.001131  -0.000042
     9  C    0.018611   0.294927   5.260646  -0.017555   0.008817  -0.000206
    10  C    0.000002   0.002827  -0.017555   5.157632   0.283905   0.322787
    11  C   -0.000002  -0.001131   0.008817   0.283905   5.036545  -0.036893
    12  C    0.000000  -0.000042  -0.000206   0.322787  -0.036893   4.983969
    13  N   -0.000000  -0.003550   0.007874  -0.070579   0.002641  -0.014907
    14  H    0.000000   0.000086  -0.000865  -0.007384   0.001167  -0.001444
    15  H   -0.000351  -0.001510   0.008854   0.000914  -0.000317   0.000063
    16  H   -0.004916   0.014204  -0.002971   0.000013  -0.000027  -0.000001
    17  H   -0.004661   0.444838  -0.064218   0.000100  -0.000024  -0.000000
    18  H   -0.000359  -0.058480   0.437277  -0.004939   0.001330  -0.000388
    19  H   -0.000001  -0.000166  -0.002294   0.376749  -0.046043  -0.027335
    20  H   -0.000000  -0.000026  -0.000480  -0.019305   0.377356  -0.004024
    21  H   -0.000002  -0.000362   0.001746  -0.037217   0.408707   0.008001
    22  H    0.000000   0.000002  -0.000412  -0.029149   0.392343  -0.004039
    23  H   -0.000000   0.000003  -0.000011  -0.032173  -0.003111   0.396942
    24  H    0.000000   0.000005   0.000163  -0.041958   0.010347   0.410700
    25  H    0.000000   0.000001  -0.000144  -0.038098  -0.010660   0.391383
    26  H   -0.000000   0.000308  -0.007584   0.013005  -0.000739  -0.000047
              13         14         15         16         17         18
     1  N   -0.081668   0.318462   0.021754  -0.000137  -0.000002   0.002073
     2  S    0.529646  -0.020524  -0.002575  -0.000331  -0.000269  -0.000521
     3  C   -0.098104   0.017471  -0.044511   0.011630   0.013377  -0.061062
     4  C    0.014445  -0.003214   0.432667  -0.062441  -0.002811   0.005382
     5  C   -0.000605   0.000047  -0.062406   0.443570   0.013291  -0.001637
     6  C    0.000336  -0.000018   0.008978  -0.062036  -0.061815   0.009695
     7  Br  -0.000000   0.000000  -0.000351  -0.004916  -0.004661  -0.000359
     8  C   -0.003550   0.000086  -0.001510   0.014204   0.444838  -0.058480
     9  C    0.007874  -0.000865   0.008854  -0.002971  -0.064218   0.437277
    10  C   -0.070579  -0.007384   0.000914   0.000013   0.000100  -0.004939
    11  C    0.002641   0.001167  -0.000317  -0.000027  -0.000024   0.001330
    12  C   -0.014907  -0.001444   0.000063  -0.000001  -0.000000  -0.000388
    13  N    6.925014  -0.001393   0.000889   0.000006  -0.000018   0.022286
    14  H   -0.001393   0.480050  -0.001238  -0.000003  -0.000000  -0.000062
    15  H    0.000889  -0.001238   0.480564  -0.006647   0.000061  -0.000281
    16  H    0.000006  -0.000003  -0.006647   0.529450  -0.000035   0.000080
    17  H   -0.000018  -0.000000   0.000061  -0.000035   0.528081  -0.006568
    18  H    0.022286  -0.000062  -0.000281   0.000080  -0.006568   0.496338
    19  H    0.002302  -0.000020  -0.000179   0.000005  -0.000010   0.001055
    20  H    0.001202  -0.000569   0.000218  -0.000014   0.000000  -0.000101
    21  H    0.000135  -0.000047  -0.000400  -0.000018  -0.000010  -0.000081
    22  H   -0.000145  -0.000048   0.000110  -0.000001   0.000001  -0.000038
    23  H    0.000508   0.000154   0.000003   0.000000   0.000000   0.000003
    24  H    0.013320   0.000431  -0.000011  -0.000000  -0.000000   0.000183
    25  H   -0.000300   0.002044  -0.000055   0.000000  -0.000000  -0.000007
    26  H    0.316738  -0.000021   0.000046  -0.000000   0.000021  -0.002771
              19         20         21         22         23         24
     1  N    0.005724   0.019621  -0.000430  -0.000003  -0.000036   0.000904
     2  S   -0.018669  -0.000644  -0.003109   0.005754   0.006920   0.000087
     3  C    0.002567  -0.008882   0.003639  -0.001215  -0.000093   0.001012
     4  C    0.000666   0.004053  -0.006608   0.001180  -0.000041  -0.000250
     5  C    0.000069   0.000140   0.000999   0.000022   0.000000  -0.000001
     6  C    0.000015   0.000097   0.000190  -0.000008   0.000000   0.000002
     7  Br  -0.000001  -0.000000  -0.000002   0.000000  -0.000000   0.000000
     8  C   -0.000166  -0.000026  -0.000362   0.000002   0.000003   0.000005
     9  C   -0.002294  -0.000480   0.001746  -0.000412  -0.000011   0.000163
    10  C    0.376749  -0.019305  -0.037217  -0.029149  -0.032173  -0.041958
    11  C   -0.046043   0.377356   0.408707   0.392343  -0.003111   0.010347
    12  C   -0.027335  -0.004024   0.008001  -0.004039   0.396942   0.410700
    13  N    0.002302   0.001202   0.000135  -0.000145   0.000508   0.013320
    14  H   -0.000020  -0.000569  -0.000047  -0.000048   0.000154   0.000431
    15  H   -0.000179   0.000218  -0.000400   0.000110   0.000003  -0.000011
    16  H    0.000005  -0.000014  -0.000018  -0.000001   0.000000  -0.000000
    17  H   -0.000010   0.000000  -0.000010   0.000001   0.000000  -0.000000
    18  H    0.001055  -0.000101  -0.000081  -0.000038   0.000003   0.000183
    19  H    0.594216   0.008116  -0.004157  -0.005658  -0.006161  -0.003809
    20  H    0.008116   0.517454  -0.017182  -0.020249  -0.000476  -0.000420
    21  H   -0.004157  -0.017182   0.520487  -0.020887   0.000038  -0.000344
    22  H   -0.005658  -0.020249  -0.020887   0.547424   0.003555  -0.000108
    23  H   -0.006161  -0.000476   0.000038   0.003555   0.545903  -0.017705
    24  H   -0.003809  -0.000420  -0.000344  -0.000108  -0.017705   0.477344
    25  H    0.010003   0.006561  -0.000006  -0.001548  -0.023814  -0.017674
    26  H   -0.000985  -0.000052  -0.000006   0.000028   0.000045  -0.001052
              25         26
     1  N    0.009117  -0.003416
     2  S   -0.001858  -0.027412
     3  C    0.001060   0.001087
     4  C    0.000004   0.003356
     5  C    0.000006   0.000032
     6  C   -0.000000  -0.000129
     7  Br   0.000000  -0.000000
     8  C    0.000001   0.000308
     9  C   -0.000144  -0.007584
    10  C   -0.038098   0.013005
    11  C   -0.010660  -0.000739
    12  C    0.391383  -0.000047
    13  N   -0.000300   0.316738
    14  H    0.002044  -0.000021
    15  H   -0.000055   0.000046
    16  H    0.000000  -0.000000
    17  H   -0.000000   0.000021
    18  H   -0.000007  -0.002771
    19  H    0.010003  -0.000985
    20  H    0.006561  -0.000052
    21  H   -0.000006  -0.000006
    22  H   -0.001548   0.000028
    23  H   -0.023814   0.000045
    24  H   -0.017674  -0.001052
    25  H    0.558877  -0.000395
    26  H   -0.000395   0.492654
 Mulliken charges:
               1
     1  N   -0.567743
     2  S    0.470349
     3  C    0.062917
     4  C   -0.148363
     5  C   -0.160732
     6  C    0.148023
     7  Br  -0.073959
     8  C   -0.176951
     9  C   -0.167039
    10  C   -0.040018
    11  C   -0.372415
    12  C   -0.395966
    13  N   -0.566073
    14  H    0.216940
    15  H    0.165362
    16  H    0.140619
    17  H    0.140671
    18  H    0.161593
    19  H    0.114000
    20  H    0.137605
    21  H    0.146923
    22  H    0.133088
    23  H    0.129546
    24  H    0.168833
    25  H    0.115501
    26  H    0.217288
 Sum of Mulliken charges =  -0.00000
 Mulliken charges with hydrogens summed into heavy atoms:
               1
     1  N   -0.350803
     2  S    0.470349
     3  C    0.062917
     4  C    0.016999
     5  C   -0.020113
     6  C    0.148023
     7  Br  -0.073959
     8  C   -0.036280
     9  C   -0.005446
    10  C    0.073982
    11  C    0.045202
    12  C    0.017915
    13  N   -0.348785
 Electronic spatial extent (au):  <R**2>=           5027.2937
 Charge=             -0.0000 electrons
 Dipole moment (field-independent basis, Debye):
    X=              0.3516    Y=              1.2026    Z=             -1.2355  Tot=              1.7596
 Quadrupole moment (field-independent basis, Debye-Ang):
   XX=            -98.5064   YY=            -98.3713   ZZ=            -98.1780
   XY=              5.2848   XZ=             -2.1061   YZ=             -0.3291
 Traceless Quadrupole moment (field-independent basis, Debye-Ang):
   XX=             -0.1546   YY=             -0.0194   ZZ=              0.1739
   XY=              5.2848   XZ=             -2.1061   YZ=             -0.3291
 Octapole moment (field-independent basis, Debye-Ang**2):
  XXX=            -88.2432  YYY=             -0.1242  ZZZ=            -13.9854  XYY=            -42.8746
  XXY=             22.7758  XXZ=              0.4616  XZZ=            -39.2206  YZZ=              0.9193
  YYZ=              3.6168  XYZ=            -17.3068
 Hexadecapole moment (field-independent basis, Debye-Ang**3):
 XXXX=          -4597.6870 YYYY=           -604.3480 ZZZZ=           -561.3331 XXXY=             50.0599
 XXXZ=             66.6728 YYYX=            -14.5085 YYYZ=            -18.3335 ZZZX=              4.5240
 ZZZY=              7.5200 XXYY=           -922.0650 XXZZ=           -854.3884 YYZZ=           -180.1595
 XXYZ=            -29.2306 YYXZ=             22.8077 ZZXY=             -5.4603
 N-N= 1.213571923498D+03 E-N=-1.059287567779D+04  KE= 3.425334894559D+03
 Breneman (CHELPG) radii used.
 Read replacement radii for each type of atom:
 Rad(35) =   1.850000000000D+00
 Atom Element Radius
    1     7    1.70
    2    16    2.00
    3     6    1.50
    4     6    1.50
    5     6    1.50
    6     6    1.50
    7    35    1.85
    8     6    1.50
    9     6    1.50
   10     6    1.50
   11     6    1.50
   12     6    1.50
   13     7    1.70
   14     1    1.45
   15     1    1.45
   16     1    1.45
   17     1    1.45
   18     1    1.45
   19     1    1.45
   20     1    1.45
   21     1    1.45
   22     1    1.45
   23     1    1.45
   24     1    1.45
   25     1    1.45
   26     1    1.45
 Generate Potential Derived Charges using the Breneman model, NDens= 1.
 Grid spacing= 0.300 Box extension= 2.800
 NStep X,Y,Z=   50     38     32   Total possible points=       60800
 Number of Points to Fit=   15976

 **********************************************************************

            Electrostatic Properties Using The SCF Density.

 **********************************************************************

       Atomic Center    1 is at   2.681540  0.093894  1.832415
       Atomic Center    2 is at   2.406624 -0.497563  0.422289
       Atomic Center    3 is at   0.626577 -0.284572  0.297838
       Atomic Center    4 is at  -0.077136  0.530297  1.181197
       Atomic Center    5 is at  -1.457505  0.646277  1.044547
       Atomic Center    6 is at  -2.107199 -0.054642  0.026857
       Atomic Center    7 is at  -3.975132  0.109326 -0.160960
       Atomic Center    8 is at  -1.402171 -0.881705 -0.848260
       Atomic Center    9 is at  -0.022716 -1.000607 -0.704316
       Atomic Center   10 is at   3.018969  0.564788 -0.949686
       Atomic Center   11 is at   2.527991  1.982780 -0.745244
       Atomic Center   12 is at   4.532107  0.447699 -0.969704
       Atomic Center   13 is at   2.868174 -1.894443 -0.073534
       Atomic Center   14 is at   3.669057 -0.058905  2.049568
       Atomic Center   15 is at   0.471594  1.047818  1.969958
       Atomic Center   16 is at  -2.031318  1.276426  1.726068
       Atomic Center   17 is at  -1.930999 -1.433960 -1.626609
       Atomic Center   18 is at   0.559347 -1.665394 -1.348430
       Atomic Center   19 is at   2.586208  0.108011 -1.853397
       Atomic Center   20 is at   2.832715  2.349607  0.247257
       Atomic Center   21 is at   1.434037  2.059994 -0.820419
       Atomic Center   22 is at   2.968339  2.639491 -1.510215
       Atomic Center   23 is at   4.938347  1.046892 -1.798517
       Atomic Center   24 is at   4.842257 -0.597604 -1.094333
       Atomic Center   25 is at   4.961485  0.838815 -0.033011
       Atomic Center   26 is at   2.641063 -2.574625  0.657512
   15976 points will be used for fitting atomic charges
 Fitting point charges to electrostatic potential
 Charges from ESP fit, RMS=   0.00382 RRMS=   0.33115:
 ESP charges:
               1
     1  N   -0.787676
     2  S    0.507572
     3  C    0.141653
     4  C   -0.091944
     5  C   -0.074565
     6  C    0.051446
     7  Br  -0.078098
     8  C   -0.061614
     9  C   -0.171125
    10  C    0.315540
    11  C   -0.278128
    12  C   -0.273543
    13  N   -0.747739
    14  H    0.363286
    15  H    0.139028
    16  H    0.086323
    17  H    0.089878
    18  H    0.138759
    19  H   -0.006232
    20  H    0.087895
    21  H    0.021300
    22  H    0.079306
    23  H    0.071233
    24  H    0.088660
    25  H    0.062278
    26  H    0.326508
 Sum of ESP charges =  -0.00000
 ESP charges with hydrogens summed into heavy atoms:
               1
     1  N   -0.424390
     2  S    0.507572
     3  C    0.141653
     4  C    0.047083
     5  C    0.011758
     6  C    0.051446
     7  Br  -0.078098
     8  C    0.028264
     9  C   -0.032366
    10  C    0.309308
    11  C   -0.089627
    12  C   -0.051374
    13  N   -0.421231
 Charge=  -0.00000 Dipole=     0.2389     1.1432    -1.1577 Tot=     1.6445
 -----------------------------------------------------------------

              Electrostatic Properties (Atomic Units)

 -----------------------------------------------------------------
    Center     Electric         -------- Electric Field --------
               Potential          X             Y             Z
 -----------------------------------------------------------------
    1 Atom    -18.422628
    2 Atom    -59.078236
    3 Atom    -14.723971
    4 Atom    -14.737512
    5 Atom    -14.736138
    6 Atom    -14.686635
    7 Atom   -175.793377
    8 Atom    -14.734967
    9 Atom    -14.734404
   10 Atom    -14.720598
   11 Atom    -14.760075
   12 Atom    -14.760968
   13 Atom    -18.424347
   14 Atom     -1.047331
   15 Atom     -1.085587
   16 Atom     -1.078352
   17 Atom     -1.076846
   18 Atom     -1.078115
   19 Atom     -1.091171
   20 Atom     -1.107892
   21 Atom     -1.106543
   22 Atom     -1.101807
   23 Atom     -1.103019
   24 Atom     -1.113255
   25 Atom     -1.106345
   26 Atom     -1.050488
 -----------------------------------------------------------------
 Unable to Open any file for archive entry.
 1\1\GINC-NOTCH457\SP\RPBE1PBE\def2TZVP\C9H13Br1N2S1\U1414944\24-Feb-20
 25\0\\#N Guess=Read Geom=Check Integral(Ultrafine) Density Pop=(ChelpG
 ,ReadRadii) NMR pbe1pbe EmpiricalDispersion=GD3BJ def2TZVP\\SDI1145_4\
 \0,1\N,0,-3.0557623017,-1.6155035112,-0.0841249101\S,0,-2.6323511095,-
 0.3259633264,0.671959911\C,0,-0.8708056287,-0.2797979409,0.3194738814\
 C,0,-0.3009176135,-1.0758572609,-0.6710121316\C,0,1.0719730255,-1.0075
 913867,-0.890227644\C,0,1.8481654159,-0.1442195878,-0.114859333\Br,0,3
 .7056253076,-0.0479541459,-0.4180220777\C,0,1.2773468776,0.6420031152,
 0.8866141152\C,0,-0.094930432,0.5660532075,1.1076070395\C,0,-3.2264263
 537,1.2207973019,-0.1283395451\C,0,-2.8669729585,1.1959701527,-1.59930
 3511\C,0,-4.7198082237,1.3151111863,0.1258472703\N,0,-2.9430286833,-0.
 0121136528,2.1602881948\H,0,-4.0410202316,-1.792419707,0.1248265319\H,
 0,-0.9453602674,-1.7460298812,-1.2425355042\H,0,1.5422392156,-1.623416
 2434,-1.6586221564\H,0,1.9040331006,1.2980332114,1.4927162724\H,0,-0.5
 733434122,1.1403882817,1.9056554401\H,0,-2.6937738553,2.0203579235,0.4
 098107567\H,0,-3.2715910339,0.2878636222,-2.072699527\H,0,-1.780178598
 2,1.2152215706,-1.7631781756\H,0,-3.3017163559,2.0737740541,-2.1001178
 446\H,0,-5.1113822909,2.2455035694,-0.3123708\H,0,-4.9352049647,1.3045
 252144,1.2018930588\H,0,-5.2462320781,0.4732028487,-0.3524830268\H,0,-
 2.7159145268,-0.8469290225,2.708154387\\Version=ES64L-G16RevC.01\State
 =1-A\HF=-3431.7769056\RMSD=2.119e-09\Dipole=-0.140086,0.5573552,-0.385
 9901\Quadrupole=0.2841917,0.4524545,-0.7366463,-2.1192521,3.6054632,-0
 .244856\PG=C01 [X(C9H13Br1N2S1)]\\@
 The archive entry for this job was punched.


     ON THE SURVIVAL OF THE FITTEST -
 "STRONG REPRESENTATIVES FROM EACH PAST ERA THRIVE TODAY,
 SUCH AS PROGRAMMING IN THE THIRTY YEAR OLD LANGUAGE KNOWN
 AS FORTRAN, AND EVEN IN THE ANCIENT SCRIPT KNOWN AS DIRECT
 MACHINE CODE. SOME PEOPLE MIGHT LOOK ON SUCH RELICS AS LIVING
 FOSSILS; OTHERS WOULD POINT OUT THAT EVEN A VERY OLD SPECIES
 MIGHT STILL BE FILLING A PARTICULAR ECOLOGICAL NICHE."
     -- ALAN KAY, SCI.AM. SEPTEMBER 1984
 Job cpu time:       0 days  0 hours 30 minutes 14.3 seconds.
 Elapsed time:       0 days  0 hours  2 minutes  2.6 seconds.
 File lengths (MBytes):  RWF=    159 Int=      0 D2E=      0 Chk=     25 Scr=      2
 Normal termination of Gaussian 16 at Mon Feb 24 20:01:00 2025.
