 Entering Gaussian System, Link 0=g16
 Input=SDI0291_1.com
 Output=SDI0291_1.log
 Initial command:
 /uufs/chpc.utah.edu/sys/installdir/gaussian16/C01/AVX/g16/l1.exe "/scratch/general/vast/u1414944/3351094-notchpeak.peaks/Gau-2133661.inp" -scrdir="/scratch/general/vast/u1414944/3351094-notchpeak.peaks/"
 Entering Link 1 = /uufs/chpc.utah.edu/sys/installdir/gaussian16/C01/AVX/g16/l1.exe PID=   2133663.
  
 Copyright (c) 1988-2019, Gaussian, Inc.  All Rights Reserved.
  
 This is part of the Gaussian(R) 16 program.  It is based on
 the Gaussian(R) 09 system (copyright 2009, Gaussian, Inc.),
 the Gaussian(R) 03 system (copyright 2003, Gaussian, Inc.),
 the Gaussian(R) 98 system (copyright 1998, Gaussian, Inc.),
 the Gaussian(R) 94 system (copyright 1995, Gaussian, Inc.),
 the Gaussian 92(TM) system (copyright 1992, Gaussian, Inc.),
 the Gaussian 90(TM) system (copyright 1990, Gaussian, Inc.),
 the Gaussian 88(TM) system (copyright 1988, Gaussian, Inc.),
 the Gaussian 86(TM) system (copyright 1986, Carnegie Mellon
 University), and the Gaussian 82(TM) system (copyright 1983,
 Carnegie Mellon University). Gaussian is a federally registered
 trademark of Gaussian, Inc.
  
 This software contains proprietary and confidential information,
 including trade secrets, belonging to Gaussian, Inc.
  
 This software is provided under written license and may be
 used, copied, transmitted, or stored only in accord with that
 written license.
  
 The following legend is applicable only to US Government
 contracts under FAR:
  
                    RESTRICTED RIGHTS LEGEND
  
 Use, reproduction and disclosure by the US Government is
 subject to restrictions as set forth in subparagraphs (a)
 and (c) of the Commercial Computer Software - Restricted
 Rights clause in FAR 52.227-19.
  
 Gaussian, Inc.
 340 Quinnipiac St., Bldg. 40, Wallingford CT 06492
  
  
 ---------------------------------------------------------------
 Warning -- This program may not be used in any manner that
 competes with the business of Gaussian, Inc. or will provide
 assistance to any competitor of Gaussian, Inc.  The licensee
 of this program is prohibited from giving any competitor of
 Gaussian, Inc. access to this program.  By using this program,
 the user acknowledges that Gaussian, Inc. is engaged in the
 business of creating and licensing software in the field of
 computational chemistry and represents and warrants to the
 licensee that it is not a competitor of Gaussian, Inc. and that
 it will not use this program in any manner prohibited above.
 ---------------------------------------------------------------
  

 Cite this work as:
 Gaussian 16, Revision C.01,
 M. J. Frisch, G. W. Trucks, H. B. Schlegel, G. E. Scuseria, 
 M. A. Robb, J. R. Cheeseman, G. Scalmani, V. Barone, 
 G. A. Petersson, H. Nakatsuji, X. Li, M. Caricato, A. V. Marenich, 
 J. Bloino, B. G. Janesko, R. Gomperts, B. Mennucci, H. P. Hratchian, 
 J. V. Ortiz, A. F. Izmaylov, J. L. Sonnenberg, D. Williams-Young, 
 F. Ding, F. Lipparini, F. Egidi, J. Goings, B. Peng, A. Petrone, 
 T. Henderson, D. Ranasinghe, V. G. Zakrzewski, J. Gao, N. Rega, 
 G. Zheng, W. Liang, M. Hada, M. Ehara, K. Toyota, R. Fukuda, 
 J. Hasegawa, M. Ishida, T. Nakajima, Y. Honda, O. Kitao, H. Nakai, 
 T. Vreven, K. Throssell, J. A. Montgomery, Jr., J. E. Peralta, 
 F. Ogliaro, M. J. Bearpark, J. J. Heyd, E. N. Brothers, K. N. Kudin, 
 V. N. Staroverov, T. A. Keith, R. Kobayashi, J. Normand, 
 K. Raghavachari, A. P. Rendell, J. C. Burant, S. S. Iyengar, 
 J. Tomasi, M. Cossi, J. M. Millam, M. Klene, C. Adamo, R. Cammi, 
 J. W. Ochterski, R. L. Martin, K. Morokuma, O. Farkas, 
 J. B. Foresman, and D. J. Fox, Gaussian, Inc., Wallingford CT, 2019.
 
 ******************************************
 Gaussian 16:  ES64L-G16RevC.01  3-Jul-2019
                24-Feb-2025 
 ******************************************
 %NProcShared=16
 Will use up to   16 processors via shared memory.
 %Mem=40GB
 %chk=SDI0291_1.chk
 ----------------------------------------------------------------------
 #N OPT FREQ=NORAMAN Integral(Ultrafine) pbe1pbe EmpiricalDispersion=GD
 3BJ def2SVP
 ----------------------------------------------------------------------
 1/18=20,19=15,26=4,38=1/1,3;
 2/9=110,12=2,17=6,18=5,40=1/2;
 3/5=43,7=101,11=2,25=1,30=1,71=1,74=-13,75=-5,124=41/1,2,3;
 4//1;
 5/5=2,38=5/2;
 6/7=2,8=2,9=2,10=2,28=1/1;
 7//1,2,3,16;
 1/18=20,19=15,26=4/3(2);
 2/9=110/2;
 99//99;
 2/9=110/2;
 3/5=43,7=101,11=2,25=1,30=1,71=1,74=-13,75=-5,124=41/1,2,3;
 4/5=5,16=3,69=1/1;
 5/5=2,38=5/2;
 7//1,2,3,16;
 1/18=20,19=15,26=4/3(-5);
 2/9=110/2;
 6/7=2,8=2,9=2,10=2,19=2,28=1/1;
 99/9=1/99;
 ---------
 SDI0291_1
 ---------
 Symbolic Z-matrix:
 Charge =  0 Multiplicity = 1
 N                    -2.16261   1.13468   0.76626 
 S                    -1.38224  -0.01539   0.11465 
 C                     0.38117   0.2632    0.06953 
 C                     1.4042   -0.64158  -0.00601 
 C                     1.39024  -2.12141  -0.072 
 O                     2.58047   0.01517  -0.02402 
 C                     2.31737   1.33614   0.04387 
 C                     0.97953   1.55203   0.10346 
 C                    -1.75288   0.27274  -1.65233 
 N                    -1.49761  -1.49211   0.53631 
 H                    -2.25478   1.05634   1.76576 
 H                     2.06536  -2.53699   0.67328 
 H                     1.71934  -2.46375  -1.05277 
 H                     0.37334  -2.45593   0.11723 
 H                     3.15671   2.00215   0.04379 
 H                     0.4583    2.48369   0.17339 
 H                    -1.48054   1.29582  -1.87549 
 H                    -1.17908  -0.4314   -2.24288 
 H                    -2.81614   0.1288   -1.80187 
 H                    -2.41514  -1.74141   0.86853 
 

 GradGradGradGradGradGradGradGradGradGradGradGradGradGradGradGradGradGrad
 Berny optimization.
 Initialization pass.
                           ----------------------------
                           !    Initial Parameters    !
                           ! (Angstroms and Degrees)  !
 --------------------------                            --------------------------
 ! Name  Definition              Value          Derivative Info.                !
 --------------------------------------------------------------------------------
 ! R1    R(1,2)                  1.535          estimate D2E/DX2                !
 ! R2    R(1,11)                 1.0068         estimate D2E/DX2                !
 ! R3    R(2,3)                  1.7858         estimate D2E/DX2                !
 ! R4    R(2,9)                  1.8283         estimate D2E/DX2                !
 ! R5    R(2,10)                 1.5401         estimate D2E/DX2                !
 ! R6    R(3,4)                  1.3678         estimate D2E/DX2                !
 ! R7    R(3,8)                  1.4214         estimate D2E/DX2                !
 ! R8    R(4,5)                  1.4814         estimate D2E/DX2                !
 ! R9    R(4,6)                  1.3473         estimate D2E/DX2                !
 ! R10   R(5,12)                 1.0881         estimate D2E/DX2                !
 ! R11   R(5,13)                 1.0897         estimate D2E/DX2                !
 ! R12   R(5,14)                 1.0871         estimate D2E/DX2                !
 ! R13   R(6,7)                  1.3486         estimate D2E/DX2                !
 ! R14   R(7,8)                  1.3565         estimate D2E/DX2                !
 ! R15   R(7,15)                 1.0715         estimate D2E/DX2                !
 ! R16   R(8,16)                 1.0698         estimate D2E/DX2                !
 ! R17   R(9,17)                 1.082          estimate D2E/DX2                !
 ! R18   R(9,18)                 1.0834         estimate D2E/DX2                !
 ! R19   R(9,19)                 1.0833         estimate D2E/DX2                !
 ! R20   R(10,20)                1.0072         estimate D2E/DX2                !
 ! A1    A(2,1,11)             114.1845         estimate D2E/DX2                !
 ! A2    A(1,2,3)              113.3186         estimate D2E/DX2                !
 ! A3    A(1,2,9)              100.9022         estimate D2E/DX2                !
 ! A4    A(1,2,10)             124.3396         estimate D2E/DX2                !
 ! A5    A(3,2,9)               98.6951         estimate D2E/DX2                !
 ! A6    A(3,2,10)             103.3248         estimate D2E/DX2                !
 ! A7    A(9,2,10)             113.6119         estimate D2E/DX2                !
 ! A8    A(2,3,4)              129.549          estimate D2E/DX2                !
 ! A9    A(2,3,8)              123.8166         estimate D2E/DX2                !
 ! A10   A(4,3,8)              106.6339         estimate D2E/DX2                !
 ! A11   A(3,4,5)              131.0109         estimate D2E/DX2                !
 ! A12   A(3,4,6)              109.3465         estimate D2E/DX2                !
 ! A13   A(5,4,6)              119.6419         estimate D2E/DX2                !
 ! A14   A(4,5,12)             110.193          estimate D2E/DX2                !
 ! A15   A(4,5,13)             110.5536         estimate D2E/DX2                !
 ! A16   A(4,5,14)             107.9664         estimate D2E/DX2                !
 ! A17   A(12,5,13)            108.0047         estimate D2E/DX2                !
 ! A18   A(12,5,14)            110.0994         estimate D2E/DX2                !
 ! A19   A(13,5,14)            110.0294         estimate D2E/DX2                !
 ! A20   A(4,6,7)              107.8458         estimate D2E/DX2                !
 ! A21   A(6,7,8)              110.519          estimate D2E/DX2                !
 ! A22   A(6,7,15)             117.1297         estimate D2E/DX2                !
 ! A23   A(8,7,15)             132.3511         estimate D2E/DX2                !
 ! A24   A(3,8,7)              105.6544         estimate D2E/DX2                !
 ! A25   A(3,8,16)             125.8806         estimate D2E/DX2                !
 ! A26   A(7,8,16)             128.4615         estimate D2E/DX2                !
 ! A27   A(2,9,17)             107.297          estimate D2E/DX2                !
 ! A28   A(2,9,18)             108.4822         estimate D2E/DX2                !
 ! A29   A(2,9,19)             108.1459         estimate D2E/DX2                !
 ! A30   A(17,9,18)            111.6428         estimate D2E/DX2                !
 ! A31   A(17,9,19)            110.1335         estimate D2E/DX2                !
 ! A32   A(18,9,19)            110.9904         estimate D2E/DX2                !
 ! A33   A(2,10,20)            113.3222         estimate D2E/DX2                !
 ! D1    D(11,1,2,3)           -87.6368         estimate D2E/DX2                !
 ! D2    D(11,1,2,9)           167.8458         estimate D2E/DX2                !
 ! D3    D(11,1,2,10)           39.1206         estimate D2E/DX2                !
 ! D4    D(1,2,3,4)            156.0694         estimate D2E/DX2                !
 ! D5    D(1,2,3,8)            -24.223          estimate D2E/DX2                !
 ! D6    D(9,2,3,4)            -98.0118         estimate D2E/DX2                !
 ! D7    D(9,2,3,8)             81.6958         estimate D2E/DX2                !
 ! D8    D(10,2,3,4)            18.9006         estimate D2E/DX2                !
 ! D9    D(10,2,3,8)          -161.3918         estimate D2E/DX2                !
 ! D10   D(1,2,9,17)            54.1439         estimate D2E/DX2                !
 ! D11   D(1,2,9,18)           174.8999         estimate D2E/DX2                !
 ! D12   D(1,2,9,19)           -64.6356         estimate D2E/DX2                !
 ! D13   D(3,2,9,17)           -61.7855         estimate D2E/DX2                !
 ! D14   D(3,2,9,18)            58.9705         estimate D2E/DX2                !
 ! D15   D(3,2,9,19)           179.435          estimate D2E/DX2                !
 ! D16   D(10,2,9,17)         -170.5275         estimate D2E/DX2                !
 ! D17   D(10,2,9,18)          -49.7715         estimate D2E/DX2                !
 ! D18   D(10,2,9,19)           70.6931         estimate D2E/DX2                !
 ! D19   D(1,2,10,20)           32.2821         estimate D2E/DX2                !
 ! D20   D(3,2,10,20)          163.1614         estimate D2E/DX2                !
 ! D21   D(9,2,10,20)          -90.9905         estimate D2E/DX2                !
 ! D22   D(2,3,4,5)             -0.1053         estimate D2E/DX2                !
 ! D23   D(2,3,4,6)            179.5632         estimate D2E/DX2                !
 ! D24   D(8,3,4,5)           -179.8518         estimate D2E/DX2                !
 ! D25   D(8,3,4,6)             -0.1833         estimate D2E/DX2                !
 ! D26   D(2,3,8,7)           -179.6606         estimate D2E/DX2                !
 ! D27   D(2,3,8,16)             0.9753         estimate D2E/DX2                !
 ! D28   D(4,3,8,7)              0.1041         estimate D2E/DX2                !
 ! D29   D(4,3,8,16)          -179.26           estimate D2E/DX2                !
 ! D30   D(3,4,5,12)          -129.6994         estimate D2E/DX2                !
 ! D31   D(3,4,5,13)           110.9843         estimate D2E/DX2                !
 ! D32   D(3,4,5,14)            -9.4218         estimate D2E/DX2                !
 ! D33   D(6,4,5,12)            50.6605         estimate D2E/DX2                !
 ! D34   D(6,4,5,13)           -68.6558         estimate D2E/DX2                !
 ! D35   D(6,4,5,14)           170.9381         estimate D2E/DX2                !
 ! D36   D(3,4,6,7)              0.192          estimate D2E/DX2                !
 ! D37   D(5,4,6,7)            179.9041         estimate D2E/DX2                !
 ! D38   D(4,6,7,8)             -0.1247         estimate D2E/DX2                !
 ! D39   D(4,6,7,15)           179.7492         estimate D2E/DX2                !
 ! D40   D(6,7,8,3)              0.0112         estimate D2E/DX2                !
 ! D41   D(6,7,8,16)           179.3532         estimate D2E/DX2                !
 ! D42   D(15,7,8,3)          -179.8369         estimate D2E/DX2                !
 ! D43   D(15,7,8,16)           -0.4949         estimate D2E/DX2                !
 --------------------------------------------------------------------------------
 Trust Radius=3.00D-01 FncErr=1.00D-07 GrdErr=1.00D-06 EigMax=2.50D+02 EigMin=1.00D-04
 Number of steps in this run=    106 maximum allowed number of steps=    120.
 GradGradGradGradGradGradGradGradGradGradGradGradGradGradGradGradGradGrad

                          Input orientation:                          
 ---------------------------------------------------------------------
 Center     Atomic      Atomic             Coordinates (Angstroms)
 Number     Number       Type             X           Y           Z
 ---------------------------------------------------------------------
      1          7           0       -2.162607    1.134678    0.766261
      2         16           0       -1.382236   -0.015388    0.114646
      3          6           0        0.381171    0.263199    0.069525
      4          6           0        1.404197   -0.641576   -0.006014
      5          6           0        1.390236   -2.121413   -0.071998
      6          8           0        2.580472    0.015175   -0.024020
      7          6           0        2.317367    1.336141    0.043865
      8          6           0        0.979533    1.552030    0.103462
      9          6           0       -1.752877    0.272740   -1.652335
     10          7           0       -1.497610   -1.492112    0.536309
     11          1           0       -2.254784    1.056340    1.765759
     12          1           0        2.065362   -2.536994    0.673276
     13          1           0        1.719339   -2.463755   -1.052770
     14          1           0        0.373341   -2.455931    0.117225
     15          1           0        3.156709    2.002153    0.043785
     16          1           0        0.458304    2.483687    0.173386
     17          1           0       -1.480544    1.295819   -1.875490
     18          1           0       -1.179078   -0.431397   -2.242883
     19          1           0       -2.816135    0.128797   -1.801871
     20          1           0       -2.415144   -1.741409    0.868527
 ---------------------------------------------------------------------
                    Distance matrix (angstroms):
                    1          2          3          4          5
     1  N    0.000000
     2  S    1.535002   0.000000
     3  C    2.777719   1.785848   0.000000
     4  C    4.058765   2.858475   1.367811   0.000000
     5  C    4.891575   3.486658   2.593187   1.481373   0.000000
     6  O    4.937066   3.965251   2.215218   1.347319   2.446216
     7  C    4.542313   3.939379   2.213756   2.178929   3.581575
     8  C    3.238291   2.834586   1.421363   2.237014   3.700493
     9  C    2.600081   1.828281   2.742089   3.676066   4.255419
    10  N    2.719398   1.540073   2.613202   3.072134   3.017568
    11  H    1.006792   2.153164   3.233348   4.405705   5.173165
    12  H    5.600495   4.307726   3.322965   2.119241   1.088089
    13  H    5.597062   4.120332   3.238290   2.124935   1.089688
    14  H    4.443507   3.006379   2.719560   2.090391   1.087098
    15  H    5.437795   4.967647   3.275399   3.172237   4.487497
    16  H    3.006742   3.104257   2.224253   3.270193   4.704854
    17  H    2.733135   2.385282   2.883638   3.945905   4.813672
    18  H    3.531978   2.402557   2.874730   3.423604   3.764342
    19  H    2.834466   2.397894   3.707149   4.650783   5.074393
    20  H    2.888964   2.148112   3.532172   4.069621   3.938262
                    6          7          8          9         10
     6  O    0.000000
     7  C    1.348624   0.000000
     8  C    2.222876   1.356451   0.000000
     9  C    4.636341   4.535946   3.490770   0.000000
    10  N    4.383678   4.774470   3.948467   2.823123   0.000000
    11  H    5.259946   4.893646   3.670116   3.542500   2.929072
    12  H    2.695390   3.932028   4.268937   5.280343   3.715550
    13  H    2.818682   3.999932   4.243903   4.461408   3.717261
    14  H    3.316284   4.261975   4.053567   3.885588   2.145935
    15  H    2.069959   1.071479   2.224021   5.474645   5.840818
    16  H    3.261306   2.188550   1.069838   3.620893   4.445704
    17  H    4.643257   4.255547   3.167630   1.081968   3.686410
    18  H    4.388279   4.536357   3.754853   1.083421   2.991736
    19  H    5.683048   5.587241   4.479173   1.083328   3.135752
    20  H    5.370140   5.705089   4.791231   3.293955   1.007167
                   11         12         13         14         15
    11  H    0.000000
    12  H    5.724441   0.000000
    13  H    6.010726   1.761912   0.000000
    14  H    4.686230   1.782891   1.783441   0.000000
    15  H    5.757085   4.710749   4.817967   5.256144   0.000000
    16  H    3.454536   5.295258   5.250795   4.940668   2.744096
    17  H    3.730348   5.810346   5.005049   4.635022   5.068200
    18  H    4.409049   4.843956   3.734657   3.475464   5.472666
    19  H    3.728731   6.087842   5.277595   4.531723   6.526162
    20  H    2.942471   4.554779   4.615963   2.975003   6.763136
                   16         17         18         19         20
    16  H    0.000000
    17  H    3.060728   0.000000
    18  H    4.125178   1.791406   0.000000
    19  H    4.491002   1.775152   1.785572   0.000000
    20  H    5.156681   4.198555   3.595117   3.284737   0.000000
 Stoichiometry    C6H10N2OS
 Framework group  C1[X(C6H10N2OS)]
 Deg. of freedom    54
 Full point group                 C1      NOp   1
 Largest Abelian subgroup         C1      NOp   1
 Largest concise Abelian subgroup C1      NOp   1
                         Standard orientation:                         
 ---------------------------------------------------------------------
 Center     Atomic      Atomic             Coordinates (Angstroms)
 Number     Number       Type             X           Y           Z
 ---------------------------------------------------------------------
      1          7           0       -2.153093   -1.126530   -0.808828
      2         16           0       -1.367110    0.014248   -0.147702
      3          6           0        0.392746   -0.282947   -0.085783
      4          6           0        1.424430    0.610896    0.001265
      5          6           0        1.425371    2.090694    0.069560
      6          8           0        2.593508   -0.058222    0.029698
      7          6           0        2.317218   -1.376240   -0.042947
      8          6           0        0.977839   -1.577948   -0.115995
      9          6           0       -1.758067   -0.272707    1.615086
     10          7           0       -1.462824    1.492757   -0.568028
     11          1           0       -2.234637   -1.045675   -1.809049
     12          1           0        2.112101    2.500305   -0.668381
     13          1           0        1.748419    2.428031    1.054072
     14          1           0        0.413951    2.436186   -0.129055
     15          1           0        3.149476   -2.051045   -0.035753
     16          1           0        0.447561   -2.503959   -0.192560
     17          1           0       -1.498698   -1.298940    1.839203
     18          1           0       -1.182720    0.424436    2.212388
     19          1           0       -2.821169   -0.117818    1.754446
     20          1           0       -2.374386    1.752210   -0.908800
 ---------------------------------------------------------------------
 Rotational constants (GHZ):           1.9561478           0.9547766           0.7640771
 Standard basis: def2SVP (5D, 7F)
 There are   204 symmetry adapted cartesian basis functions of A   symmetry.
 There are   194 symmetry adapted basis functions of A   symmetry.
   194 basis functions,   332 primitive gaussians,   204 cartesian basis functions
    42 alpha electrons       42 beta electrons
       nuclear repulsion energy       659.9982727827 Hartrees.
 NAtoms=   20 NActive=   20 NUniq=   20 SFac= 1.00D+00 NAtFMM=   60 NAOKFM=F Big=F
 Integral buffers will be    131072 words long.
 Raffenetti 2 integral format.
 Two-electron integral symmetry is turned on.
 Nuclear repulsion after empirical dispersion term =      659.9778779605 Hartrees.
 One-electron integrals computed using PRISM.
   1 Symmetry operations used in ECPInt.
 ECPInt:  NShTT=    4278 NPrTT=   15746 LenC2=    4219 LenP2D=   11982.
 LDataN:  DoStor=T MaxTD1= 4 Len=   56
 NBasis=   194 RedAO= T EigKep=  4.99D-04  NBF=   194
 NBsUse=   194 1.00D-06 EigRej= -1.00D+00 NBFU=   194
 ExpMin= 1.22D-01 ExpMax= 9.18D+03 ExpMxC= 1.38D+03 IAcc=3 IRadAn=         5 AccDes= 0.00D+00
 Harris functional with IExCor= 1009 and IRadAn=       5 diagonalized for initial guess.
 HarFok:  IExCor= 1009 AccDes= 0.00D+00 IRadAn=         5 IDoV= 1 UseB2=F ITyADJ=14
 ICtDFT=  3500011 ScaDFX=  1.000000  1.000000  1.000000  1.000000
 FoFCou: FMM=F IPFlag=           0 FMFlag=      100000 FMFlg1=           0
         NFxFlg=           0 DoJE=T BraDBF=F KetDBF=T FulRan=T
         wScrn=  0.000000 ICntrl=       500 IOpCl=  0 I1Cent=   200000004 NGrid=           0
         NMat0=    1 NMatS0=      1 NMatT0=    0 NMatD0=    1 NMtDS0=    0 NMtDT0=    0
 Petite list used in FoFCou.
 Requested convergence on RMS density matrix=1.00D-08 within 128 cycles.
 Requested convergence on MAX density matrix=1.00D-06.
 Requested convergence on             energy=1.00D-06.
 No special actions if energy rises.
 Integral accuracy reduced to 1.0D-05 until final iterations.
 Initial convergence to 1.0D-05 achieved.  Increase integral accuracy.
 SCF Done:  E(RPBE1PBE) =  -816.385869449     A.U. after   14 cycles
            NFock= 14  Conv=0.53D-08     -V/T= 2.0057

 **********************************************************************

            Population analysis using the SCF Density.

 **********************************************************************

 Orbital symmetries:
       Occupied  (A) (A) (A) (A) (A) (A) (A) (A) (A) (A) (A) (A)
                 (A) (A) (A) (A) (A) (A) (A) (A) (A) (A) (A) (A)
                 (A) (A) (A) (A) (A) (A) (A) (A) (A) (A) (A) (A)
                 (A) (A) (A) (A) (A) (A)
       Virtual   (A) (A) (A) (A) (A) (A) (A) (A) (A) (A) (A) (A)
                 (A) (A) (A) (A) (A) (A) (A) (A) (A) (A) (A) (A)
                 (A) (A) (A) (A) (A) (A) (A) (A) (A) (A) (A) (A)
                 (A) (A) (A) (A) (A) (A) (A) (A) (A) (A) (A) (A)
                 (A) (A) (A) (A) (A) (A) (A) (A) (A) (A) (A) (A)
                 (A) (A) (A) (A) (A) (A) (A) (A) (A) (A) (A) (A)
                 (A) (A) (A) (A) (A) (A) (A) (A) (A) (A) (A) (A)
                 (A) (A) (A) (A) (A) (A) (A) (A) (A) (A) (A) (A)
                 (A) (A) (A) (A) (A) (A) (A) (A) (A) (A) (A) (A)
                 (A) (A) (A) (A) (A) (A) (A) (A) (A) (A) (A) (A)
                 (A) (A) (A) (A) (A) (A) (A) (A) (A) (A) (A) (A)
                 (A) (A) (A) (A) (A) (A) (A) (A) (A) (A) (A) (A)
                 (A) (A) (A) (A) (A) (A) (A) (A)
 The electronic state is 1-A.
 Alpha  occ. eigenvalues --  -89.18663 -19.29204 -14.34423 -14.34313 -10.30443
 Alpha  occ. eigenvalues --  -10.28925 -10.25573 -10.25056 -10.24290 -10.22671
 Alpha  occ. eigenvalues --   -8.15981  -6.10120  -6.10037  -6.09988  -1.15433
 Alpha  occ. eigenvalues --   -1.00470  -0.85235  -0.83740  -0.80614  -0.76412
 Alpha  occ. eigenvalues --   -0.70976  -0.66962  -0.61887  -0.57156  -0.55079
 Alpha  occ. eigenvalues --   -0.52631  -0.49896  -0.48009  -0.46605  -0.45505
 Alpha  occ. eigenvalues --   -0.43738  -0.42457  -0.42287  -0.41794  -0.41062
 Alpha  occ. eigenvalues --   -0.38866  -0.34218  -0.31092  -0.26894  -0.25745
 Alpha  occ. eigenvalues --   -0.24886  -0.24015
 Alpha virt. eigenvalues --    0.00001   0.03586   0.07104   0.07916   0.08891
 Alpha virt. eigenvalues --    0.09739   0.10712   0.11228   0.12035   0.12579
 Alpha virt. eigenvalues --    0.14077   0.14297   0.16284   0.16724   0.17295
 Alpha virt. eigenvalues --    0.19317   0.21677   0.24121   0.25261   0.31173
 Alpha virt. eigenvalues --    0.35107   0.37424   0.38441   0.40429   0.42046
 Alpha virt. eigenvalues --    0.44394   0.45184   0.46476   0.49148   0.49931
 Alpha virt. eigenvalues --    0.50598   0.51745   0.53729   0.55879   0.58550
 Alpha virt. eigenvalues --    0.59768   0.60601   0.61595   0.63298   0.64538
 Alpha virt. eigenvalues --    0.65483   0.66891   0.67115   0.68377   0.69018
 Alpha virt. eigenvalues --    0.69928   0.70795   0.71431   0.72710   0.73373
 Alpha virt. eigenvalues --    0.73529   0.75564   0.78229   0.79409   0.82187
 Alpha virt. eigenvalues --    0.83341   0.86201   0.88296   0.88819   0.91530
 Alpha virt. eigenvalues --    0.93245   0.95757   0.96301   1.01306   1.02532
 Alpha virt. eigenvalues --    1.04116   1.05189   1.06136   1.12156   1.14250
 Alpha virt. eigenvalues --    1.16123   1.20154   1.20834   1.21270   1.23515
 Alpha virt. eigenvalues --    1.25711   1.30238   1.34502   1.36288   1.42084
 Alpha virt. eigenvalues --    1.44020   1.47286   1.49114   1.50587   1.51198
 Alpha virt. eigenvalues --    1.52633   1.54883   1.55444   1.61132   1.61895
 Alpha virt. eigenvalues --    1.64827   1.67870   1.70392   1.72979   1.77349
 Alpha virt. eigenvalues --    1.78934   1.80232   1.80426   1.81955   1.83975
 Alpha virt. eigenvalues --    1.84717   1.85840   1.86522   1.91233   1.95277
 Alpha virt. eigenvalues --    1.99519   1.99574   2.01497   2.03294   2.07822
 Alpha virt. eigenvalues --    2.11063   2.15156   2.15510   2.18112   2.21536
 Alpha virt. eigenvalues --    2.23632   2.26735   2.27613   2.32579   2.33976
 Alpha virt. eigenvalues --    2.36175   2.39067   2.43839   2.45394   2.47205
 Alpha virt. eigenvalues --    2.48423   2.53442   2.55843   2.58045   2.59679
 Alpha virt. eigenvalues --    2.60715   2.62880   2.67335   2.71587   2.74291
 Alpha virt. eigenvalues --    2.80865   2.84244   2.86905   2.87974   2.90092
 Alpha virt. eigenvalues --    2.94866   2.95270   2.95730   2.99920   3.01196
 Alpha virt. eigenvalues --    3.03937   3.16775   3.28104   3.30185   3.32710
 Alpha virt. eigenvalues --    3.50348   3.62928
          Condensed to atoms (all electrons):
               1          2          3          4          5          6
     1  N    6.916389   0.341705  -0.051821   0.002824  -0.000186  -0.000013
     2  S    0.341705  14.602444   0.093653  -0.036109  -0.003802   0.001614
     3  C   -0.051821   0.093653   5.833825   0.374872  -0.060120  -0.112348
     4  C    0.002824  -0.036109   0.374872   5.028705   0.419890   0.418399
     5  C   -0.000186  -0.003802  -0.060120   0.419890   4.551365  -0.041042
     6  O   -0.000013   0.001614  -0.112348   0.418399  -0.041042   7.686435
     7  C    0.000731   0.006787   0.016085  -0.178532   0.005017   0.335693
     8  C    0.005979  -0.045145   0.280595   0.003106   0.011326  -0.044012
     9  C   -0.098202   0.323840  -0.128254  -0.012175  -0.001631  -0.000054
    10  N   -0.038127   0.366798  -0.085059  -0.002774  -0.043688  -0.000022
    11  H    0.326034  -0.008324  -0.003769  -0.000352  -0.000017  -0.000001
    12  H    0.000010   0.000250   0.008529  -0.012476   0.363225   0.000251
    13  H   -0.000003   0.000234   0.003021  -0.016930   0.368172  -0.000179
    14  H    0.000412  -0.000254  -0.016852   0.009635   0.360506   0.002555
    15  H   -0.000004  -0.000097   0.014303  -0.001793  -0.000585  -0.024497
    16  H    0.011368  -0.005786  -0.059681   0.017725  -0.000206   0.003304
    17  H    0.005526  -0.007899   0.000569   0.000688   0.000099  -0.000008
    18  H    0.006090  -0.015921   0.006574   0.001647   0.000277   0.000006
    19  H    0.007460  -0.009647   0.008271   0.000214   0.000068   0.000001
    20  H   -0.000108  -0.014443   0.011035   0.000037   0.001025   0.000004
               7          8          9         10         11         12
     1  N    0.000731   0.005979  -0.098202  -0.038127   0.326034   0.000010
     2  S    0.006787  -0.045145   0.323840   0.366798  -0.008324   0.000250
     3  C    0.016085   0.280595  -0.128254  -0.085059  -0.003769   0.008529
     4  C   -0.178532   0.003106  -0.012175  -0.002774  -0.000352  -0.012476
     5  C    0.005017   0.011326  -0.001631  -0.043688  -0.000017   0.363225
     6  O    0.335693  -0.044012  -0.000054  -0.000022  -0.000001   0.000251
     7  C    4.851853   0.443750   0.000067   0.000058  -0.000026   0.000639
     8  C    0.443750   5.012163  -0.006853   0.003529  -0.001203  -0.000700
     9  C    0.000067  -0.006853   4.921780  -0.048544   0.008942  -0.000034
    10  N    0.000058   0.003529  -0.048544   6.885565  -0.001278   0.000994
    11  H   -0.000026  -0.001203   0.008942  -0.001278   0.556847  -0.000002
    12  H    0.000639  -0.000700  -0.000034   0.000994  -0.000002   0.619045
    13  H    0.000456  -0.000333   0.000429   0.000890   0.000001  -0.020554
    14  H   -0.000165   0.000055   0.000323   0.057912  -0.000014  -0.007797
    15  H    0.438212  -0.064074   0.000008   0.000002   0.000001  -0.000000
    16  H   -0.052890   0.442943  -0.000267   0.000231  -0.000173   0.000001
    17  H    0.000113   0.003445   0.355961   0.003664  -0.000770  -0.000001
    18  H   -0.000029  -0.000299   0.361009   0.003889  -0.000423   0.000008
    19  H   -0.000011   0.000122   0.364575   0.000392  -0.000501   0.000001
    20  H   -0.000009  -0.000184  -0.004958   0.328724   0.001402  -0.000059
              13         14         15         16         17         18
     1  N   -0.000003   0.000412  -0.000004   0.011368   0.005526   0.006090
     2  S    0.000234  -0.000254  -0.000097  -0.005786  -0.007899  -0.015921
     3  C    0.003021  -0.016852   0.014303  -0.059681   0.000569   0.006574
     4  C   -0.016930   0.009635  -0.001793   0.017725   0.000688   0.001647
     5  C    0.368172   0.360506  -0.000585  -0.000206   0.000099   0.000277
     6  O   -0.000179   0.002555  -0.024497   0.003304  -0.000008   0.000006
     7  C    0.000456  -0.000165   0.438212  -0.052890   0.000113  -0.000029
     8  C   -0.000333   0.000055  -0.064074   0.442943   0.003445  -0.000299
     9  C    0.000429   0.000323   0.000008  -0.000267   0.355961   0.361009
    10  N    0.000890   0.057912   0.000002   0.000231   0.003664   0.003889
    11  H    0.000001  -0.000014   0.000001  -0.000173  -0.000770  -0.000423
    12  H   -0.020554  -0.007797  -0.000000   0.000001  -0.000001   0.000008
    13  H    0.626557  -0.011073   0.000011   0.000001  -0.000013  -0.000018
    14  H   -0.011073   0.533256   0.000020  -0.000049  -0.000046   0.000435
    15  H    0.000011   0.000020   0.604607  -0.003174  -0.000003  -0.000000
    16  H    0.000001  -0.000049  -0.003174   0.620524   0.000964   0.000023
    17  H   -0.000013  -0.000046  -0.000003   0.000964   0.579768  -0.012962
    18  H   -0.000018   0.000435  -0.000000   0.000023  -0.012962   0.589741
    19  H   -0.000022  -0.000049  -0.000000  -0.000043  -0.007600  -0.010255
    20  H   -0.000016  -0.001494  -0.000000  -0.000016  -0.000070  -0.000106
              19         20
     1  N    0.007460  -0.000108
     2  S   -0.009647  -0.014443
     3  C    0.008271   0.011035
     4  C    0.000214   0.000037
     5  C    0.000068   0.001025
     6  O    0.000001   0.000004
     7  C   -0.000011  -0.000009
     8  C    0.000122  -0.000184
     9  C    0.364575  -0.004958
    10  N    0.000392   0.328724
    11  H   -0.000501   0.001402
    12  H    0.000001  -0.000059
    13  H   -0.000022  -0.000016
    14  H   -0.000049  -0.001494
    15  H   -0.000000  -0.000000
    16  H   -0.000043  -0.000016
    17  H   -0.007600  -0.000070
    18  H   -0.010255  -0.000106
    19  H    0.562049   0.001730
    20  H    0.001730   0.553370
 Mulliken charges:
               1
     1  N   -0.436066
     2  S    0.410104
     3  C   -0.133428
     4  C   -0.016601
     5  C    0.070308
     6  O   -0.226083
     7  C    0.132202
     8  C   -0.044209
     9  C   -0.035961
    10  N   -0.433155
    11  H    0.123627
    12  H    0.048672
    13  H    0.049367
    14  H    0.072685
    15  H    0.037065
    16  H    0.025202
    17  H    0.078575
    18  H    0.070315
    19  H    0.083245
    20  H    0.124136
 Sum of Mulliken charges =  -0.00000
 Mulliken charges with hydrogens summed into heavy atoms:
               1
     1  N   -0.312439
     2  S    0.410104
     3  C   -0.133428
     4  C   -0.016601
     5  C    0.241033
     6  O   -0.226083
     7  C    0.169267
     8  C   -0.019008
     9  C    0.196173
    10  N   -0.309018
 Electronic spatial extent (au):  <R**2>=           1602.0061
 Charge=             -0.0000 electrons
 Dipole moment (field-independent basis, Debye):
    X=              0.5980    Y=             -0.1362    Z=              1.0618  Tot=              1.2262
 Quadrupole moment (field-independent basis, Debye-Ang):
   XX=            -65.1437   YY=            -67.1563   ZZ=            -63.3984
   XY=             -4.9837   XZ=             -0.6804   YZ=              0.1922
 Traceless Quadrupole moment (field-independent basis, Debye-Ang):
   XX=              0.0891   YY=             -1.9235   ZZ=              1.8344
   XY=             -4.9837   XZ=             -0.6804   YZ=              0.1922
 Octapole moment (field-independent basis, Debye-Ang**2):
  XXX=              0.3966  YYY=             -3.5727  ZZZ=             -3.7496  XYY=             17.3341
  XXY=              8.6539  XXZ=             -1.9651  XZZ=            -12.3416  YZZ=              0.4900
  YYZ=              1.0917  XYZ=              2.6933
 Hexadecapole moment (field-independent basis, Debye-Ang**3):
 XXXX=          -1203.9849 YYYY=           -608.9579 ZZZZ=           -238.2438 XXXY=            -82.6327
 XXXZ=              3.3240 YYYX=            -18.4011 YYYZ=             -3.2296 ZZZX=             17.5409
 ZZZY=              8.7045 XXYY=           -287.6240 XXZZ=           -223.1662 YYZZ=           -143.9356
 XXYZ=            -10.1355 YYXZ=              2.0314 ZZXY=             10.9552
 N-N= 6.599778779605D+02 E-N=-3.238567887731D+03  KE= 8.117658661915D+02
   1 Symmetry operations used in ECPInt.
 ECPInt:  NShTT=    4278 NPrTT=   15746 LenC2=    4219 LenP2D=   11982.
 LDataN:  DoStor=T MaxTD1= 5 Len=  102
 Calling FoFJK, ICntrl=      2127 FMM=F ISym2X=0 I1Cent= 0 IOpClX= 0 NMat=1 NMatS=1 NMatT=0.
 ***** Axes restored to original set *****
 -------------------------------------------------------------------
 Center     Atomic                   Forces (Hartrees/Bohr)
 Number     Number              X              Y              Z
 -------------------------------------------------------------------
      1        7          -0.005777821    0.010837577   -0.016072430
      2       16          -0.003955386   -0.000555064   -0.005661400
      3        6          -0.003292952   -0.005238558    0.001517005
      4        6          -0.003678589   -0.013801976   -0.000531739
      5        6           0.006220307    0.010059811   -0.000204483
      6        8          -0.002522948   -0.003983686    0.000213150
      7        6          -0.007425448    0.000306638   -0.000272753
      8        6           0.002490957   -0.001246724   -0.000862914
      9        6           0.003801606   -0.000420520    0.015669040
     10        7           0.015669832   -0.003649015   -0.001201994
     11        1           0.005311069   -0.005072929    0.011371016
     12        1           0.005305517   -0.003941185    0.005474172
     13        1           0.003169351   -0.003281342   -0.007308516
     14        1          -0.006213269   -0.002035800    0.001259860
     15        1           0.009849902    0.005848984    0.000218469
     16        1          -0.005623146    0.012407164    0.001320420
     17        1           0.002704631    0.009729387   -0.003163745
     18        1           0.006077853   -0.006719213   -0.003262083
     19        1          -0.010317275   -0.001876194    0.001927483
     20        1          -0.011794190    0.002632644   -0.000428559
 -------------------------------------------------------------------
 Cartesian Forces:  Max     0.016072430 RMS     0.006591892

 GradGradGradGradGradGradGradGradGradGradGradGradGradGradGradGradGradGrad
 Berny optimization.
 FormGI is forming the generalized inverse of G from B-inverse, IUseBI=4.
 Internal  Forces:  Max     0.014813808 RMS     0.005032533
 Search for a local minimum.
 Step number   1 out of a maximum of  106
 All quantities printed in internal units (Hartrees-Bohrs-Radians)
 Mixed Optimization -- RFO/linear search
 Second derivative matrix not updated -- first step.
 ITU=  0
     Eigenvalues ---    0.00230   0.00558   0.01012   0.01427   0.01690
     Eigenvalues ---    0.02170   0.02311   0.02462   0.02596   0.03412
     Eigenvalues ---    0.03479   0.05920   0.06062   0.06662   0.07563
     Eigenvalues ---    0.07742   0.08431   0.09481   0.15785   0.15998
     Eigenvalues ---    0.16000   0.16000   0.16000   0.16000   0.16000
     Eigenvalues ---    0.16000   0.16000   0.16000   0.16000   0.19121
     Eigenvalues ---    0.22683   0.24010   0.24757   0.24999   0.25000
     Eigenvalues ---    0.27264   0.34413   0.34849   0.35034   0.35150
     Eigenvalues ---    0.35584   0.35595   0.35758   0.37044   0.37251
     Eigenvalues ---    0.40238   0.45914   0.46450   0.46514   0.51466
     Eigenvalues ---    0.53262   0.54937   0.64801   0.66162
 RFO step:  Lambda=-9.02359693D-03 EMin= 2.30000000D-03
 Linear search not attempted -- first point.
 Iteration  1 RMS(Cart)=  0.07296323 RMS(Int)=  0.00176570
 Iteration  2 RMS(Cart)=  0.00255171 RMS(Int)=  0.00008177
 Iteration  3 RMS(Cart)=  0.00000451 RMS(Int)=  0.00008171
 Iteration  4 RMS(Cart)=  0.00000000 RMS(Int)=  0.00008171
 Variable       Old X    -DE/DX   Delta X   Delta X   Delta X     New X
                                 (Linear)    (Quad)   (Total)
    R1        2.90073   0.00256   0.00000   0.00382   0.00382   2.90455
    R2        1.90256   0.01120   0.00000   0.02361   0.02361   1.92617
    R3        3.37476  -0.00249   0.00000  -0.00883  -0.00883   3.36594
    R4        3.45495  -0.01114   0.00000  -0.04472  -0.04472   3.41023
    R5        2.91032   0.00024   0.00000   0.00036   0.00036   2.91068
    R6        2.58479   0.01026   0.00000   0.02023   0.02022   2.60501
    R7        2.68599   0.00950   0.00000   0.02276   0.02272   2.70871
    R8        2.79939  -0.00084   0.00000  -0.00239  -0.00239   2.79700
    R9        2.54606  -0.00001   0.00000  -0.00022  -0.00019   2.54587
   R10        2.05619   0.00855   0.00000   0.02378   0.02378   2.07997
   R11        2.05921   0.00857   0.00000   0.02396   0.02396   2.08317
   R12        2.05432   0.00666   0.00000   0.01847   0.01847   2.07279
   R13        2.54853   0.00541   0.00000   0.00893   0.00895   2.55748
   R14        2.56332   0.00087   0.00000   0.00134   0.00132   2.56464
   R15        2.02480   0.01135   0.00000   0.02991   0.02991   2.05472
   R16        2.02170   0.01363   0.00000   0.03573   0.03573   2.05743
   R17        2.04462   0.01053   0.00000   0.02873   0.02873   2.07336
   R18        2.04737   0.00936   0.00000   0.02566   0.02566   2.07303
   R19        2.04719   0.01011   0.00000   0.02770   0.02770   2.07489
   R20        1.90327   0.00995   0.00000   0.02102   0.02102   1.92429
    A1        1.99290  -0.01306   0.00000  -0.07725  -0.07725   1.91564
    A2        1.97778  -0.00250   0.00000  -0.01939  -0.01939   1.95839
    A3        1.76108  -0.00161   0.00000  -0.01195  -0.01195   1.74913
    A4        2.17014   0.00259   0.00000   0.01714   0.01717   2.18730
    A5        1.72255   0.00201   0.00000   0.00774   0.00766   1.73022
    A6        1.80336   0.00029   0.00000   0.00677   0.00680   1.81016
    A7        1.98290  -0.00092   0.00000  -0.00287  -0.00288   1.98002
    A8        2.26106   0.00900   0.00000   0.03338   0.03340   2.29446
    A9        2.16101  -0.01167   0.00000  -0.04639  -0.04637   2.11463
   A10        1.86111   0.00267   0.00000   0.01300   0.01296   1.87408
   A11        2.28657   0.01481   0.00000   0.05662   0.05661   2.34318
   A12        1.90846  -0.00669   0.00000  -0.02470  -0.02468   1.88377
   A13        2.08814  -0.00813   0.00000  -0.03194  -0.03195   2.05619
   A14        1.92323   0.00085   0.00000   0.00455   0.00455   1.92778
   A15        1.92952   0.00072   0.00000   0.00429   0.00429   1.93382
   A16        1.88437  -0.00022   0.00000  -0.00081  -0.00081   1.88356
   A17        1.88504  -0.00100   0.00000  -0.00680  -0.00681   1.87823
   A18        1.92160  -0.00032   0.00000  -0.00196  -0.00196   1.91963
   A19        1.92038  -0.00003   0.00000   0.00080   0.00080   1.92117
   A20        1.88226   0.00683   0.00000   0.02434   0.02440   1.90667
   A21        1.92892  -0.00091   0.00000  -0.00551  -0.00551   1.92341
   A22        2.04430  -0.00109   0.00000  -0.00639  -0.00640   2.03790
   A23        2.30996   0.00200   0.00000   0.01189   0.01188   2.32184
   A24        1.84402  -0.00190   0.00000  -0.00711  -0.00718   1.83684
   A25        2.19703   0.00211   0.00000   0.01034   0.01034   2.20737
   A26        2.24208  -0.00021   0.00000  -0.00336  -0.00336   2.23871
   A27        1.87269   0.00275   0.00000   0.01871   0.01882   1.89150
   A28        1.89337  -0.00288   0.00000  -0.01810  -0.01827   1.87510
   A29        1.88750  -0.00489   0.00000  -0.03039  -0.03053   1.85697
   A30        1.94853   0.00045   0.00000   0.00563   0.00571   1.95425
   A31        1.92219   0.00126   0.00000   0.00967   0.00983   1.93202
   A32        1.93715   0.00303   0.00000   0.01284   0.01235   1.94950
   A33        1.97785  -0.01181   0.00000  -0.06988  -0.06988   1.90797
    D1       -1.52955   0.00205   0.00000   0.04024   0.04036  -1.48919
    D2        2.92946   0.00135   0.00000   0.04343   0.04331   2.97277
    D3        0.68278   0.00229   0.00000   0.04628   0.04628   0.72906
    D4        2.72393   0.00155   0.00000   0.04000   0.03999   2.76391
    D5       -0.42277   0.00149   0.00000   0.03770   0.03769  -0.38508
    D6       -1.71063   0.00001   0.00000   0.02489   0.02487  -1.68576
    D7        1.42586  -0.00004   0.00000   0.02259   0.02256   1.44843
    D8        0.32988  -0.00020   0.00000   0.02645   0.02649   0.35637
    D9       -2.81682  -0.00025   0.00000   0.02415   0.02419  -2.79263
   D10        0.94499  -0.00129   0.00000  -0.00729  -0.00733   0.93766
   D11        3.05258  -0.00080   0.00000   0.00002  -0.00016   3.05242
   D12       -1.12810  -0.00166   0.00000  -0.01263  -0.01247  -1.14057
   D13       -1.07836   0.00119   0.00000   0.01403   0.01402  -1.06435
   D14        1.02923   0.00168   0.00000   0.02134   0.02119   1.05041
   D15        3.13173   0.00082   0.00000   0.00869   0.00888   3.14061
   D16       -2.97627   0.00012   0.00000   0.00327   0.00326  -2.97301
   D17       -0.86868   0.00061   0.00000   0.01058   0.01043  -0.85825
   D18        1.23383  -0.00025   0.00000  -0.00207  -0.00187   1.23195
   D19        0.56343   0.00176   0.00000   0.04021   0.04016   0.60359
   D20        2.84770   0.00064   0.00000   0.03391   0.03397   2.88167
   D21       -1.58808   0.00276   0.00000   0.04529   0.04528  -1.54280
   D22       -0.00184   0.00029   0.00000   0.00887   0.00886   0.00702
   D23        3.13397   0.00018   0.00000   0.00540   0.00532   3.13929
   D24       -3.13901   0.00038   0.00000   0.01102   0.01107  -3.12793
   D25       -0.00320   0.00026   0.00000   0.00755   0.00753   0.00433
   D26       -3.13567  -0.00018   0.00000  -0.00433  -0.00442  -3.14009
   D27        0.01702   0.00020   0.00000   0.00725   0.00725   0.02428
   D28        0.00182  -0.00019   0.00000  -0.00608  -0.00613  -0.00431
   D29       -3.12868   0.00019   0.00000   0.00549   0.00555  -3.12313
   D30       -2.26368  -0.00001   0.00000   0.00321   0.00319  -2.26049
   D31        1.93704   0.00023   0.00000   0.00604   0.00602   1.94306
   D32       -0.16444  -0.00003   0.00000   0.00300   0.00298  -0.16146
   D33        0.88419   0.00009   0.00000   0.00692   0.00694   0.89114
   D34       -1.19827   0.00033   0.00000   0.00975   0.00977  -1.18850
   D35        2.98343   0.00007   0.00000   0.00672   0.00674   2.99017
   D36        0.00335  -0.00023   0.00000  -0.00604  -0.00605  -0.00270
   D37        3.13992  -0.00023   0.00000  -0.00871  -0.00858   3.13134
   D38       -0.00218   0.00009   0.00000   0.00199   0.00206  -0.00011
   D39        3.13721  -0.00015   0.00000  -0.00469  -0.00457   3.13264
   D40        0.00019   0.00006   0.00000   0.00256   0.00254   0.00274
   D41        3.13030  -0.00031   0.00000  -0.00930  -0.00930   3.12100
   D42       -3.13875   0.00035   0.00000   0.01065   0.01068  -3.12806
   D43       -0.00864  -0.00002   0.00000  -0.00121  -0.00116  -0.00979
         Item               Value     Threshold  Converged?
 Maximum Force            0.014814     0.000450     NO 
 RMS     Force            0.005033     0.000300     NO 
 Maximum Displacement     0.237149     0.001800     NO 
 RMS     Displacement     0.073503     0.001200     NO 
 Predicted change in Energy=-4.740951D-03
 GradGradGradGradGradGradGradGradGradGradGradGradGradGradGradGradGradGrad

                          Input orientation:                          
 ---------------------------------------------------------------------
 Center     Atomic      Atomic             Coordinates (Angstroms)
 Number     Number       Type             X           Y           Z
 ---------------------------------------------------------------------
      1          7           0       -2.135124    1.206596    0.725091
      2         16           0       -1.407138    0.000162    0.111095
      3          6           0        0.358962    0.228088    0.071950
      4          6           0        1.394669   -0.678064   -0.008641
      5          6           0        1.471577   -2.153338   -0.100128
      6          8           0        2.551281    0.012761   -0.007221
      7          6           0        2.280108    1.336496    0.068754
      8          6           0        0.938932    1.538078    0.118457
      9          6           0       -1.768833    0.263811   -1.637133
     10          7           0       -1.576548   -1.464086    0.557961
     11          1           0       -2.159099    1.114631    1.739939
     12          1           0        2.166278   -2.549898    0.655923
     13          1           0        1.842480   -2.465334   -1.090231
     14          1           0        0.464865   -2.554877    0.068471
     15          1           0        3.132940    2.010727    0.086973
     16          1           0        0.401390    2.481322    0.200323
     17          1           0       -1.458560    1.281573   -1.904865
     18          1           0       -1.217816   -0.495995   -2.205015
     19          1           0       -2.854711    0.146821   -1.750053
     20          1           0       -2.540638   -1.618691    0.846996
 ---------------------------------------------------------------------
                    Distance matrix (angstroms):
                    1          2          3          4          5
     1  N    0.000000
     2  S    1.537023   0.000000
     3  C    2.757632   1.781176   0.000000
     4  C    4.068138   2.885212   1.378512   0.000000
     5  C    4.997843   3.601275   2.634144   1.480108   0.000000
     6  O    4.891208   3.960207   2.204291   1.347217   2.422061
     7  C    4.465639   3.922163   2.217969   2.201919   3.586250
     8  C    3.150826   2.805224   1.433388   2.266084   3.736047
     9  C    2.569653   1.804614   2.729422   3.680605   4.324956
    10  N    2.733584   1.540264   2.616459   3.125220   3.193622
    11  H    1.019288   2.112018   3.147821   4.347477   5.219893
    12  H    5.711225   4.423680   3.365208   2.130912   1.100674
    13  H    5.709623   4.252278   3.287250   2.136517   1.102367
    14  H    4.619499   3.167718   2.784981   2.095926   1.096871
    15  H    5.367152   4.965407   3.297421   3.203175   4.487157
    16  H    2.886904   3.071626   2.257287   3.318432   4.766093
    17  H    2.716621   2.389299   2.884616   3.946740   4.862241
    18  H    3.510811   2.376211   2.862707   3.417936   3.796073
    19  H    2.786982   2.362382   3.695131   4.665853   5.170083
    20  H    2.856843   2.108805   3.524055   4.135642   4.157013
                    6          7          8          9         10
     6  O    0.000000
     7  C    1.353359   0.000000
     8  C    2.223073   1.357151   0.000000
     9  C    4.624177   4.522679   3.469559   0.000000
    10  N    4.420349   4.791282   3.941293   2.800185   0.000000
    11  H    5.143381   4.748542   3.522259   3.504399   2.895897
    12  H    2.674922   3.932148   4.301952   5.353518   3.898376
    13  H    2.795758   3.998585   4.278391   4.559486   3.925403
    14  H    3.309324   4.293937   4.120621   3.980389   2.365755
    15  H    2.083043   1.087309   2.244563   5.481937   5.871579
    16  H    3.280075   2.203977   1.088743   3.606032   4.427910
    17  H    4.614082   4.227981   3.147633   1.097173   3.690268
    18  H    4.392633   4.556701   3.766635   1.097003   2.949564
    19  H    5.681565   5.575819   4.451814   1.097984   3.091222
    20  H    5.414698   5.707748   4.754299   3.210980   1.018289
                   11         12         13         14         15
    11  H    0.000000
    12  H    5.771720   0.000000
    13  H    6.069485   1.777934   0.000000
    14  H    4.810851   1.799980   1.802341   0.000000
    15  H    5.616134   4.696535   4.804813   5.288072   0.000000
    16  H    3.285478   5.351221   5.311466   5.038324   2.774107
    17  H    3.715268   5.863212   5.059625   4.723555   5.057762
    18  H    4.363805   4.884217   3.806107   3.498450   5.519597
    19  H    3.687896   6.186384   5.415009   4.650354   6.534583
    20  H    2.900685   4.801948   4.866351   3.242775   6.777891
                   16         17         18         19         20
    16  H    0.000000
    17  H    3.054608   0.000000
    18  H    4.155947   1.818735   0.000000
    19  H    4.456014   1.805787   1.816488   0.000000
    20  H    5.087615   4.141880   3.510709   3.156001   0.000000
 Stoichiometry    C6H10N2OS
 Framework group  C1[X(C6H10N2OS)]
 Deg. of freedom    54
 Full point group                 C1      NOp   1
 Largest Abelian subgroup         C1      NOp   1
 Largest concise Abelian subgroup C1      NOp   1
                         Standard orientation:                         
 ---------------------------------------------------------------------
 Center     Atomic      Atomic             Coordinates (Angstroms)
 Number     Number       Type             X           Y           Z
 ---------------------------------------------------------------------
      1          7           0       -2.146140   -1.148168   -0.750021
      2         16           0       -1.377913    0.039385   -0.148370
      3          6           0        0.376863   -0.258616   -0.080922
      4          6           0        1.447268    0.606502   -0.002824
      5          6           0        1.582632    2.078953    0.062626
      6          8           0        2.574895   -0.130192    0.024233
      7          6           0        2.251375   -1.443146   -0.031143
      8          6           0        0.903892   -1.591519   -0.095462
      9          6           0       -1.772525   -0.176445    1.599294
     10          7           0       -1.482139    1.500564   -0.624296
     11          1           0       -2.153267   -1.074491   -1.766618
     12          1           0        2.302517    2.432902   -0.691010
     13          1           0        1.953042    2.394416    1.051814
     14          1           0        0.595257    2.517405   -0.127052
     15          1           0        3.076385   -2.151360   -0.025336
     16          1           0        0.329719   -2.513755   -0.167347
     17          1           0       -1.507180   -1.200627    1.889867
     18          1           0       -1.198588    0.571168    2.160618
     19          1           0       -2.854146   -0.013761    1.695202
     20          1           0       -2.435369    1.688339   -0.929265
 ---------------------------------------------------------------------
 Rotational constants (GHZ):           1.9453394           0.9520424           0.7575384
 Standard basis: def2SVP (5D, 7F)
 There are   204 symmetry adapted cartesian basis functions of A   symmetry.
 There are   194 symmetry adapted basis functions of A   symmetry.
   194 basis functions,   332 primitive gaussians,   204 cartesian basis functions
    42 alpha electrons       42 beta electrons
       nuclear repulsion energy       658.5936083154 Hartrees.
 NAtoms=   20 NActive=   20 NUniq=   20 SFac= 1.00D+00 NAtFMM=   60 NAOKFM=F Big=F
 Integral buffers will be    131072 words long.
 Raffenetti 2 integral format.
 Two-electron integral symmetry is turned on.
 Nuclear repulsion after empirical dispersion term =      658.5732311763 Hartrees.
 One-electron integrals computed using PRISM.
   1 Symmetry operations used in ECPInt.
 ECPInt:  NShTT=    4278 NPrTT=   15746 LenC2=    4218 LenP2D=   11958.
 LDataN:  DoStor=T MaxTD1= 4 Len=   56
 NBasis=   194 RedAO= T EigKep=  5.11D-04  NBF=   194
 NBsUse=   194 1.00D-06 EigRej= -1.00D+00 NBFU=   194
 Initial guess from the checkpoint file:  "SDI0291_1.chk"
 B after Tr=    -0.000000    0.000000    0.000000
         Rot=    0.999853    0.011241    0.000184    0.012946 Ang=   1.96 deg.
 ExpMin= 1.22D-01 ExpMax= 9.18D+03 ExpMxC= 1.38D+03 IAcc=3 IRadAn=         5 AccDes= 0.00D+00
 Harris functional with IExCor= 1009 and IRadAn=       5 diagonalized for initial guess.
 HarFok:  IExCor= 1009 AccDes= 0.00D+00 IRadAn=         5 IDoV= 1 UseB2=F ITyADJ=14
 ICtDFT=  3500011 ScaDFX=  1.000000  1.000000  1.000000  1.000000
 FoFCou: FMM=F IPFlag=           0 FMFlag=      100000 FMFlg1=           0
         NFxFlg=           0 DoJE=T BraDBF=F KetDBF=T FulRan=T
         wScrn=  0.000000 ICntrl=       500 IOpCl=  0 I1Cent=   200000004 NGrid=           0
         NMat0=    1 NMatS0=      1 NMatT0=    0 NMatD0=    1 NMtDS0=    0 NMtDT0=    0
 Petite list used in FoFCou.
 Requested convergence on RMS density matrix=1.00D-08 within 128 cycles.
 Requested convergence on MAX density matrix=1.00D-06.
 Requested convergence on             energy=1.00D-06.
 No special actions if energy rises.
 Integral accuracy reduced to 1.0D-05 until final iterations.
 Initial convergence to 1.0D-05 achieved.  Increase integral accuracy.
 SCF Done:  E(RPBE1PBE) =  -816.390445972     A.U. after   12 cycles
            NFock= 12  Conv=0.61D-08     -V/T= 2.0059
   1 Symmetry operations used in ECPInt.
 ECPInt:  NShTT=    4278 NPrTT=   15746 LenC2=    4218 LenP2D=   11958.
 LDataN:  DoStor=T MaxTD1= 5 Len=  102
 Calling FoFJK, ICntrl=      2127 FMM=F ISym2X=0 I1Cent= 0 IOpClX= 0 NMat=1 NMatS=1 NMatT=0.
 ***** Axes restored to original set *****
 -------------------------------------------------------------------
 Center     Atomic                   Forces (Hartrees/Bohr)
 Number     Number              X              Y              Z
 -------------------------------------------------------------------
      1        7          -0.007861251    0.007022718    0.001151834
      2       16           0.005188313    0.001241258   -0.009149628
      3        6           0.001446221   -0.003963107    0.001020502
      4        6          -0.004502228    0.003761646    0.000606313
      5        6          -0.000592974    0.002796266    0.000236439
      6        8           0.004092579   -0.000221620   -0.000480970
      7        6          -0.000466837   -0.000453163   -0.000272628
      8        6          -0.001818333   -0.000204960    0.000383572
      9        6           0.000672593    0.000080576    0.002579323
     10        7           0.005757920   -0.006052399    0.003958998
     11        1           0.003182782   -0.000704340    0.002800675
     12        1          -0.000557050    0.000032305    0.000076830
     13        1          -0.000231877   -0.000046768    0.000229329
     14        1          -0.000326331   -0.000955521    0.000011327
     15        1           0.000184832   -0.001248487    0.000027325
     16        1          -0.000082616   -0.001088766    0.000120089
     17        1          -0.000434132   -0.000640781   -0.001003705
     18        1          -0.000432746    0.000130278   -0.000232102
     19        1           0.000020506   -0.000026409    0.000163437
     20        1          -0.003239371    0.000541275   -0.002226962
 -------------------------------------------------------------------
 Cartesian Forces:  Max     0.009149628 RMS     0.002709306

 GradGradGradGradGradGradGradGradGradGradGradGradGradGradGradGradGradGrad
 Berny optimization.
 Using GEDIIS/GDIIS optimizer.
 FormGI is forming the generalized inverse of G from B-inverse, IUseBI=4.
 Internal  Forces:  Max     0.008753721 RMS     0.001808397
 Search for a local minimum.
 Step number   2 out of a maximum of  106
 All quantities printed in internal units (Hartrees-Bohrs-Radians)
 Mixed Optimization -- RFO/linear search
 Update second derivatives using D2CorX and points    1    2
 DE= -4.58D-03 DEPred=-4.74D-03 R= 9.65D-01
 TightC=F SS=  1.41D+00  RLast= 2.26D-01 DXNew= 5.0454D-01 6.7746D-01
 Trust test= 9.65D-01 RLast= 2.26D-01 DXMaxT set to 5.05D-01
 ITU=  1  0
 Use linear search instead of GDIIS.
     Eigenvalues ---    0.00230   0.00566   0.01012   0.01443   0.01687
     Eigenvalues ---    0.02164   0.02313   0.02464   0.02598   0.03169
     Eigenvalues ---    0.03449   0.05989   0.06185   0.06646   0.07525
     Eigenvalues ---    0.07720   0.08394   0.09797   0.13938   0.15874
     Eigenvalues ---    0.15994   0.15999   0.16000   0.16000   0.16000
     Eigenvalues ---    0.16000   0.16000   0.16000   0.16165   0.18847
     Eigenvalues ---    0.22640   0.23751   0.24805   0.24971   0.26834
     Eigenvalues ---    0.28145   0.34234   0.34896   0.35092   0.35117
     Eigenvalues ---    0.35589   0.35640   0.35942   0.37103   0.37619
     Eigenvalues ---    0.41049   0.45592   0.46479   0.47629   0.51563
     Eigenvalues ---    0.53743   0.55595   0.65125   0.68076
 RFO step:  Lambda=-1.65026640D-03 EMin= 2.29937873D-03
 Quartic linear search produced a step of  0.04055.
 Iteration  1 RMS(Cart)=  0.03126142 RMS(Int)=  0.00077591
 Iteration  2 RMS(Cart)=  0.00079315 RMS(Int)=  0.00004479
 Iteration  3 RMS(Cart)=  0.00000113 RMS(Int)=  0.00004478
 Iteration  4 RMS(Cart)=  0.00000000 RMS(Int)=  0.00004478
 Variable       Old X    -DE/DX   Delta X   Delta X   Delta X     New X
                                 (Linear)    (Quad)   (Total)
    R1        2.90455   0.00875   0.00015   0.01421   0.01436   2.91891
    R2        1.92617   0.00278   0.00096   0.00934   0.01030   1.93647
    R3        3.36594  -0.00308  -0.00036  -0.01282  -0.01318   3.35275
    R4        3.41023  -0.00149  -0.00181  -0.01239  -0.01421   3.39602
    R5        2.91068   0.00546   0.00001   0.00878   0.00879   2.91947
    R6        2.60501  -0.00597   0.00082  -0.01002  -0.00920   2.59581
    R7        2.70871  -0.00207   0.00092  -0.00240  -0.00148   2.70723
    R8        2.79700  -0.00194  -0.00010  -0.00615  -0.00625   2.79075
    R9        2.54587   0.00137  -0.00001   0.00241   0.00241   2.54828
   R10        2.07997  -0.00031   0.00096   0.00227   0.00324   2.08321
   R11        2.08317  -0.00027   0.00097   0.00241   0.00338   2.08656
   R12        2.07279   0.00065   0.00075   0.00439   0.00514   2.07793
   R13        2.55748  -0.00048   0.00036   0.00089   0.00126   2.55874
   R14        2.56464   0.00168   0.00005   0.00393   0.00398   2.56863
   R15        2.05472  -0.00063   0.00121   0.00226   0.00347   2.05819
   R16        2.05743  -0.00089   0.00145   0.00232   0.00376   2.06119
   R17        2.07336  -0.00047   0.00117   0.00249   0.00366   2.07701
   R18        2.07303  -0.00019   0.00104   0.00290   0.00394   2.07697
   R19        2.07489  -0.00003   0.00112   0.00362   0.00474   2.07963
   R20        1.92429   0.00235   0.00085   0.00806   0.00891   1.93320
    A1        1.91564  -0.00385  -0.00313  -0.03505  -0.03818   1.87746
    A2        1.95839   0.00079  -0.00079   0.00470   0.00369   1.96208
    A3        1.74913   0.00020  -0.00048   0.01000   0.00942   1.75855
    A4        2.18730   0.00049   0.00070   0.00097   0.00160   2.18890
    A5        1.73022   0.00272   0.00031   0.01906   0.01931   1.74953
    A6        1.81016  -0.00286   0.00028  -0.02490  -0.02461   1.78554
    A7        1.98002  -0.00056  -0.00012  -0.00351  -0.00351   1.97651
    A8        2.29446  -0.00315   0.00135  -0.00746  -0.00612   2.28833
    A9        2.11463   0.00256  -0.00188   0.00541   0.00350   2.11814
   A10        1.87408   0.00060   0.00053   0.00213   0.00261   1.87669
   A11        2.34318  -0.00308   0.00230  -0.00425  -0.00195   2.34123
   A12        1.88377   0.00269  -0.00100   0.00611   0.00509   1.88887
   A13        2.05619   0.00039  -0.00130  -0.00184  -0.00313   2.05307
   A14        1.92778  -0.00014   0.00018  -0.00043  -0.00025   1.92753
   A15        1.93382   0.00006   0.00017   0.00128   0.00145   1.93527
   A16        1.88356   0.00104  -0.00003   0.00643   0.00639   1.88995
   A17        1.87823   0.00010  -0.00028   0.00002  -0.00026   1.87797
   A18        1.91963  -0.00058  -0.00008  -0.00465  -0.00473   1.91490
   A19        1.92117  -0.00051   0.00003  -0.00281  -0.00279   1.91839
   A20        1.90667  -0.00309   0.00099  -0.00824  -0.00726   1.89941
   A21        1.92341   0.00057  -0.00022   0.00423   0.00399   1.92740
   A22        2.03790  -0.00141  -0.00026  -0.01057  -0.01083   2.02706
   A23        2.32184   0.00083   0.00048   0.00626   0.00673   2.32857
   A24        1.83684  -0.00077  -0.00029  -0.00416  -0.00447   1.83237
   A25        2.20737  -0.00025   0.00042  -0.00103  -0.00061   2.20677
   A26        2.23871   0.00101  -0.00014   0.00521   0.00508   2.24379
   A27        1.89150   0.00186   0.00076   0.01570   0.01647   1.90797
   A28        1.87510   0.00038  -0.00074  -0.00011  -0.00089   1.87421
   A29        1.85697  -0.00065  -0.00124  -0.00947  -0.01071   1.84625
   A30        1.95425  -0.00077   0.00023  -0.00172  -0.00153   1.95272
   A31        1.93202  -0.00048   0.00040  -0.00154  -0.00109   1.93093
   A32        1.94950  -0.00021   0.00050  -0.00252  -0.00208   1.94743
   A33        1.90797  -0.00323  -0.00283  -0.03007  -0.03290   1.87507
    D1       -1.48919   0.00374   0.00164   0.07076   0.07245  -1.41675
    D2        2.97277   0.00038   0.00176   0.04340   0.04517   3.01795
    D3        0.72906   0.00059   0.00188   0.03726   0.03907   0.76813
    D4        2.76391  -0.00124   0.00162  -0.03673  -0.03509   2.72883
    D5       -0.38508  -0.00097   0.00153  -0.02024  -0.01870  -0.40378
    D6       -1.68576   0.00047   0.00101  -0.01540  -0.01431  -1.70007
    D7        1.44843   0.00073   0.00092   0.00109   0.00208   1.45050
    D8        0.35637  -0.00003   0.00107  -0.01997  -0.01899   0.33737
    D9       -2.79263   0.00023   0.00098  -0.00349  -0.00261  -2.79524
   D10        0.93766   0.00037  -0.00030   0.01815   0.01788   0.95554
   D11        3.05242   0.00072  -0.00001   0.02495   0.02499   3.07741
   D12       -1.14057   0.00032  -0.00051   0.01692   0.01651  -1.12406
   D13       -1.06435  -0.00125   0.00057   0.00543   0.00592  -1.05843
   D14        1.05041  -0.00090   0.00086   0.01222   0.01302   1.06344
   D15        3.14061  -0.00129   0.00036   0.00420   0.00454  -3.13803
   D16       -2.97301   0.00078   0.00013   0.02503   0.02513  -2.94788
   D17       -0.85825   0.00113   0.00042   0.03182   0.03224  -0.82601
   D18        1.23195   0.00073  -0.00008   0.02380   0.02375   1.25571
   D19        0.60359   0.00223   0.00163   0.06403   0.06562   0.66921
   D20        2.88167   0.00064   0.00138   0.04374   0.04511   2.92679
   D21       -1.54280   0.00207   0.00184   0.05136   0.05323  -1.48957
   D22        0.00702  -0.00010   0.00036  -0.00050  -0.00019   0.00684
   D23        3.13929  -0.00003   0.00022   0.00218   0.00233  -3.14157
   D24       -3.12793  -0.00035   0.00045  -0.01530  -0.01487   3.14039
   D25        0.00433  -0.00028   0.00031  -0.01262  -0.01235  -0.00802
   D26       -3.14009   0.00009  -0.00018  -0.00011  -0.00039  -3.14048
   D27        0.02428   0.00002   0.00029  -0.00084  -0.00059   0.02369
   D28       -0.00431   0.00028  -0.00025   0.01279   0.01253   0.00821
   D29       -3.12313   0.00021   0.00022   0.01207   0.01232  -3.11081
   D30       -2.26049   0.00022   0.00013   0.01245   0.01257  -2.24792
   D31        1.94306   0.00015   0.00024   0.01189   0.01212   1.95518
   D32       -0.16146   0.00007   0.00012   0.01051   0.01061  -0.15085
   D33        0.89114   0.00014   0.00028   0.00954   0.00984   0.90097
   D34       -1.18850   0.00007   0.00040   0.00897   0.00939  -1.17911
   D35        2.99017  -0.00001   0.00027   0.00759   0.00787   2.99804
   D36       -0.00270   0.00019  -0.00025   0.00766   0.00740   0.00470
   D37        3.13134   0.00022  -0.00035   0.00981   0.00944   3.14078
   D38       -0.00011  -0.00001   0.00008   0.00070   0.00081   0.00069
   D39        3.13264  -0.00014  -0.00019  -0.00675  -0.00685   3.12579
   D40        0.00274  -0.00017   0.00010  -0.00834  -0.00822  -0.00549
   D41        3.12100  -0.00013  -0.00038  -0.00771  -0.00812   3.11289
   D42       -3.12806   0.00000   0.00043   0.00088   0.00137  -3.12669
   D43       -0.00979   0.00004  -0.00005   0.00151   0.00147  -0.00832
         Item               Value     Threshold  Converged?
 Maximum Force            0.008754     0.000450     NO 
 RMS     Force            0.001808     0.000300     NO 
 Maximum Displacement     0.142627     0.001800     NO 
 RMS     Displacement     0.031370     0.001200     NO 
 Predicted change in Energy=-8.491313D-04
 GradGradGradGradGradGradGradGradGradGradGradGradGradGradGradGradGradGrad

                          Input orientation:                          
 ---------------------------------------------------------------------
 Center     Atomic      Atomic             Coordinates (Angstroms)
 Number     Number       Type             X           Y           Z
 ---------------------------------------------------------------------
      1          7           0       -2.138487    1.199174    0.738864
      2         16           0       -1.399565    0.005894    0.093933
      3          6           0        0.359230    0.236874    0.061114
      4          6           0        1.388308   -0.670634   -0.004642
      5          6           0        1.457174   -2.143934   -0.079367
      6          8           0        2.552088    0.010572   -0.002734
      7          6           0        2.282728    1.335590    0.069089
      8          6           0        0.940538    1.545075    0.116272
      9          6           0       -1.788690    0.268313   -1.640792
     10          7           0       -1.529675   -1.470034    0.531509
     11          1           0       -2.083624    1.084047    1.755635
     12          1           0        2.137589   -2.537225    0.693689
     13          1           0        1.842784   -2.470638   -1.061067
     14          1           0        0.445517   -2.545033    0.078019
     15          1           0        3.145390    2.000006    0.093748
     16          1           0        0.402485    2.490025    0.201548
     17          1           0       -1.488047    1.284852   -1.931140
     18          1           0       -1.251798   -0.498059   -2.217345
     19          1           0       -2.879343    0.147665   -1.724475
     20          1           0       -2.509584   -1.631746    0.776788
 ---------------------------------------------------------------------
                    Distance matrix (angstroms):
                    1          2          3          4          5
     1  N    0.000000
     2  S    1.544622   0.000000
     3  C    2.761151   1.774201   0.000000
     4  C    4.060451   2.870478   1.373643   0.000000
     5  C    4.977414   3.579491   2.625541   1.476801   0.000000
     6  O    4.895328   3.952838   2.205429   1.348492   2.417976
     7  C    4.473740   3.915098   2.215195   2.197807   3.579199
     8  C    3.160326   2.801010   1.432603   2.263733   3.730145
     9  C    2.579073   1.797096   2.740626   3.694851   4.335046
    10  N    2.745600   1.544916   2.588970   3.072641   3.122271
    11  H    1.024738   2.095615   3.091381   4.269871   5.130726
    12  H    5.678692   4.397570   3.355345   2.129144   1.102388
    13  H    5.705943   4.240290   3.284942   2.136024   1.104158
    14  H    4.597052   3.148303   2.783296   2.099776   1.099591
    15  H    5.383016   4.963174   3.297330   3.198333   4.477977
    16  H    2.900266   3.070809   2.257938   3.317247   4.760763
    17  H    2.749424   2.396765   2.912004   3.976021   4.884667
    18  H    3.522213   2.370193   2.885639   3.449058   3.823400
    19  H    2.778952   2.348712   3.699275   4.673359   5.173315
    20  H    2.855391   2.092916   3.497717   4.089980   4.090295
                    6          7          8          9         10
     6  O    0.000000
     7  C    1.354025   0.000000
     8  C    2.228443   1.359259   0.000000
     9  C    4.646721   4.543040   3.487990   0.000000
    10  N    4.374746   4.756025   3.919854   2.794249   0.000000
    11  H    5.072873   4.687510   3.470679   3.505442   2.885945
    12  H    2.673591   3.925543   4.293195   5.360645   3.822830
    13  H    2.789191   3.994768   4.280903   4.585361   3.861474
    14  H    3.312896   4.293560   4.120133   3.982576   2.294049
    15  H    2.078259   1.089147   2.251409   5.509313   5.838582
    16  H    3.287888   2.210335   1.090735   3.623736   4.418617
    17  H    4.654593   4.268751   3.187105   1.099108   3.695371
    18  H    4.430887   4.591614   3.798223   1.099087   2.928848
    19  H    5.699441   5.592407   4.464593   1.100492   3.086748
    20  H    5.378233   5.680861   4.736224   3.158260   1.023003
                   11         12         13         14         15
    11  H    0.000000
    12  H    5.662154   0.000000
    13  H    5.998856   1.780594   0.000000
    14  H    4.730876   1.800616   1.804274   0.000000
    15  H    5.562682   4.686369   4.797607   5.286486   0.000000
    16  H    3.251568   5.340977   5.317597   5.036757   2.788416
    17  H    3.739966   5.885851   5.094622   4.737448   5.106893
    18  H    4.356554   4.911239   3.847660   3.512788   5.560282
    19  H    3.690683   6.182698   5.440046   4.642661   6.560069
    20  H    2.918067   4.735295   4.798391   3.170962   6.755360
                   16         17         18         19         20
    16  H    0.000000
    17  H    3.094335   0.000000
    18  H    4.185253   1.821126   0.000000
    19  H    4.468401   1.808759   1.819006   0.000000
    20  H    5.079374   4.108887   3.439783   3.091818   0.000000
 Stoichiometry    C6H10N2OS
 Framework group  C1[X(C6H10N2OS)]
 Deg. of freedom    54
 Full point group                 C1      NOp   1
 Largest Abelian subgroup         C1      NOp   1
 Largest concise Abelian subgroup C1      NOp   1
                         Standard orientation:                         
 ---------------------------------------------------------------------
 Center     Atomic      Atomic             Coordinates (Angstroms)
 Number     Number       Type             X           Y           Z
 ---------------------------------------------------------------------
      1          7           0       -2.144116   -1.139434   -0.786004
      2         16           0       -1.371920    0.034999   -0.145475
      3          6           0        0.375147   -0.264808   -0.070254
      4          6           0        1.438050    0.602276    0.002538
      5          6           0        1.564146    2.072796    0.053653
      6          8           0        2.573453   -0.124396    0.037693
      7          6           0        2.252933   -1.438783   -0.017432
      8          6           0        0.904743   -1.595776   -0.090395
      9          6           0       -1.807884   -0.180740    1.584539
     10          7           0       -1.433638    1.506859   -0.610861
     11          1           0       -2.063168   -1.044774   -1.803144
     12          1           0        2.275960    2.424950   -0.710916
     13          1           0        1.941622    2.401482    1.037850
     14          1           0        0.572890    2.510754   -0.132636
     15          1           0        3.088679   -2.137167   -0.011893
     16          1           0        0.331281   -2.520056   -0.171320
     17          1           0       -1.554328   -1.203029    1.898663
     18          1           0       -1.253125    0.573964    2.159567
     19          1           0       -2.894371   -0.015528    1.642272
     20          1           0       -2.400885    1.702827   -0.880239
 ---------------------------------------------------------------------
 Rotational constants (GHZ):           1.9499528           0.9565662           0.7606481
 Standard basis: def2SVP (5D, 7F)
 There are   204 symmetry adapted cartesian basis functions of A   symmetry.
 There are   194 symmetry adapted basis functions of A   symmetry.
   194 basis functions,   332 primitive gaussians,   204 cartesian basis functions
    42 alpha electrons       42 beta electrons
       nuclear repulsion energy       659.3303525647 Hartrees.
 NAtoms=   20 NActive=   20 NUniq=   20 SFac= 1.00D+00 NAtFMM=   60 NAOKFM=F Big=F
 Integral buffers will be    131072 words long.
 Raffenetti 2 integral format.
 Two-electron integral symmetry is turned on.
 Nuclear repulsion after empirical dispersion term =      659.3099391229 Hartrees.
 One-electron integrals computed using PRISM.
   1 Symmetry operations used in ECPInt.
 ECPInt:  NShTT=    4278 NPrTT=   15746 LenC2=    4218 LenP2D=   11966.
 LDataN:  DoStor=T MaxTD1= 4 Len=   56
 NBasis=   194 RedAO= T EigKep=  5.05D-04  NBF=   194
 NBsUse=   194 1.00D-06 EigRej= -1.00D+00 NBFU=   194
 Initial guess from the checkpoint file:  "SDI0291_1.chk"
 B after Tr=     0.000000   -0.000000   -0.000000
         Rot=    0.999993   -0.000992    0.003529    0.000176 Ang=  -0.42 deg.
 ExpMin= 1.22D-01 ExpMax= 9.18D+03 ExpMxC= 1.38D+03 IAcc=3 IRadAn=         5 AccDes= 0.00D+00
 Harris functional with IExCor= 1009 and IRadAn=       5 diagonalized for initial guess.
 HarFok:  IExCor= 1009 AccDes= 0.00D+00 IRadAn=         5 IDoV= 1 UseB2=F ITyADJ=14
 ICtDFT=  3500011 ScaDFX=  1.000000  1.000000  1.000000  1.000000
 FoFCou: FMM=F IPFlag=           0 FMFlag=      100000 FMFlg1=           0
         NFxFlg=           0 DoJE=T BraDBF=F KetDBF=T FulRan=T
         wScrn=  0.000000 ICntrl=       500 IOpCl=  0 I1Cent=   200000004 NGrid=           0
         NMat0=    1 NMatS0=      1 NMatT0=    0 NMatD0=    1 NMtDS0=    0 NMtDT0=    0
 Petite list used in FoFCou.
 Requested convergence on RMS density matrix=1.00D-08 within 128 cycles.
 Requested convergence on MAX density matrix=1.00D-06.
 Requested convergence on             energy=1.00D-06.
 No special actions if energy rises.
 Integral accuracy reduced to 1.0D-05 until final iterations.
 Initial convergence to 1.0D-05 achieved.  Increase integral accuracy.
 SCF Done:  E(RPBE1PBE) =  -816.391454471     A.U. after   11 cycles
            NFock= 11  Conv=0.96D-08     -V/T= 2.0059
   1 Symmetry operations used in ECPInt.
 ECPInt:  NShTT=    4278 NPrTT=   15746 LenC2=    4218 LenP2D=   11966.
 LDataN:  DoStor=T MaxTD1= 5 Len=  102
 Calling FoFJK, ICntrl=      2127 FMM=F ISym2X=0 I1Cent= 0 IOpClX= 0 NMat=1 NMatS=1 NMatT=0.
 ***** Axes restored to original set *****
 -------------------------------------------------------------------
 Center     Atomic                   Forces (Hartrees/Bohr)
 Number     Number              X              Y              Z
 -------------------------------------------------------------------
      1        7          -0.004220073    0.001010458    0.002208654
      2       16           0.006537705    0.001528744   -0.003819033
      3        6          -0.000363778    0.000501760    0.000931884
      4        6          -0.000791414    0.000406626   -0.000667491
      5        6          -0.000490412   -0.001603049   -0.000310083
      6        8           0.000390247    0.000997513    0.000160494
      7        6           0.000851304    0.001516714    0.000577424
      8        6           0.000909173    0.000633096   -0.000683696
      9        6          -0.000983537    0.000729433   -0.000306925
     10        7          -0.002490049   -0.003538510    0.004418228
     11        1           0.001484845    0.000857540   -0.000471025
     12        1          -0.000885425    0.000526752   -0.000791937
     13        1          -0.000286705    0.000388579    0.001237841
     14        1           0.001413311    0.000497856   -0.000256033
     15        1          -0.001445127   -0.001160672   -0.000048187
     16        1           0.000959209   -0.002149480   -0.000315234
     17        1          -0.000775926   -0.001574655   -0.000048603
     18        1          -0.001086110    0.001125108    0.000771239
     19        1           0.001569947    0.000323509   -0.000450133
     20        1          -0.000297182   -0.001017322   -0.002137384
 -------------------------------------------------------------------
 Cartesian Forces:  Max     0.006537705 RMS     0.001670443

 GradGradGradGradGradGradGradGradGradGradGradGradGradGradGradGradGradGrad
 Berny optimization.
 Using GEDIIS/GDIIS optimizer.
 FormGI is forming the generalized inverse of G from B-inverse, IUseBI=4.
 Internal  Forces:  Max     0.005233435 RMS     0.000963113
 Search for a local minimum.
 Step number   3 out of a maximum of  106
[...]
                 (A) (A) (A) (A) (A) (A) (A) (A) (A) (A) (A) (A)
                 (A) (A) (A) (A) (A) (A) (A) (A) (A) (A)
 The electronic state is 1-A.
 Alpha  occ. eigenvalues --  -89.17628 -19.28983 -14.34619 -14.34466 -10.30266
 Alpha  occ. eigenvalues --  -10.28403 -10.25251 -10.25131 -10.23798 -10.22639
 Alpha  occ. eigenvalues --   -8.13163  -6.06800  -6.06679  -6.06605  -1.16351
 Alpha  occ. eigenvalues --   -1.00318  -0.86028  -0.84307  -0.81674  -0.77184
 Alpha  occ. eigenvalues --   -0.71968  -0.67062  -0.62075  -0.57215  -0.55011
 Alpha  occ. eigenvalues --   -0.51855  -0.50034  -0.47902  -0.46590  -0.45691
 Alpha  occ. eigenvalues --   -0.43248  -0.42642  -0.42201  -0.41999  -0.41212
 Alpha  occ. eigenvalues --   -0.39236  -0.35539  -0.31328  -0.29141  -0.26920
 Alpha  occ. eigenvalues --   -0.25266  -0.24511
 Alpha virt. eigenvalues --   -0.01138   0.02336   0.04174   0.06561   0.07010
 Alpha virt. eigenvalues --    0.07796   0.08141   0.08987   0.09170   0.09942
 Alpha virt. eigenvalues --    0.11389   0.11894   0.12154   0.13300   0.13814
 Alpha virt. eigenvalues --    0.14853   0.14996   0.16068   0.17794   0.20142
 Alpha virt. eigenvalues --    0.21408   0.22525   0.22965   0.23376   0.25170
 Alpha virt. eigenvalues --    0.26311   0.26881   0.27926   0.29546   0.30464
 Alpha virt. eigenvalues --    0.30721   0.31626   0.32378   0.33512   0.34790
 Alpha virt. eigenvalues --    0.35242   0.36999   0.37944   0.39313   0.39994
 Alpha virt. eigenvalues --    0.40589   0.41429   0.42756   0.43174   0.44370
 Alpha virt. eigenvalues --    0.44524   0.45077   0.45779   0.47515   0.48655
 Alpha virt. eigenvalues --    0.49583   0.50273   0.50865   0.50990   0.52104
 Alpha virt. eigenvalues --    0.52757   0.53819   0.54715   0.56156   0.56386
 Alpha virt. eigenvalues --    0.58584   0.59464   0.61627   0.63460   0.63924
 Alpha virt. eigenvalues --    0.64418   0.65174   0.69506   0.70308   0.72570
 Alpha virt. eigenvalues --    0.73689   0.74424   0.75545   0.77342   0.78237
 Alpha virt. eigenvalues --    0.79070   0.80479   0.81461   0.82776   0.84078
 Alpha virt. eigenvalues --    0.85222   0.87077   0.90367   0.92484   0.93372
 Alpha virt. eigenvalues --    0.95310   0.96438   0.98399   0.98972   1.01628
 Alpha virt. eigenvalues --    1.02378   1.04083   1.05912   1.07689   1.09276
 Alpha virt. eigenvalues --    1.10068   1.13493   1.14196   1.15215   1.17012
 Alpha virt. eigenvalues --    1.18006   1.22224   1.22727   1.25293   1.27149
 Alpha virt. eigenvalues --    1.29516   1.30490   1.31926   1.34868   1.36224
 Alpha virt. eigenvalues --    1.39200   1.40690   1.43960   1.45374   1.46800
 Alpha virt. eigenvalues --    1.47866   1.50184   1.50568   1.52127   1.53330
 Alpha virt. eigenvalues --    1.53831   1.54729   1.56212   1.57048   1.57214
 Alpha virt. eigenvalues --    1.59951   1.61738   1.62252   1.64688   1.66031
 Alpha virt. eigenvalues --    1.67536   1.68853   1.70390   1.71408   1.73537
 Alpha virt. eigenvalues --    1.75626   1.76447   1.78877   1.79413   1.84759
 Alpha virt. eigenvalues --    1.85531   1.87513   1.89801   1.90445   1.91822
 Alpha virt. eigenvalues --    1.92658   1.94542   1.97122   1.97836   2.00228
 Alpha virt. eigenvalues --    2.01719   2.02884   2.03749   2.04237   2.04462
 Alpha virt. eigenvalues --    2.06891   2.07746   2.08653   2.11813   2.12265
 Alpha virt. eigenvalues --    2.14818   2.16353   2.17202   2.17447   2.19319
 Alpha virt. eigenvalues --    2.21685   2.21703   2.24003   2.24559   2.26645
 Alpha virt. eigenvalues --    2.30288   2.30536   2.31591   2.34582   2.34736
 Alpha virt. eigenvalues --    2.37473   2.40546   2.41385   2.43291   2.45254
 Alpha virt. eigenvalues --    2.50206   2.50629   2.52152   2.53844   2.55793
 Alpha virt. eigenvalues --    2.56102   2.57306   2.58438   2.60144   2.61715
 Alpha virt. eigenvalues --    2.64452   2.65632   2.66633   2.68038   2.69630
 Alpha virt. eigenvalues --    2.69977   2.72302   2.73602   2.74630   2.75964
 Alpha virt. eigenvalues --    2.77352   2.79782   2.81193   2.82431   2.84441
 Alpha virt. eigenvalues --    2.85361   2.86488   2.90407   2.92454   2.92744
 Alpha virt. eigenvalues --    2.97520   2.98482   3.02236   3.04956   3.06951
 Alpha virt. eigenvalues --    3.08126   3.08612   3.10364   3.12516   3.13729
 Alpha virt. eigenvalues --    3.15244   3.15719   3.16916   3.18846   3.20059
 Alpha virt. eigenvalues --    3.21674   3.22701   3.23751   3.25802   3.26484
 Alpha virt. eigenvalues --    3.28734   3.32224   3.32796   3.34133   3.36937
 Alpha virt. eigenvalues --    3.37248   3.38213   3.39990   3.40641   3.43177
 Alpha virt. eigenvalues --    3.45607   3.50137   3.50422   3.51996   3.52934
 Alpha virt. eigenvalues --    3.56363   3.57819   3.60710   3.62878   3.66189
 Alpha virt. eigenvalues --    3.66861   3.70754   3.71224   3.75119   3.77421
 Alpha virt. eigenvalues --    3.79135   3.85430   3.86568   3.89041   3.95120
 Alpha virt. eigenvalues --    3.97536   4.03193   4.07548   4.10935   4.13624
 Alpha virt. eigenvalues --    4.14494   4.16893   4.18725   4.19689   4.20684
 Alpha virt. eigenvalues --    4.24524   4.26117   4.26895   4.28151   4.29521
 Alpha virt. eigenvalues --    4.33210   4.34390   4.34893   4.39306   4.40619
 Alpha virt. eigenvalues --    4.44703   4.48870   4.51495   4.55367   4.58623
 Alpha virt. eigenvalues --    4.59956   4.63320   4.67970   4.69382   4.71930
 Alpha virt. eigenvalues --    4.73355   4.76504   4.78025   4.80405   4.82763
 Alpha virt. eigenvalues --    4.86984   4.92195   4.98261   5.00239   5.08245
 Alpha virt. eigenvalues --    5.09592   5.12636   5.17732   5.18303   5.23315
 Alpha virt. eigenvalues --    5.24640   5.37973   5.40701   5.55291   5.58163
 Alpha virt. eigenvalues --    5.64213   5.79167   5.81164   5.96733   6.32773
 Alpha virt. eigenvalues --    6.53523   6.68345   6.80400   6.82584   7.24855
 Alpha virt. eigenvalues --    7.34010   9.46608   9.54786   9.62137  21.72070
 Alpha virt. eigenvalues --   22.30766  22.34521  22.45974  22.85062  22.89185
 Alpha virt. eigenvalues --   23.35524  31.90323  31.92727  44.19133
          Condensed to atoms (all electrons):
               1          2          3          4          5          6
     1  N    6.902452   0.540857  -0.088872   0.009241  -0.000890  -0.000231
     2  S    0.540857  14.066922   0.302305  -0.021276  -0.018959   0.002025
     3  C   -0.088872   0.302305   5.387592   0.476711  -0.019296  -0.091287
     4  C    0.009241  -0.021276   0.476711   5.050198   0.228861   0.371274
     5  C   -0.000890  -0.018959  -0.019296   0.228861   5.036882  -0.025720
     6  O   -0.000231   0.002025  -0.091287   0.371274  -0.025720   7.685775
     7  C   -0.002719   0.010982   0.005639  -0.167830  -0.008710   0.346772
     8  C    0.013852  -0.056677   0.272655  -0.051155   0.029223  -0.088250
     9  C   -0.083477   0.299357  -0.079539   0.001500  -0.003705  -0.000184
    10  N   -0.072871   0.487778  -0.101196   0.017050  -0.044928  -0.000185
    11  H    0.311925  -0.025093   0.000219   0.000576  -0.000141  -0.000010
    12  H    0.000043   0.000933  -0.007861  -0.030140   0.394198  -0.000092
    13  H   -0.000007   0.000125  -0.006065  -0.030604   0.389707  -0.000285
    14  H    0.000567   0.002646  -0.000235  -0.054686   0.424084   0.002495
    15  H   -0.000048  -0.000113   0.010855   0.001295  -0.000720  -0.028816
    16  H    0.014900   0.000287  -0.054091   0.012340   0.000175   0.003475
    17  H    0.002394  -0.014779   0.005976   0.002113   0.000237   0.000001
    18  H    0.005560  -0.022347   0.006192  -0.004720   0.001009   0.000049
    19  H    0.005545  -0.014287   0.008468  -0.000528   0.000022   0.000007
    20  H   -0.000476  -0.013523   0.015820  -0.001453   0.001429   0.000021
               7          8          9         10         11         12
     1  N   -0.002719   0.013852  -0.083477  -0.072871   0.311925   0.000043
     2  S    0.010982  -0.056677   0.299357   0.487778  -0.025093   0.000933
     3  C    0.005639   0.272655  -0.079539  -0.101196   0.000219  -0.007861
     4  C   -0.167830  -0.051155   0.001500   0.017050   0.000576  -0.030140
     5  C   -0.008710   0.029223  -0.003705  -0.044928  -0.000141   0.394198
     6  O    0.346772  -0.088250  -0.000184  -0.000185  -0.000010  -0.000092
     7  C    4.939896   0.501815   0.001054  -0.000733   0.000226   0.001075
     8  C    0.501815   5.219474  -0.008251   0.013399  -0.005006  -0.000435
     9  C    0.001054  -0.008251   5.145439  -0.046121   0.013339  -0.000088
    10  N   -0.000733   0.013399  -0.046121   6.983301  -0.001520   0.001077
    11  H    0.000226  -0.005006   0.013339  -0.001520   0.493033  -0.000004
    12  H    0.001075  -0.000435  -0.000088   0.001077  -0.000004   0.544843
    13  H    0.001221  -0.000724   0.000635   0.001280   0.000003  -0.030732
    14  H    0.000182  -0.001666   0.000449   0.024576   0.000048  -0.010443
    15  H    0.424323  -0.046959   0.000057   0.000000   0.000008  -0.000002
    16  H   -0.038267   0.421379  -0.001956   0.000903  -0.001398   0.000000
    17  H    0.000409  -0.004887   0.361187   0.004725  -0.000830  -0.000004
    18  H   -0.000167   0.002940   0.375512   0.003211  -0.000623   0.000010
    19  H    0.000047  -0.000246   0.372823   0.000232  -0.000630   0.000004
    20  H    0.000079  -0.000824  -0.009248   0.306685  -0.000312  -0.000087
              13         14         15         16         17         18
     1  N   -0.000007   0.000567  -0.000048   0.014900   0.002394   0.005560
     2  S    0.000125   0.002646  -0.000113   0.000287  -0.014779  -0.022347
     3  C   -0.006065  -0.000235   0.010855  -0.054091   0.005976   0.006192
     4  C   -0.030604  -0.054686   0.001295   0.012340   0.002113  -0.004720
     5  C    0.389707   0.424084  -0.000720   0.000175   0.000237   0.001009
     6  O   -0.000285   0.002495  -0.028816   0.003475   0.000001   0.000049
     7  C    0.001221   0.000182   0.424323  -0.038267   0.000409  -0.000167
     8  C   -0.000724  -0.001666  -0.046959   0.421379  -0.004887   0.002940
     9  C    0.000635   0.000449   0.000057  -0.001956   0.361187   0.375512
    10  N    0.001280   0.024576   0.000000   0.000903   0.004725   0.003211
    11  H    0.000003   0.000048   0.000008  -0.001398  -0.000830  -0.000623
    12  H   -0.030732  -0.010443  -0.000002   0.000000  -0.000004   0.000010
    13  H    0.559656  -0.016521   0.000000  -0.000001  -0.000018  -0.000059
    14  H   -0.016521   0.448272   0.000033  -0.000106  -0.000047  -0.000073
    15  H    0.000000   0.000033   0.494466  -0.001667  -0.000001  -0.000004
    16  H   -0.000001  -0.000106  -0.001667   0.486609   0.000352   0.000135
    17  H   -0.000018  -0.000047  -0.000001   0.000352   0.517271  -0.016771
    18  H   -0.000059  -0.000073  -0.000004   0.000135  -0.016771   0.516380
    19  H   -0.000021  -0.000010  -0.000000  -0.000041  -0.011539  -0.014384
    20  H   -0.000011  -0.000950  -0.000000  -0.000029   0.000226   0.000141
              19         20
     1  N    0.005545  -0.000476
     2  S   -0.014287  -0.013523
     3  C    0.008468   0.015820
     4  C   -0.000528  -0.001453
     5  C    0.000022   0.001429
     6  O    0.000007   0.000021
     7  C    0.000047   0.000079
     8  C   -0.000246  -0.000824
     9  C    0.372823  -0.009248
    10  N    0.000232   0.306685
    11  H   -0.000630  -0.000312
    12  H    0.000004  -0.000087
    13  H   -0.000021  -0.000011
    14  H   -0.000010  -0.000950
    15  H   -0.000000  -0.000000
    16  H   -0.000041  -0.000029
    17  H   -0.011539   0.000226
    18  H   -0.014384   0.000141
    19  H    0.501879   0.001998
    20  H    0.001998   0.487499
 Mulliken charges:
               1
     1  N   -0.557745
     2  S    0.472836
     3  C   -0.043990
     4  C    0.191234
     5  C   -0.382759
     6  O   -0.176834
     7  C   -0.015294
     8  C   -0.209656
     9  C   -0.338785
    10  N   -0.576666
    11  H    0.216190
    12  H    0.137703
    13  H    0.132420
    14  H    0.181383
    15  H    0.147292
    16  H    0.157001
    17  H    0.153987
    18  H    0.148008
    19  H    0.150661
    20  H    0.213015
 Sum of Mulliken charges =  -0.00000
 Mulliken charges with hydrogens summed into heavy atoms:
               1
     1  N   -0.341556
     2  S    0.472836
     3  C   -0.043990
     4  C    0.191234
     5  C    0.068746
     6  O   -0.176834
     7  C    0.131998
     8  C   -0.052655
     9  C    0.113871
    10  N   -0.363650
 Electronic spatial extent (au):  <R**2>=           1609.0121
 Charge=              0.0000 electrons
 Dipole moment (field-independent basis, Debye):
    X=              1.1459    Y=             -0.0593    Z=              1.6608  Tot=              2.0186
 Quadrupole moment (field-independent basis, Debye-Ang):
   XX=            -66.2011   YY=            -66.6732   ZZ=            -64.7889
   XY=             -4.7761   XZ=             -2.7001   YZ=              1.0924
 Traceless Quadrupole moment (field-independent basis, Debye-Ang):
   XX=             -0.3134   YY=             -0.7855   ZZ=              1.0988
   XY=             -4.7761   XZ=             -2.7001   YZ=              1.0924
 Octapole moment (field-independent basis, Debye-Ang**2):
  XXX=              6.2759  YYY=             -4.1589  ZZZ=             -1.4394  XYY=             18.6695
  XXY=             11.0105  XXZ=              4.1128  XZZ=             -8.5351  YZZ=             -1.1008
  YYZ=              2.2770  XYZ=              1.3346
 Hexadecapole moment (field-independent basis, Debye-Ang**3):
 XXXX=          -1238.3051 YYYY=           -624.1142 ZZZZ=           -242.4998 XXXY=            -89.4483
 XXXZ=            -13.6828 YYYX=            -20.5668 YYYZ=             -0.4214 ZZZX=              9.6537
 ZZZY=             11.4293 XXYY=           -290.5020 XXZZ=           -236.3695 YYZZ=           -148.8144
 XXYZ=             -9.7828 YYXZ=             -0.7051 ZZXY=             14.4160
 N-N= 6.590568795065D+02 E-N=-3.240525013023D+03  KE= 8.142038417369D+02
 Breneman (CHELPG) radii used.
 Read replacement radii for each type of atom:
 Atom Element Radius
    1     7    1.70
    2    16    2.00
    3     6    1.50
    4     6    1.50
    5     6    1.50
    6     8    1.70
    7     6    1.50
    8     6    1.50
    9     6    1.50
   10     7    1.70
   11     1    1.45
   12     1    1.45
   13     1    1.45
   14     1    1.45
   15     1    1.45
   16     1    1.45
   17     1    1.45
   18     1    1.45
   19     1    1.45
   20     1    1.45
 Generate Potential Derived Charges using the Breneman model, NDens= 1.
 Grid spacing= 0.300 Box extension= 2.800
 NStep X,Y,Z=   40     37     32   Total possible points=       47360
 Number of Points to Fit=   13659

 **********************************************************************

            Electrostatic Properties Using The SCF Density.

 **********************************************************************

       Atomic Center    1 is at  -2.144340 -1.149603 -0.782421
       Atomic Center    2 is at  -1.365726  0.031099 -0.149660
       Atomic Center    3 is at   0.377203 -0.266712 -0.070397
       Atomic Center    4 is at   1.437235  0.603064  0.009760
       Atomic Center    5 is at   1.559599  2.074228  0.052806
       Atomic Center    6 is at   2.574751 -0.120979  0.046609
       Atomic Center    7 is at   2.258391 -1.436351 -0.008710
       Atomic Center    8 is at   0.911946 -1.595388 -0.082584
       Atomic Center    9 is at  -1.835280 -0.166006  1.574052
       Atomic Center   10 is at  -1.426643  1.501401 -0.640295
       Atomic Center   11 is at  -1.987982 -1.108160 -1.794207
       Atomic Center   12 is at   2.174585  2.432398 -0.787267
       Atomic Center   13 is at   2.046831  2.399151  0.985659
       Atomic Center   14 is at   0.554900  2.507087 -0.029289
       Atomic Center   15 is at   3.093682 -2.131048  0.003800
       Atomic Center   16 is at   0.339749 -2.517012 -0.158687
       Atomic Center   17 is at  -1.577087 -1.176234  1.913575
       Atomic Center   18 is at  -1.310748  0.605241  2.150796
       Atomic Center   19 is at  -2.923262 -0.020806  1.607510
       Atomic Center   20 is at  -2.414748  1.740035 -0.760753
   13659 points will be used for fitting atomic charges
 Fitting point charges to electrostatic potential
 Charges from ESP fit, RMS=   0.00294 RRMS=   0.22531:
 ESP charges:
               1
     1  N   -0.759391
     2  S    0.735093
     3  C   -0.059593
     4  C    0.315674
     5  C   -0.374624
     6  O   -0.176007
     7  C   -0.081533
     8  C   -0.214185
     9  C   -0.283691
    10  N   -0.809409
    11  H    0.317939
    12  H    0.117257
    13  H    0.103504
    14  H    0.157683
    15  H    0.159930
    16  H    0.159505
    17  H    0.119583
    18  H    0.088380
    19  H    0.139243
    20  H    0.344641
 Sum of ESP charges =   0.00000
 ESP charges with hydrogens summed into heavy atoms:
               1
     1  N   -0.441452
     2  S    0.735093
     3  C   -0.059593
     4  C    0.315674
     5  C    0.003821
     6  O   -0.176007
     7  C    0.078398
     8  C   -0.054680
     9  C    0.063516
    10  N   -0.464768
 Charge=   0.00000 Dipole=     1.1610    -0.0918     1.6526 Tot=     2.0217
 -----------------------------------------------------------------

              Electrostatic Properties (Atomic Units)

 -----------------------------------------------------------------
    Center     Electric         -------- Electric Field --------
               Potential          X             Y             Z
 -----------------------------------------------------------------
    1 Atom    -18.428637
    2 Atom    -59.071539
    3 Atom    -14.740021
    4 Atom    -14.688473
    5 Atom    -14.760180
    6 Atom    -22.266198
    7 Atom    -14.707128
    8 Atom    -14.753913
    9 Atom    -14.737130
   10 Atom    -18.426627
   11 Atom     -1.054222
   12 Atom     -1.099714
   13 Atom     -1.098960
   14 Atom     -1.107021
   15 Atom     -1.066628
   16 Atom     -1.077623
   17 Atom     -1.078429
   18 Atom     -1.079186
   19 Atom     -1.076562
   20 Atom     -1.049932
 -----------------------------------------------------------------
 Unable to Open any file for archive entry.
 1\1\GINC-NOTCH024\SP\RPBE1PBE\def2TZVP\C6H10N2O1S1\U1414944\24-Feb-202
 5\0\\#N Guess=Read Geom=Check Integral(Ultrafine) Density Pop=(ChelpG,
 ReadRadii) NMR pbe1pbe EmpiricalDispersion=GD3BJ def2TZVP\\SDI0291_1\\
 0,1\N,0,-2.1379530143,1.2033771137,0.7461346671\S,0,-1.3908573592,0.00
 73523895,0.1042192918\C,0,0.3633179037,0.2403313146,0.0672838806\C,0,1
 .3914249476,-0.6672256015,-0.0097773098\C,0,1.459371352,-2.1407640496,
 -0.0820094462\O,0,2.5558457244,0.0136994599,-0.007586027\C,0,2.2879731
 001,1.3387051031,0.0695612872\C,0,0.9471754846,1.547198081,0.119121013
 1\C,0,-1.815721412,0.2579102261,-1.6241406356\N,0,-1.5173986946,-1.469
 4482654,0.5616769623\H,0,-2.0049297499,1.1350193801,1.7597956856\H,0,2
 .0423779375,-2.5394051949,0.7626237486\H,0,1.9538964813,-2.4645121837,
 -1.0114269828\H,0,0.4376073483,-2.5367630216,-0.029961958\H,0,3.148828
 9876,2.0012849552,0.0892284766\H,0,0.4084811968,2.4881104426,0.2032880
 112\H,0,-1.5125890158,1.2644372069,-1.9364143375\H,0,-1.308298202,-0.5
 2055685,-2.2064633144\H,0,-2.9074231347,0.1548648739,-1.6831063842\H,0
 ,-2.5161143342,-1.6728311852,0.6566002069\\Version=ES64L-G16RevC.01\St
 ate=1-A\HF=-817.0314907\RMSD=2.624e-09\Dipole=0.4652644,0.0197557,-0.6
 43319\Quadrupole=-0.0537174,-0.882887,0.9366044,3.4684845,2.0904538,0.
 7743784\PG=C01 [X(C6H10N2O1S1)]\\@
 The archive entry for this job was punched.


 FAULTILY FAULTLESS, ICILY REGULAR, SPLENDIDLY NULL...
           MAUDE BY TENNYSON
 Job cpu time:       0 days  0 hours 19 minutes 49.4 seconds.
 Elapsed time:       0 days  0 hours  1 minutes 21.2 seconds.
 File lengths (MBytes):  RWF=     97 Int=      0 D2E=      0 Chk=     14 Scr=      2
 Normal termination of Gaussian 16 at Mon Feb 24 19:57:26 2025.
