 Entering Gaussian System, Link 0=g16
 Input=SDI0291_2.com
 Output=SDI0291_2.log
 Initial command:
 /uufs/chpc.utah.edu/sys/installdir/gaussian16/C01/AVX/g16/l1.exe "/scratch/general/vast/u1414944/3351095-notchpeak.peaks/Gau-1352145.inp" -scrdir="/scratch/general/vast/u1414944/3351095-notchpeak.peaks/"
 Entering Link 1 = /uufs/chpc.utah.edu/sys/installdir/gaussian16/C01/AVX/g16/l1.exe PID=   1352146.
  
 Copyright (c) 1988-2019, Gaussian, Inc.  All Rights Reserved.
  
 This is part of the Gaussian(R) 16 program.  It is based on
 the Gaussian(R) 09 system (copyright 2009, Gaussian, Inc.),
 the Gaussian(R) 03 system (copyright 2003, Gaussian, Inc.),
 the Gaussian(R) 98 system (copyright 1998, Gaussian, Inc.),
 the Gaussian(R) 94 system (copyright 1995, Gaussian, Inc.),
 the Gaussian 92(TM) system (copyright 1992, Gaussian, Inc.),
 the Gaussian 90(TM) system (copyright 1990, Gaussian, Inc.),
 the Gaussian 88(TM) system (copyright 1988, Gaussian, Inc.),
 the Gaussian 86(TM) system (copyright 1986, Carnegie Mellon
 University), and the Gaussian 82(TM) system (copyright 1983,
 Carnegie Mellon University). Gaussian is a federally registered
 trademark of Gaussian, Inc.
  
 This software contains proprietary and confidential information,
 including trade secrets, belonging to Gaussian, Inc.
  
 This software is provided under written license and may be
 used, copied, transmitted, or stored only in accord with that
 written license.
  
 The following legend is applicable only to US Government
 contracts under FAR:
  
                    RESTRICTED RIGHTS LEGEND
  
 Use, reproduction and disclosure by the US Government is
 subject to restrictions as set forth in subparagraphs (a)
 and (c) of the Commercial Computer Software - Restricted
 Rights clause in FAR 52.227-19.
  
 Gaussian, Inc.
 340 Quinnipiac St., Bldg. 40, Wallingford CT 06492
  
  
 ---------------------------------------------------------------
 Warning -- This program may not be used in any manner that
 competes with the business of Gaussian, Inc. or will provide
 assistance to any competitor of Gaussian, Inc.  The licensee
 of this program is prohibited from giving any competitor of
 Gaussian, Inc. access to this program.  By using this program,
 the user acknowledges that Gaussian, Inc. is engaged in the
 business of creating and licensing software in the field of
 computational chemistry and represents and warrants to the
 licensee that it is not a competitor of Gaussian, Inc. and that
 it will not use this program in any manner prohibited above.
 ---------------------------------------------------------------
  

 Cite this work as:
 Gaussian 16, Revision C.01,
 M. J. Frisch, G. W. Trucks, H. B. Schlegel, G. E. Scuseria, 
 M. A. Robb, J. R. Cheeseman, G. Scalmani, V. Barone, 
 G. A. Petersson, H. Nakatsuji, X. Li, M. Caricato, A. V. Marenich, 
 J. Bloino, B. G. Janesko, R. Gomperts, B. Mennucci, H. P. Hratchian, 
 J. V. Ortiz, A. F. Izmaylov, J. L. Sonnenberg, D. Williams-Young, 
 F. Ding, F. Lipparini, F. Egidi, J. Goings, B. Peng, A. Petrone, 
 T. Henderson, D. Ranasinghe, V. G. Zakrzewski, J. Gao, N. Rega, 
 G. Zheng, W. Liang, M. Hada, M. Ehara, K. Toyota, R. Fukuda, 
 J. Hasegawa, M. Ishida, T. Nakajima, Y. Honda, O. Kitao, H. Nakai, 
 T. Vreven, K. Throssell, J. A. Montgomery, Jr., J. E. Peralta, 
 F. Ogliaro, M. J. Bearpark, J. J. Heyd, E. N. Brothers, K. N. Kudin, 
 V. N. Staroverov, T. A. Keith, R. Kobayashi, J. Normand, 
 K. Raghavachari, A. P. Rendell, J. C. Burant, S. S. Iyengar, 
 J. Tomasi, M. Cossi, J. M. Millam, M. Klene, C. Adamo, R. Cammi, 
 J. W. Ochterski, R. L. Martin, K. Morokuma, O. Farkas, 
 J. B. Foresman, and D. J. Fox, Gaussian, Inc., Wallingford CT, 2019.
 
 ******************************************
 Gaussian 16:  ES64L-G16RevC.01  3-Jul-2019
                24-Feb-2025 
 ******************************************
 %NProcShared=16
 Will use up to   16 processors via shared memory.
 %Mem=40GB
 %chk=SDI0291_2.chk
 ----------------------------------------------------------------------
 #N OPT FREQ=NORAMAN Integral(Ultrafine) pbe1pbe EmpiricalDispersion=GD
 3BJ def2SVP
 ----------------------------------------------------------------------
 1/18=20,19=15,26=4,38=1/1,3;
 2/9=110,12=2,17=6,18=5,40=1/2;
 3/5=43,7=101,11=2,25=1,30=1,71=1,74=-13,75=-5,124=41/1,2,3;
 4//1;
 5/5=2,38=5/2;
 6/7=2,8=2,9=2,10=2,28=1/1;
 7//1,2,3,16;
 1/18=20,19=15,26=4/3(2);
 2/9=110/2;
 99//99;
 2/9=110/2;
 3/5=43,7=101,11=2,25=1,30=1,71=1,74=-13,75=-5,124=41/1,2,3;
 4/5=5,16=3,69=1/1;
 5/5=2,38=5/2;
 7//1,2,3,16;
 1/18=20,19=15,26=4/3(-5);
 2/9=110/2;
 6/7=2,8=2,9=2,10=2,19=2,28=1/1;
 99/9=1/99;
 ---------
 SDI0291_2
 ---------
 Symbolic Z-matrix:
 Charge =  0 Multiplicity = 1
 N                    -1.9355    1.25402   0.77334 
 S                    -1.37525  -0.01799   0.12251 
 C                     0.37157   0.33193   0.08542 
 C                     1.37598  -0.58255  -0.07568 
 C                     1.31624  -2.05098  -0.27601 
 O                     2.56629   0.04672  -0.03425 
 C                     2.32593   1.36112   0.15904 
 C                     0.99257   1.59846   0.24244 
 C                    -1.68518  -0.13762  -1.67749 
 N                    -1.7042   -1.45364   0.5744 
 H                    -2.88386   1.16551   1.09939 
 H                     2.02025  -2.55039   0.38678 
 H                     1.57971  -2.31114  -1.3014 
 H                     0.3035   -2.38833  -0.06439 
 H                     3.1787    2.00701   0.21939 
 H                     0.4816    2.5231    0.40316 
 H                    -1.3743    0.79104  -2.1407 
 H                    -1.11489  -0.97897  -2.04772 
 H                    -2.74434  -0.30912  -1.82738 
 H                    -1.833    -1.54493   1.56918 
 

 GradGradGradGradGradGradGradGradGradGradGradGradGradGradGradGradGradGrad
 Berny optimization.
 Initialization pass.
                           ----------------------------
                           !    Initial Parameters    !
                           ! (Angstroms and Degrees)  !
 --------------------------                            --------------------------
 ! Name  Definition              Value          Derivative Info.                !
 --------------------------------------------------------------------------------
 ! R1    R(1,2)                  1.5348         estimate D2E/DX2                !
 ! R2    R(1,11)                 1.0067         estimate D2E/DX2                !
 ! R3    R(2,3)                  1.7819         estimate D2E/DX2                !
 ! R4    R(2,9)                  1.8304         estimate D2E/DX2                !
 ! R5    R(2,10)                 1.5406         estimate D2E/DX2                !
 ! R6    R(3,4)                  1.3679         estimate D2E/DX2                !
 ! R7    R(3,8)                  1.4193         estimate D2E/DX2                !
 ! R8    R(4,5)                  1.4832         estimate D2E/DX2                !
 ! R9    R(4,6)                  1.347          estimate D2E/DX2                !
 ! R10   R(5,12)                 1.0883         estimate D2E/DX2                !
 ! R11   R(5,13)                 1.0902         estimate D2E/DX2                !
 ! R12   R(5,14)                 1.0882         estimate D2E/DX2                !
 ! R13   R(6,7)                  1.3501         estimate D2E/DX2                !
 ! R14   R(7,8)                  1.3569         estimate D2E/DX2                !
 ! R15   R(7,15)                 1.0715         estimate D2E/DX2                !
 ! R16   R(8,16)                 1.0686         estimate D2E/DX2                !
 ! R17   R(9,17)                 1.0833         estimate D2E/DX2                !
 ! R18   R(9,18)                 1.0817         estimate D2E/DX2                !
 ! R19   R(9,19)                 1.0834         estimate D2E/DX2                !
 ! R20   R(10,20)                1.0072         estimate D2E/DX2                !
 ! A1    A(2,1,11)             114.1006         estimate D2E/DX2                !
 ! A2    A(1,2,3)              101.7664         estimate D2E/DX2                !
 ! A3    A(1,2,9)              114.1655         estimate D2E/DX2                !
 ! A4    A(1,2,10)             124.7509         estimate D2E/DX2                !
 ! A5    A(3,2,9)               99.1114         estimate D2E/DX2                !
 ! A6    A(3,2,10)             113.4791         estimate D2E/DX2                !
 ! A7    A(9,2,10)             101.0338         estimate D2E/DX2                !
 ! A8    A(2,3,4)              126.2276         estimate D2E/DX2                !
 ! A9    A(2,3,8)              127.0036         estimate D2E/DX2                !
 ! A10   A(4,3,8)              106.7579         estimate D2E/DX2                !
 ! A11   A(3,4,5)              130.406          estimate D2E/DX2                !
 ! A12   A(3,4,6)              109.4463         estimate D2E/DX2                !
 ! A13   A(5,4,6)              120.1475         estimate D2E/DX2                !
 ! A14   A(4,5,12)             110.2431         estimate D2E/DX2                !
 ! A15   A(4,5,13)             110.7049         estimate D2E/DX2                !
 ! A16   A(4,5,14)             108.5498         estimate D2E/DX2                !
 ! A17   A(12,5,13)            107.877          estimate D2E/DX2                !
 ! A18   A(12,5,14)            109.9588         estimate D2E/DX2                !
 ! A19   A(13,5,14)            109.5017         estimate D2E/DX2                !
 ! A20   A(4,6,7)              107.5704         estimate D2E/DX2                !
 ! A21   A(6,7,8)              110.7345         estimate D2E/DX2                !
 ! A22   A(6,7,15)             116.9514         estimate D2E/DX2                !
 ! A23   A(8,7,15)             132.314          estimate D2E/DX2                !
 ! A24   A(3,8,7)              105.4898         estimate D2E/DX2                !
 ! A25   A(3,8,16)             125.4201         estimate D2E/DX2                !
 ! A26   A(7,8,16)             129.0862         estimate D2E/DX2                !
 ! A27   A(2,9,17)             108.4125         estimate D2E/DX2                !
 ! A28   A(2,9,18)             107.346          estimate D2E/DX2                !
 ! A29   A(2,9,19)             108.1765         estimate D2E/DX2                !
 ! A30   A(17,9,18)            111.6597         estimate D2E/DX2                !
 ! A31   A(17,9,19)            110.9216         estimate D2E/DX2                !
 ! A32   A(18,9,19)            110.178          estimate D2E/DX2                !
 ! A33   A(2,10,20)            113.6696         estimate D2E/DX2                !
 ! D1    D(11,1,2,3)          -165.2492         estimate D2E/DX2                !
 ! D2    D(11,1,2,9)            89.0417         estimate D2E/DX2                !
 ! D3    D(11,1,2,10)          -35.4711         estimate D2E/DX2                !
 ! D4    D(1,2,3,4)            162.1155         estimate D2E/DX2                !
 ! D5    D(1,2,3,8)            -16.5254         estimate D2E/DX2                !
 ! D6    D(9,2,3,4)            -80.6965         estimate D2E/DX2                !
 ! D7    D(9,2,3,8)            100.6626         estimate D2E/DX2                !
 ! D8    D(10,2,3,4)            25.6232         estimate D2E/DX2                !
 ! D9    D(10,2,3,8)          -153.0177         estimate D2E/DX2                !
 ! D10   D(1,2,9,17)            50.2356         estimate D2E/DX2                !
 ! D11   D(1,2,9,18)           171.0008         estimate D2E/DX2                !
 ! D12   D(1,2,9,19)           -70.1239         estimate D2E/DX2                !
 ! D13   D(3,2,9,17)           -57.1215         estimate D2E/DX2                !
 ! D14   D(3,2,9,18)            63.6437         estimate D2E/DX2                !
 ! D15   D(3,2,9,19)          -177.481          estimate D2E/DX2                !
 ! D16   D(10,2,9,17)         -173.3772         estimate D2E/DX2                !
 ! D17   D(10,2,9,18)          -52.6119         estimate D2E/DX2                !
 ! D18   D(10,2,9,19)           66.2634         estimate D2E/DX2                !
 ! D19   D(1,2,10,20)          -34.6286         estimate D2E/DX2                !
 ! D20   D(3,2,10,20)           90.2572         estimate D2E/DX2                !
 ! D21   D(9,2,10,20)         -164.6371         estimate D2E/DX2                !
 ! D22   D(2,3,4,5)              0.9625         estimate D2E/DX2                !
 ! D23   D(2,3,4,6)           -179.2068         estimate D2E/DX2                !
 ! D24   D(8,3,4,5)            179.8291         estimate D2E/DX2                !
 ! D25   D(8,3,4,6)             -0.3403         estimate D2E/DX2                !
 ! D26   D(2,3,8,7)            179.1304         estimate D2E/DX2                !
 ! D27   D(2,3,8,16)            -0.2064         estimate D2E/DX2                !
 ! D28   D(4,3,8,7)              0.2753         estimate D2E/DX2                !
 ! D29   D(4,3,8,16)          -179.0615         estimate D2E/DX2                !
 ! D30   D(3,4,5,12)          -132.8427         estimate D2E/DX2                !
 ! D31   D(3,4,5,13)           107.8718         estimate D2E/DX2                !
 ! D32   D(3,4,5,14)           -12.345          estimate D2E/DX2                !
 ! D33   D(6,4,5,12)            47.342          estimate D2E/DX2                !
 ! D34   D(6,4,5,13)           -71.9435         estimate D2E/DX2                !
 ! D35   D(6,4,5,14)           167.8397         estimate D2E/DX2                !
 ! D36   D(3,4,6,7)              0.271          estimate D2E/DX2                !
 ! D37   D(5,4,6,7)           -179.8781         estimate D2E/DX2                !
 ! D38   D(4,6,7,8)             -0.0901         estimate D2E/DX2                !
 ! D39   D(4,6,7,15)           179.7996         estimate D2E/DX2                !
 ! D40   D(6,7,8,3)             -0.1168         estimate D2E/DX2                !
 ! D41   D(6,7,8,16)           179.187          estimate D2E/DX2                !
 ! D42   D(15,7,8,3)          -179.9838         estimate D2E/DX2                !
 ! D43   D(15,7,8,16)           -0.6801         estimate D2E/DX2                !
 --------------------------------------------------------------------------------
 Trust Radius=3.00D-01 FncErr=1.00D-07 GrdErr=1.00D-06 EigMax=2.50D+02 EigMin=1.00D-04
 Number of steps in this run=    106 maximum allowed number of steps=    120.
 GradGradGradGradGradGradGradGradGradGradGradGradGradGradGradGradGradGrad

                          Input orientation:                          
 ---------------------------------------------------------------------
 Center     Atomic      Atomic             Coordinates (Angstroms)
 Number     Number       Type             X           Y           Z
 ---------------------------------------------------------------------
      1          7           0       -1.935500    1.254021    0.773337
      2         16           0       -1.375250   -0.017992    0.122512
      3          6           0        0.371568    0.331934    0.085421
      4          6           0        1.375984   -0.582548   -0.075676
      5          6           0        1.316241   -2.050981   -0.276011
      6          8           0        2.566289    0.046715   -0.034250
      7          6           0        2.325927    1.361119    0.159044
      8          6           0        0.992574    1.598464    0.242440
      9          6           0       -1.685181   -0.137625   -1.677489
     10          7           0       -1.704196   -1.453640    0.574404
     11          1           0       -2.883860    1.165505    1.099386
     12          1           0        2.020255   -2.550388    0.386777
     13          1           0        1.579713   -2.311140   -1.301402
     14          1           0        0.303503   -2.388334   -0.064393
     15          1           0        3.178703    2.007006    0.219387
     16          1           0        0.481598    2.523100    0.403161
     17          1           0       -1.374299    0.791045   -2.140699
     18          1           0       -1.114892   -0.978970   -2.047725
     19          1           0       -2.744342   -0.309122   -1.827381
     20          1           0       -1.832998   -1.544934    1.569178
 ---------------------------------------------------------------------
                    Distance matrix (angstroms):
                    1          2          3          4          5
     1  N    0.000000
     2  S    1.534754   0.000000
     3  C    2.577990   1.781908   0.000000
     4  C    3.880687   2.815544   1.367875   0.000000
     5  C    4.753733   3.396466   2.588691   1.483239   0.000000
     6  O    4.730316   3.945186   2.216410   1.347040   2.453854
     7  C    4.306807   3.949936   2.210014   2.176081   3.584852
     8  C    2.995681   2.869477   1.419296   2.237189   3.700270
     9  C    2.829467   1.830402   2.749283   3.483460   3.825389
    10  N    2.724794   1.540616   2.781398   3.266330   3.194222
    11  H    1.006743   2.151942   3.510097   4.752129   5.466109
    12  H    5.501904   4.244092   3.334181   2.121637   1.088270
    13  H    5.419560   4.002233   3.220051   2.128835   1.090196
    14  H    4.356796   2.910612   2.725240   2.100286   1.088222
    15  H    5.198934   4.984826   3.271670   3.169014   4.492376
    16  H    2.754987   3.159714   2.216816   3.267149   4.698948
    17  H    3.003481   2.403470   2.866086   3.703395   4.335110
    18  H    3.690262   2.387717   2.911759   3.201654   3.193522
    19  H    3.140283   2.400261   3.711962   4.485568   4.682857
    20  H    2.911703   2.152656   3.253349   3.732197   3.684903
                    6          7          8          9         10
     6  O    0.000000
     7  C    1.350109   0.000000
     8  C    2.227344   1.356879   0.000000
     9  C    4.561712   4.659193   3.724312   0.000000
    10  N    4.567118   4.933283   4.086331   2.608309   0.000000
    11  H    5.678112   5.297584   3.993563   3.293328   2.920126
    12  H    2.687073   3.930037   4.276673   4.879844   3.887106
    13  H    2.852803   4.021843   4.244194   3.940196   3.877888
    14  H    3.324240   4.265972   4.057526   3.409198   2.304901
    15  H    2.069329   1.071465   2.224095   5.644019   5.995399
    16  H    3.266458   2.193478   1.068588   4.012916   4.541088
    17  H    4.529834   4.393801   3.454471   1.083346   3.538252
    18  H    4.319398   4.710104   4.040969   1.081742   2.729130
    19  H    5.616471   5.695895   4.678417   1.083374   2.856641
    20  H    4.945509   5.265955   4.430016   3.541640   1.007224
                   11         12         13         14         15
    11  H    0.000000
    12  H    6.194031   0.000000
    13  H    6.146083   1.761041   0.000000
    14  H    4.913597   1.782429   1.779006   0.000000
    15  H    6.183623   4.705302   4.849325   5.259878   0.000000
    16  H    3.695145   5.301699   5.242258   4.936852   2.752181
    17  H    3.594043   5.392245   4.365107   4.151447   5.270522
    18  H    4.199086   4.269110   3.097188   2.816337   5.700071
    19  H    3.280237   5.712018   4.793974   4.089084   6.681031
    20  H    2.944741   4.154103   4.524810   2.818602   6.289305
                   16         17         18         19         20
    16  H    0.000000
    17  H    3.593828   0.000000
    18  H    4.562906   1.791337   0.000000
    19  H    4.837715   1.784812   1.775487   0.000000
    20  H    4.823468   4.407992   3.730680   3.727518   0.000000
 Stoichiometry    C6H10N2OS
 Framework group  C1[X(C6H10N2OS)]
 Deg. of freedom    54
 Full point group                 C1      NOp   1
 Largest Abelian subgroup         C1      NOp   1
 Largest concise Abelian subgroup C1      NOp   1
                         Standard orientation:                         
 ---------------------------------------------------------------------
 Center     Atomic      Atomic             Coordinates (Angstroms)
 Number     Number       Type             X           Y           Z
 ---------------------------------------------------------------------
      1          7           0       -1.815277   -1.533234   -0.552942
      2         16           0       -1.356120   -0.129043   -0.137140
      3          6           0        0.411197   -0.337086   -0.044931
      4          6           0        1.344283    0.663117   -0.049997
      5          6           0        1.175146    2.135453   -0.110134
      6          8           0        2.577846    0.125978    0.015719
      7          6           0        2.436343   -1.216069    0.056747
      8          6           0        1.124843   -1.562164    0.020611
      9          6           0       -1.691538    0.280800    1.614972
     10          7           0       -1.784955    1.176984   -0.832763
     11          1           0       -2.764347   -1.573480   -0.886375
     12          1           0        1.847108    2.561657   -0.852528
     13          1           0        1.408827    2.589930    0.852868
     14          1           0        0.142525    2.354797   -0.374346
     15          1           0        3.334702   -1.797770    0.107853
     16          1           0        0.684588   -2.535829    0.026223
     17          1           0       -1.317978   -0.526843    2.232874
     18          1           0       -1.188073    1.213771    1.830041
     19          1           0       -2.761830    0.397204    1.735905
     20          1           0       -1.910386    1.082861   -1.827704
 ---------------------------------------------------------------------
 Rotational constants (GHZ):           1.9444502           0.9727614           0.7740341
 Standard basis: def2SVP (5D, 7F)
 There are   204 symmetry adapted cartesian basis functions of A   symmetry.
 There are   194 symmetry adapted basis functions of A   symmetry.
   194 basis functions,   332 primitive gaussians,   204 cartesian basis functions
    42 alpha electrons       42 beta electrons
       nuclear repulsion energy       661.4535137598 Hartrees.
 NAtoms=   20 NActive=   20 NUniq=   20 SFac= 1.00D+00 NAtFMM=   60 NAOKFM=F Big=F
 Integral buffers will be    131072 words long.
 Raffenetti 2 integral format.
 Two-electron integral symmetry is turned on.
 Nuclear repulsion after empirical dispersion term =      661.4329507939 Hartrees.
 One-electron integrals computed using PRISM.
   1 Symmetry operations used in ECPInt.
 ECPInt:  NShTT=    4278 NPrTT=   15746 LenC2=    4223 LenP2D=   12010.
 LDataN:  DoStor=T MaxTD1= 4 Len=   56
 NBasis=   194 RedAO= T EigKep=  5.01D-04  NBF=   194
 NBsUse=   194 1.00D-06 EigRej= -1.00D+00 NBFU=   194
 ExpMin= 1.22D-01 ExpMax= 9.18D+03 ExpMxC= 1.38D+03 IAcc=3 IRadAn=         5 AccDes= 0.00D+00
 Harris functional with IExCor= 1009 and IRadAn=       5 diagonalized for initial guess.
 HarFok:  IExCor= 1009 AccDes= 0.00D+00 IRadAn=         5 IDoV= 1 UseB2=F ITyADJ=14
 ICtDFT=  3500011 ScaDFX=  1.000000  1.000000  1.000000  1.000000
 FoFCou: FMM=F IPFlag=           0 FMFlag=      100000 FMFlg1=           0
         NFxFlg=           0 DoJE=T BraDBF=F KetDBF=T FulRan=T
         wScrn=  0.000000 ICntrl=       500 IOpCl=  0 I1Cent=   200000004 NGrid=           0
         NMat0=    1 NMatS0=      1 NMatT0=    0 NMatD0=    1 NMtDS0=    0 NMtDT0=    0
 Petite list used in FoFCou.
 Requested convergence on RMS density matrix=1.00D-08 within 128 cycles.
 Requested convergence on MAX density matrix=1.00D-06.
 Requested convergence on             energy=1.00D-06.
 No special actions if energy rises.
 Integral accuracy reduced to 1.0D-05 until final iterations.
 Initial convergence to 1.0D-05 achieved.  Increase integral accuracy.
 SCF Done:  E(RPBE1PBE) =  -816.386077789     A.U. after   13 cycles
            NFock= 13  Conv=0.97D-08     -V/T= 2.0057

 **********************************************************************

            Population analysis using the SCF Density.

 **********************************************************************

 Orbital symmetries:
       Occupied  (A) (A) (A) (A) (A) (A) (A) (A) (A) (A) (A) (A)
                 (A) (A) (A) (A) (A) (A) (A) (A) (A) (A) (A) (A)
                 (A) (A) (A) (A) (A) (A) (A) (A) (A) (A) (A) (A)
                 (A) (A) (A) (A) (A) (A)
       Virtual   (A) (A) (A) (A) (A) (A) (A) (A) (A) (A) (A) (A)
                 (A) (A) (A) (A) (A) (A) (A) (A) (A) (A) (A) (A)
                 (A) (A) (A) (A) (A) (A) (A) (A) (A) (A) (A) (A)
                 (A) (A) (A) (A) (A) (A) (A) (A) (A) (A) (A) (A)
                 (A) (A) (A) (A) (A) (A) (A) (A) (A) (A) (A) (A)
                 (A) (A) (A) (A) (A) (A) (A) (A) (A) (A) (A) (A)
                 (A) (A) (A) (A) (A) (A) (A) (A) (A) (A) (A) (A)
                 (A) (A) (A) (A) (A) (A) (A) (A) (A) (A) (A) (A)
                 (A) (A) (A) (A) (A) (A) (A) (A) (A) (A) (A) (A)
                 (A) (A) (A) (A) (A) (A) (A) (A) (A) (A) (A) (A)
                 (A) (A) (A) (A) (A) (A) (A) (A) (A) (A) (A) (A)
                 (A) (A) (A) (A) (A) (A) (A) (A) (A) (A) (A) (A)
                 (A) (A) (A) (A) (A) (A) (A) (A)
 The electronic state is 1-A.
 Alpha  occ. eigenvalues --  -89.18664 -19.29194 -14.34393 -14.34379 -10.30536
 Alpha  occ. eigenvalues --  -10.28698 -10.25624 -10.24964 -10.23873 -10.23627
 Alpha  occ. eigenvalues --   -8.15986  -6.10125  -6.10039  -6.09994  -1.15373
 Alpha  occ. eigenvalues --   -1.00491  -0.85272  -0.83670  -0.80795  -0.76433
 Alpha  occ. eigenvalues --   -0.71310  -0.67022  -0.61758  -0.57294  -0.54738
 Alpha  occ. eigenvalues --   -0.52482  -0.49934  -0.47747  -0.46786  -0.45674
 Alpha  occ. eigenvalues --   -0.43866  -0.42740  -0.42483  -0.42170  -0.41189
 Alpha  occ. eigenvalues --   -0.39113  -0.34465  -0.30936  -0.26990  -0.25741
 Alpha  occ. eigenvalues --   -0.24613  -0.24111
 Alpha virt. eigenvalues --    0.00048   0.03858   0.06570   0.07991   0.08799
 Alpha virt. eigenvalues --    0.09729   0.10494   0.11552   0.12172   0.13098
 Alpha virt. eigenvalues --    0.13811   0.14619   0.16029   0.16752   0.17397
 Alpha virt. eigenvalues --    0.17970   0.21161   0.24331   0.25657   0.31615
 Alpha virt. eigenvalues --    0.34075   0.37995   0.38471   0.40265   0.41960
 Alpha virt. eigenvalues --    0.44254   0.44786   0.47529   0.48851   0.50096
 Alpha virt. eigenvalues --    0.50593   0.51704   0.54839   0.56902   0.58396
 Alpha virt. eigenvalues --    0.58721   0.60553   0.61633   0.62295   0.63982
 Alpha virt. eigenvalues --    0.66830   0.67055   0.67715   0.68454   0.68535
 Alpha virt. eigenvalues --    0.69959   0.70827   0.71863   0.72573   0.73372
 Alpha virt. eigenvalues --    0.74628   0.76324   0.77948   0.78955   0.83666
 Alpha virt. eigenvalues --    0.83698   0.84894   0.87259   0.89424   0.90691
 Alpha virt. eigenvalues --    0.94139   0.95250   0.96142   0.99571   1.03008
 Alpha virt. eigenvalues --    1.04143   1.07010   1.07471   1.11586   1.12505
 Alpha virt. eigenvalues --    1.16244   1.17838   1.20735   1.22828   1.24331
 Alpha virt. eigenvalues --    1.26843   1.31961   1.33512   1.36349   1.37604
 Alpha virt. eigenvalues --    1.45525   1.47343   1.49208   1.50887   1.51415
 Alpha virt. eigenvalues --    1.52325   1.54807   1.55761   1.61128   1.61534
 Alpha virt. eigenvalues --    1.64736   1.67468   1.69215   1.72807   1.76792
 Alpha virt. eigenvalues --    1.77991   1.80547   1.80686   1.82429   1.83423
 Alpha virt. eigenvalues --    1.84480   1.85471   1.87283   1.90507   1.95643
 Alpha virt. eigenvalues --    1.98837   1.99885   2.01981   2.03367   2.07130
 Alpha virt. eigenvalues --    2.10328   2.14929   2.15757   2.17106   2.22283
 Alpha virt. eigenvalues --    2.23410   2.26305   2.26584   2.32672   2.33410
 Alpha virt. eigenvalues --    2.36179   2.39731   2.43610   2.45341   2.46969
 Alpha virt. eigenvalues --    2.48646   2.52504   2.55451   2.57999   2.59302
 Alpha virt. eigenvalues --    2.60369   2.62811   2.67545   2.71776   2.74460
 Alpha virt. eigenvalues --    2.80817   2.84180   2.86514   2.88276   2.90310
 Alpha virt. eigenvalues --    2.94655   2.95422   2.95701   3.00274   3.01365
 Alpha virt. eigenvalues --    3.02736   3.16852   3.27985   3.29860   3.32263
 Alpha virt. eigenvalues --    3.50318   3.63047
          Condensed to atoms (all electrons):
               1          2          3          4          5          6
     1  N    6.872050   0.386355  -0.096510   0.004000  -0.000292  -0.000029
     2  S    0.386355  14.590094   0.106526  -0.058050  -0.005555   0.001695
     3  C   -0.096510   0.106526   5.793940   0.387728  -0.056706  -0.113855
     4  C    0.004000  -0.058050   0.387728   5.052278   0.411000   0.422482
     5  C   -0.000292  -0.005555  -0.056706   0.411000   4.542888  -0.039949
     6  O   -0.000029   0.001695  -0.113855   0.422482  -0.039949   7.686326
     7  C    0.000965   0.007703   0.026797  -0.188625   0.005201   0.331498
     8  C   -0.001315  -0.026328   0.279956   0.007812   0.010962  -0.041361
     9  C   -0.048716   0.313175  -0.124998  -0.010995  -0.001374  -0.000095
    10  N   -0.037923   0.343668  -0.052281   0.001592  -0.026939  -0.000005
    11  H    0.331674  -0.017630   0.011380  -0.000133   0.000025   0.000002
    12  H    0.000013   0.000305   0.008138  -0.012415   0.365886   0.000336
    13  H   -0.000002   0.000623   0.001283  -0.016799   0.372289  -0.000092
    14  H    0.000689  -0.001289  -0.020861   0.007527   0.363591   0.002380
    15  H   -0.000011  -0.000074   0.014892  -0.002128  -0.000549  -0.024842
    16  H    0.015300  -0.007874  -0.051701   0.016889  -0.000275   0.003343
    17  H    0.004039  -0.014842   0.004259  -0.000550   0.000050  -0.000001
    18  H    0.003353  -0.006604   0.002270   0.000985   0.002241   0.000020
    19  H    0.000545  -0.009261   0.008187   0.000406   0.000060   0.000001
    20  H   -0.001831  -0.007838  -0.002463  -0.001383   0.000700  -0.000004
               7          8          9         10         11         12
     1  N    0.000965  -0.001315  -0.048716  -0.037923   0.331674   0.000013
     2  S    0.007703  -0.026328   0.313175   0.343668  -0.017630   0.000305
     3  C    0.026797   0.279956  -0.124998  -0.052281   0.011380   0.008138
     4  C   -0.188625   0.007812  -0.010995   0.001592  -0.000133  -0.012415
     5  C    0.005201   0.010962  -0.001374  -0.026939   0.000025   0.365886
     6  O    0.331498  -0.041361  -0.000095  -0.000005   0.000002   0.000336
     7  C    4.899689   0.409407   0.000088   0.000052  -0.000021   0.000556
     8  C    0.409407   5.006876  -0.006916   0.002276  -0.000122  -0.000643
     9  C    0.000088  -0.006916   4.932401  -0.094538  -0.005224   0.000026
    10  N    0.000052   0.002276  -0.094538   6.901914  -0.000590   0.000506
    11  H   -0.000021  -0.000122  -0.005224  -0.000590   0.554387  -0.000001
    12  H    0.000556  -0.000643   0.000026   0.000506  -0.000001   0.612758
    13  H    0.000521  -0.000328   0.000236   0.000305  -0.000000  -0.020008
    14  H   -0.000331   0.000386  -0.001917   0.054585  -0.000041  -0.009285
    15  H    0.436326  -0.062672   0.000008   0.000001  -0.000000  -0.000001
    16  H   -0.060499   0.449042   0.000302   0.000100  -0.000384   0.000003
    17  H    0.000194   0.001895   0.364178   0.005892  -0.000119  -0.000005
    18  H   -0.000045   0.000498   0.353018   0.003209  -0.000023  -0.000051
    19  H   -0.000009   0.000031   0.362689   0.006910   0.001751   0.000002
    20  H   -0.000009  -0.000238   0.009036   0.323767   0.001582  -0.000039
              13         14         15         16         17         18
     1  N   -0.000002   0.000689  -0.000011   0.015300   0.004039   0.003353
     2  S    0.000623  -0.001289  -0.000074  -0.007874  -0.014842  -0.006604
     3  C    0.001283  -0.020861   0.014892  -0.051701   0.004259   0.002270
     4  C   -0.016799   0.007527  -0.002128   0.016889  -0.000550   0.000985
     5  C    0.372289   0.363591  -0.000549  -0.000275   0.000050   0.002241
     6  O   -0.000092   0.002380  -0.024842   0.003343  -0.000001   0.000020
     7  C    0.000521  -0.000331   0.436326  -0.060499   0.000194  -0.000045
     8  C   -0.000328   0.000386  -0.062672   0.449042   0.001895   0.000498
     9  C    0.000236  -0.001917   0.000008   0.000302   0.364178   0.353018
    10  N    0.000305   0.054585   0.000001   0.000100   0.005892   0.003209
    11  H   -0.000000  -0.000041  -0.000000  -0.000384  -0.000119  -0.000023
    12  H   -0.020008  -0.009285  -0.000001   0.000003  -0.000005  -0.000051
    13  H    0.619172  -0.014566   0.000014   0.000003   0.000015   0.000736
    14  H   -0.014566   0.558146   0.000021  -0.000041   0.000078   0.001170
    15  H    0.000014   0.000021   0.605899  -0.003160  -0.000006   0.000001
    16  H    0.000003  -0.000041  -0.003160   0.609505   0.000179  -0.000009
    17  H    0.000015   0.000078  -0.000006   0.000179   0.585423  -0.013619
    18  H    0.000736   0.001170   0.000001  -0.000009  -0.013619   0.585812
    19  H   -0.000065   0.000044  -0.000000  -0.000019  -0.011057  -0.006404
    20  H    0.000035  -0.002213   0.000000  -0.000003  -0.000411  -0.000801
              19         20
     1  N    0.000545  -0.001831
     2  S   -0.009261  -0.007838
     3  C    0.008187  -0.002463
     4  C    0.000406  -0.001383
     5  C    0.000060   0.000700
     6  O    0.000001  -0.000004
     7  C   -0.000009  -0.000009
     8  C    0.000031  -0.000238
     9  C    0.362689   0.009036
    10  N    0.006910   0.323767
    11  H    0.001751   0.001582
    12  H    0.000002  -0.000039
    13  H   -0.000065   0.000035
    14  H    0.000044  -0.002213
    15  H   -0.000000   0.000000
    16  H   -0.000019  -0.000003
    17  H   -0.011057  -0.000411
    18  H   -0.006404  -0.000801
    19  H    0.564628  -0.000493
    20  H   -0.000493   0.557431
 Mulliken charges:
               1
     1  N   -0.432354
     2  S    0.405202
     3  C   -0.125981
     4  C   -0.021622
     5  C    0.056747
     6  O   -0.227852
     7  C    0.130541
     8  C   -0.029219
     9  C   -0.040386
    10  N   -0.432501
    11  H    0.123487
    12  H    0.053921
    13  H    0.056629
    14  H    0.061926
    15  H    0.036283
    16  H    0.029300
    17  H    0.074407
    18  H    0.074242
    19  H    0.082055
    20  H    0.125174
 Sum of Mulliken charges =  -0.00000
 Mulliken charges with hydrogens summed into heavy atoms:
               1
     1  N   -0.308867
     2  S    0.405202
     3  C   -0.125981
     4  C   -0.021622
     5  C    0.229222
     6  O   -0.227852
     7  C    0.166824
     8  C    0.000082
     9  C    0.190318
    10  N   -0.307327
 Electronic spatial extent (au):  <R**2>=           1584.2537
 Charge=             -0.0000 electrons
 Dipole moment (field-independent basis, Debye):
    X=              0.5015    Y=              0.2495    Z=              1.1081  Tot=              1.2416
 Quadrupole moment (field-independent basis, Debye-Ang):
   XX=            -62.9454   YY=            -69.0354   ZZ=            -63.4660
   XY=              0.1701   XZ=             -0.6676   YZ=             -0.4426
 Traceless Quadrupole moment (field-independent basis, Debye-Ang):
   XX=              2.2035   YY=             -3.8865   ZZ=              1.6830
   XY=              0.1701   XZ=             -0.6676   YZ=             -0.4426
 Octapole moment (field-independent basis, Debye-Ang**2):
  XXX=             -8.8064  YYY=              1.8928  ZZZ=             -4.7127  XYY=             20.6202
  XXY=            -17.8921  XXZ=             -2.3173  XZZ=            -11.5066  YZZ=              6.6806
  YYZ=              3.2377  XYZ=             -2.4695
 Hexadecapole moment (field-independent basis, Debye-Ang**3):
 XXXX=          -1117.1439 YYYY=           -622.0968 ZZZZ=           -238.3599 XXXY=              0.5394
 XXXZ=             12.7123 YYYX=              2.5271 YYYZ=             -0.8141 ZZZX=             13.1646
 ZZZY=             -8.9035 XXYY=           -293.7796 XXZZ=           -223.6732 YYZZ=           -144.4135
 XXYZ=              6.3299 YYXZ=              0.2317 ZZXY=              3.1497
 N-N= 6.614329507939D+02 E-N=-3.241437671860D+03  KE= 8.117630513861D+02
   1 Symmetry operations used in ECPInt.
 ECPInt:  NShTT=    4278 NPrTT=   15746 LenC2=    4223 LenP2D=   12010.
 LDataN:  DoStor=T MaxTD1= 5 Len=  102
 Calling FoFJK, ICntrl=      2127 FMM=F ISym2X=0 I1Cent= 0 IOpClX= 0 NMat=1 NMatS=1 NMatT=0.
 ***** Axes restored to original set *****
 -------------------------------------------------------------------
 Center     Atomic                   Forces (Hartrees/Bohr)
 Number     Number              X              Y              Z
 -------------------------------------------------------------------
      1        7           0.015910382    0.010782578   -0.000531202
      2       16          -0.002534112   -0.000482644   -0.004845820
      3        6          -0.003333560    0.000335584    0.001513266
      4        6          -0.005384206   -0.012654139   -0.001631721
      5        6           0.006458667    0.010558069    0.000667322
      6        8          -0.003873963   -0.004991017   -0.000235545
      7        6          -0.007521376    0.001367519   -0.000133285
      8        6           0.005230290   -0.001395652   -0.000974252
      9        6           0.003533103   -0.000531684    0.016175179
     10        7          -0.005556326   -0.008813178   -0.017286347
     11        1          -0.010708193   -0.005967697   -0.001269723
     12        1           0.005063321   -0.004701181    0.004672706
     13        1           0.002334360   -0.002859370   -0.007524596
     14        1          -0.006373262   -0.002274898    0.001371784
     15        1           0.010118542    0.005589077    0.000712744
     16        1          -0.005605302    0.012328444    0.002436088
     17        1           0.003743841    0.008748507   -0.002041177
     18        1           0.005499672   -0.008141609   -0.004783496
     19        1          -0.010313289   -0.001855635    0.001773083
     20        1           0.003311410    0.004958925    0.011934991
 -------------------------------------------------------------------
 Cartesian Forces:  Max     0.017286347 RMS     0.006754188

 GradGradGradGradGradGradGradGradGradGradGradGradGradGradGradGradGradGrad
 Berny optimization.
 FormGI is forming the generalized inverse of G from B-inverse, IUseBI=4.
 Internal  Forces:  Max     0.013714342 RMS     0.004766523
 Search for a local minimum.
 Step number   1 out of a maximum of  106
 All quantities printed in internal units (Hartrees-Bohrs-Radians)
 Mixed Optimization -- RFO/linear search
 Second derivative matrix not updated -- first step.
 ITU=  0
     Eigenvalues ---    0.00230   0.00610   0.00988   0.01445   0.01678
     Eigenvalues ---    0.02186   0.02318   0.02459   0.02587   0.03404
     Eigenvalues ---    0.03482   0.05927   0.06054   0.06563   0.07522
     Eigenvalues ---    0.07656   0.08603   0.09392   0.15791   0.15998
     Eigenvalues ---    0.16000   0.16000   0.16000   0.16000   0.16000
     Eigenvalues ---    0.16000   0.16000   0.16000   0.16000   0.19180
     Eigenvalues ---    0.22682   0.23861   0.24757   0.24991   0.25000
     Eigenvalues ---    0.27595   0.34201   0.34790   0.35013   0.35019
     Eigenvalues ---    0.35590   0.35593   0.35785   0.37046   0.37409
     Eigenvalues ---    0.40505   0.45851   0.46441   0.46522   0.51440
     Eigenvalues ---    0.53107   0.54869   0.64658   0.66230
 RFO step:  Lambda=-8.23879559D-03 EMin= 2.30000000D-03
 Linear search not attempted -- first point.
 Iteration  1 RMS(Cart)=  0.05481247 RMS(Int)=  0.00139561
 Iteration  2 RMS(Cart)=  0.00169361 RMS(Int)=  0.00008579
 Iteration  3 RMS(Cart)=  0.00000367 RMS(Int)=  0.00008571
 Iteration  4 RMS(Cart)=  0.00000000 RMS(Int)=  0.00008571
 Variable       Old X    -DE/DX   Delta X   Delta X   Delta X     New X
                                 (Linear)    (Quad)   (Total)
    R1        2.90026   0.00133   0.00000   0.00198   0.00198   2.90224
    R2        1.90247   0.01020   0.00000   0.02154   0.02154   1.92401
    R3        3.36732  -0.00259   0.00000  -0.00912  -0.00912   3.35819
    R4        3.45896  -0.01124   0.00000  -0.04552  -0.04552   3.41343
    R5        2.91134   0.00250   0.00000   0.00382   0.00382   2.91516
    R6        2.58491   0.00720   0.00000   0.01400   0.01398   2.59889
    R7        2.68208   0.01049   0.00000   0.02495   0.02493   2.70701
    R8        2.80291  -0.00091   0.00000  -0.00259  -0.00259   2.80033
    R9        2.54554  -0.00112   0.00000  -0.00245  -0.00243   2.54310
   R10        2.05653   0.00828   0.00000   0.02310   0.02310   2.07963
   R11        2.06017   0.00832   0.00000   0.02337   0.02337   2.08354
   R12        2.05644   0.00690   0.00000   0.01926   0.01926   2.07570
   R13        2.55134   0.00612   0.00000   0.01047   0.01050   2.56183
   R14        2.56413   0.00072   0.00000   0.00148   0.00148   2.56561
   R15        2.02478   0.01146   0.00000   0.03027   0.03027   2.05504
   R16        2.01934   0.01371   0.00000   0.03587   0.03587   2.05521
   R17        2.04723   0.00945   0.00000   0.02594   0.02594   2.07317
   R18        2.04420   0.01087   0.00000   0.02969   0.02969   2.07389
   R19        2.04728   0.01013   0.00000   0.02782   0.02782   2.07510
   R20        1.90338   0.01091   0.00000   0.02309   0.02309   1.92647
    A1        1.99143  -0.01196   0.00000  -0.07112  -0.07112   1.92031
    A2        1.77616  -0.00379   0.00000  -0.02421  -0.02426   1.75189
    A3        1.99256  -0.00049   0.00000  -0.00817  -0.00813   1.98443
    A4        2.17731   0.00272   0.00000   0.01704   0.01703   2.19435
    A5        1.72982   0.00261   0.00000   0.00897   0.00893   1.73875
    A6        1.98058   0.00208   0.00000   0.01929   0.01932   1.99991
    A7        1.76337  -0.00275   0.00000  -0.01248  -0.01250   1.75087
    A8        2.20309   0.00174   0.00000   0.00573   0.00575   2.20884
    A9        2.21663  -0.00475   0.00000  -0.01941  -0.01940   2.19723
   A10        1.86328   0.00301   0.00000   0.01378   0.01373   1.87700
   A11        2.27601   0.01278   0.00000   0.04950   0.04950   2.32551
   A12        1.91020  -0.00597   0.00000  -0.02317  -0.02318   1.88701
   A13        2.09697  -0.00681   0.00000  -0.02634  -0.02634   2.07063
   A14        1.92410   0.00122   0.00000   0.00709   0.00708   1.93118
   A15        1.93217   0.00105   0.00000   0.00653   0.00651   1.93868
   A16        1.89455  -0.00021   0.00000  -0.00141  -0.00141   1.89314
   A17        1.88281  -0.00111   0.00000  -0.00632  -0.00635   1.87646
   A18        1.91914  -0.00062   0.00000  -0.00424  -0.00423   1.91491
   A19        1.91117  -0.00034   0.00000  -0.00173  -0.00173   1.90944
   A20        1.87746   0.00685   0.00000   0.02444   0.02449   1.90195
   A21        1.93268  -0.00152   0.00000  -0.00683  -0.00682   1.92586
   A22        2.04119  -0.00089   0.00000  -0.00640  -0.00641   2.03477
   A23        2.30932   0.00241   0.00000   0.01322   0.01320   2.32252
   A24        1.84114  -0.00237   0.00000  -0.00815  -0.00820   1.83295
   A25        2.18899   0.00227   0.00000   0.01044   0.01044   2.19943
   A26        2.25298   0.00011   0.00000  -0.00240  -0.00241   2.25057
   A27        1.89215  -0.00306   0.00000  -0.01908  -0.01924   1.87291
   A28        1.87354   0.00295   0.00000   0.01981   0.01993   1.89347
   A29        1.88804  -0.00462   0.00000  -0.02889  -0.02903   1.85900
   A30        1.94883   0.00042   0.00000   0.00541   0.00551   1.95434
   A31        1.93595   0.00303   0.00000   0.01326   0.01279   1.94874
   A32        1.92297   0.00101   0.00000   0.00791   0.00807   1.93104
   A33        1.98391  -0.01290   0.00000  -0.07670  -0.07670   1.90721
    D1       -2.88414  -0.00182   0.00000  -0.04612  -0.04600  -2.93015
    D2        1.55407  -0.00266   0.00000  -0.04092  -0.04105   1.51302
    D3       -0.61909  -0.00051   0.00000  -0.02909  -0.02907  -0.64816
    D4        2.82945   0.00143   0.00000   0.04347   0.04341   2.87286
    D5       -0.28842   0.00128   0.00000   0.03746   0.03742  -0.25100
    D6       -1.40842   0.00065   0.00000   0.03068   0.03063  -1.37779
    D7        1.75689   0.00050   0.00000   0.02468   0.02464   1.78154
    D8        0.44721  -0.00053   0.00000   0.02675   0.02683   0.47404
    D9       -2.67066  -0.00069   0.00000   0.02074   0.02085  -2.64982
   D10        0.87678  -0.00177   0.00000  -0.01805  -0.01794   0.85884
   D11        2.98453  -0.00130   0.00000  -0.01095  -0.01097   2.97355
   D12       -1.22389  -0.00098   0.00000  -0.00629  -0.00652  -1.23041
   D13       -0.99696   0.00134   0.00000   0.00736   0.00752  -0.98944
   D14        1.11079   0.00181   0.00000   0.01447   0.01448   1.12528
   D15       -3.09763   0.00213   0.00000   0.01912   0.01894  -3.07869
   D16       -3.02600  -0.00088   0.00000  -0.01222  -0.01201  -3.03801
   D17       -0.91825  -0.00040   0.00000  -0.00511  -0.00504  -0.92330
   D18        1.15651  -0.00008   0.00000  -0.00046  -0.00059   1.15592
   D19       -0.60438  -0.00226   0.00000  -0.05345  -0.05361  -0.65799
   D20        1.57528  -0.00312   0.00000  -0.05237  -0.05221   1.52308
   D21       -2.87346  -0.00088   0.00000  -0.04229  -0.04230  -2.91576
   D22        0.01680   0.00037   0.00000   0.00924   0.00923   0.02603
   D23       -3.12775   0.00025   0.00000   0.00457   0.00448  -3.12327
   D24        3.13861   0.00041   0.00000   0.01388   0.01394  -3.13063
   D25       -0.00594   0.00029   0.00000   0.00921   0.00919   0.00325
   D26        3.12642  -0.00007   0.00000  -0.00220  -0.00228   3.12414
   D27       -0.00360   0.00024   0.00000   0.00784   0.00785   0.00425
   D28        0.00481  -0.00021   0.00000  -0.00726  -0.00732  -0.00252
   D29       -3.12521   0.00010   0.00000   0.00278   0.00281  -3.12240
   D30       -2.31854   0.00014   0.00000   0.00552   0.00551  -2.31303
   D31        1.88272   0.00007   0.00000   0.00470   0.00467   1.88739
   D32       -0.21546  -0.00001   0.00000   0.00375   0.00372  -0.21174
   D33        0.82627   0.00026   0.00000   0.01060   0.01063   0.83690
   D34       -1.25565   0.00020   0.00000   0.00978   0.00979  -1.24586
   D35        2.92935   0.00011   0.00000   0.00882   0.00884   2.93820
   D36        0.00473  -0.00024   0.00000  -0.00746  -0.00748  -0.00275
   D37       -3.13947  -0.00031   0.00000  -0.01142  -0.01127   3.13245
   D38       -0.00157   0.00009   0.00000   0.00263   0.00270   0.00113
   D39        3.13809  -0.00011   0.00000  -0.00334  -0.00323   3.13487
   D40       -0.00204   0.00007   0.00000   0.00294   0.00291   0.00088
   D41        3.12740  -0.00023   0.00000  -0.00749  -0.00751   3.11989
   D42       -3.14131   0.00032   0.00000   0.01017   0.01021  -3.13110
   D43       -0.01187   0.00002   0.00000  -0.00026  -0.00021  -0.01208
         Item               Value     Threshold  Converged?
 Maximum Force            0.013714     0.000450     NO 
 RMS     Force            0.004767     0.000300     NO 
 Maximum Displacement     0.192957     0.001800     NO 
 RMS     Displacement     0.054654     0.001200     NO 
 Predicted change in Energy=-4.326081D-03
 GradGradGradGradGradGradGradGradGradGradGradGradGradGradGradGradGradGrad

                          Input orientation:                          
 ---------------------------------------------------------------------
 Center     Atomic      Atomic             Coordinates (Angstroms)
 Number     Number       Type             X           Y           Z
 ---------------------------------------------------------------------
      1          7           0       -1.904981    1.300305    0.734425
      2         16           0       -1.388477   -0.010613    0.123356
      3          6           0        0.357724    0.317610    0.090764
      4          6           0        1.361734   -0.606074   -0.082874
      5          6           0        1.365710   -2.069607   -0.315234
      6          8           0        2.540391    0.040541   -0.022003
      7          6           0        2.308959    1.360365    0.183733
      8          6           0        0.974742    1.598967    0.262319
      9          6           0       -1.701172   -0.157969   -1.649571
     10          7           0       -1.765809   -1.431890    0.589532
     11          1           0       -2.880758    1.197576    1.006313
     12          1           0        2.082774   -2.567035    0.355194
     13          1           0        1.660943   -2.305866   -1.350930
     14          1           0        0.354261   -2.454525   -0.127293
     15          1           0        3.183836    2.001785    0.259825
     16          1           0        0.457622    2.539321    0.438752
     17          1           0       -1.363585    0.774281   -2.119163
     18          1           0       -1.153447   -1.030333   -2.028229
     19          1           0       -2.783834   -0.300780   -1.764744
     20          1           0       -1.844794   -1.442826    1.605852
 ---------------------------------------------------------------------
                    Distance matrix (angstroms):
                    1          2          3          4          5
     1  N    0.000000
     2  S    1.535802   0.000000
     3  C    2.549475   1.777079   0.000000
     4  C    3.869585   2.821483   1.375274   0.000000
     5  C    4.812018   3.466607   2.622914   1.481869   0.000000
     6  O    4.681936   3.931889   2.203070   1.345753   2.432814
     7  C    4.250196   3.943889   2.214340   2.198908   3.592129
     8  C    2.933409   2.862667   1.432487   2.265200   3.734282
     9  C    2.802059   1.806312   2.737516   3.469399   3.852348
    10  N    2.739571   1.542637   2.796232   3.303880   3.321400
    11  H    1.018144   2.113347   3.478554   4.736900   5.518466
    12  H    5.567973   4.317248   3.371483   2.134753   1.100495
    13  H    5.483520   4.091537   3.264887   2.141678   1.102564
    14  H    4.466037   3.012088   2.780701   2.105646   1.098414
    15  H    5.158816   4.997441   3.294227   3.199754   4.495832
    16  H    2.684116   3.163814   2.251017   3.314065   4.757661
    17  H    2.951741   2.376041   2.838174   3.671405   4.334849
    18  H    3.691739   2.392570   2.930993   3.207887   3.218788
    19  H    3.095433   2.365616   3.700635   4.484152   4.737989
    20  H    2.878849   2.111220   3.200892   3.719377   3.793515
                    6          7          8          9         10
     6  O    0.000000
     7  C    1.355663   0.000000
     8  C    2.227283   1.357661   0.000000
     9  C    4.547444   4.663421   3.728627   0.000000
    10  N    4.591883   4.956319   4.099242   2.576943   0.000000
    11  H    5.637821   5.257024   3.947090   3.206657   2.886332
    12  H    2.674163   3.937643   4.311837   4.913342   4.019336
    13  H    2.836389   4.026954   4.280323   4.000809   4.033839
    14  H    3.318977   4.297787   4.119174   3.437486   2.460553
    15  H    2.083248   1.087483   2.245521   5.672180   6.033060
    16  H    3.285442   2.209621   1.087569   4.036937   4.553779
    17  H    4.491936   4.374289   3.437926   1.097074   3.516533
    18  H    4.337760   4.753575   4.085220   1.097454   2.718255
    19  H    5.612577   5.700220   4.673855   1.098097   2.803283
    20  H    4.907151   5.209027   4.359744   3.502750   1.019443
                   11         12         13         14         15
    11  H    0.000000
    12  H    6.263618   0.000000
    13  H    6.201432   1.776798   0.000000
    14  H    5.008818   1.798113   1.796331   0.000000
    15  H    6.163059   4.700590   4.844542   5.292925   0.000000
    16  H    3.642415   5.359382   5.303469   5.026887   2.784458
    17  H    3.499942   5.400392   4.384662   4.164581   5.276873
    18  H    4.141936   4.302940   3.163307   2.813373   5.765497
    19  H    3.151702   5.771822   4.893634   4.143369   6.709230
    20  H    2.899033   4.272444   4.666646   2.977108   6.242135
                   16         17         18         19         20
    16  H    0.000000
    17  H    3.602096   0.000000
    18  H    4.628604   1.819082   0.000000
    19  H    4.840311   1.816171   1.805500   0.000000
    20  H    4.745602   4.361520   3.722184   3.680622   0.000000
 Stoichiometry    C6H10N2OS
 Framework group  C1[X(C6H10N2OS)]
 Deg. of freedom    54
 Full point group                 C1      NOp   1
 Largest Abelian subgroup         C1      NOp   1
 Largest concise Abelian subgroup C1      NOp   1
                         Standard orientation:                         
 ---------------------------------------------------------------------
 Center     Atomic      Atomic             Coordinates (Angstroms)
 Number     Number       Type             X           Y           Z
 ---------------------------------------------------------------------
      1          7           0       -1.794697   -1.548484   -0.489469
      2         16           0       -1.361780   -0.117400   -0.138374
      3          6           0        0.400131   -0.329679   -0.045546
      4          6           0        1.346804    0.667899   -0.050940
      5          6           0        1.263155    2.146584   -0.100209
      6          8           0        2.561673    0.092299    0.010922
      7          6           0        2.409621   -1.253941    0.059274
      8          6           0        1.092448   -1.581576    0.028400
      9          6           0       -1.700996    0.344093    1.574728
     10          7           0       -1.816325    1.165113   -0.865202
     11          1           0       -2.771910   -1.556955   -0.775125
     12          1           0        1.957000    2.549649   -0.853340
     13          1           0        1.533317    2.591631    0.871693
     14          1           0        0.233030    2.428479   -0.356900
     15          1           0        3.321098   -1.845293    0.105448
     16          1           0        0.632812   -2.567230    0.033821
     17          1           0       -1.314630   -0.460806    2.212247
     18          1           0       -1.208961    1.303191    1.780729
     19          1           0       -2.791278    0.441846    1.661604
     20          1           0       -1.885208    0.978807   -1.865107
 ---------------------------------------------------------------------
 Rotational constants (GHZ):           1.9349204           0.9750136           0.7686308
 Standard basis: def2SVP (5D, 7F)
 There are   204 symmetry adapted cartesian basis functions of A   symmetry.
 There are   194 symmetry adapted basis functions of A   symmetry.
   194 basis functions,   332 primitive gaussians,   204 cartesian basis functions
    42 alpha electrons       42 beta electrons
       nuclear repulsion energy       660.5857452208 Hartrees.
 NAtoms=   20 NActive=   20 NUniq=   20 SFac= 1.00D+00 NAtFMM=   60 NAOKFM=F Big=F
 Integral buffers will be    131072 words long.
 Raffenetti 2 integral format.
 Two-electron integral symmetry is turned on.
 Nuclear repulsion after empirical dispersion term =      660.5651767259 Hartrees.
 One-electron integrals computed using PRISM.
   1 Symmetry operations used in ECPInt.
 ECPInt:  NShTT=    4278 NPrTT=   15746 LenC2=    4223 LenP2D=   12001.
 LDataN:  DoStor=T MaxTD1= 4 Len=   56
 NBasis=   194 RedAO= T EigKep=  5.13D-04  NBF=   194
 NBsUse=   194 1.00D-06 EigRej= -1.00D+00 NBFU=   194
 Initial guess from the checkpoint file:  "SDI0291_2.chk"
 B after Tr=     0.000000    0.000000    0.000000
         Rot=    0.999952    0.007819    0.000622    0.005877 Ang=   1.12 deg.
 ExpMin= 1.22D-01 ExpMax= 9.18D+03 ExpMxC= 1.38D+03 IAcc=3 IRadAn=         5 AccDes= 0.00D+00
 Harris functional with IExCor= 1009 and IRadAn=       5 diagonalized for initial guess.
 HarFok:  IExCor= 1009 AccDes= 0.00D+00 IRadAn=         5 IDoV= 1 UseB2=F ITyADJ=14
 ICtDFT=  3500011 ScaDFX=  1.000000  1.000000  1.000000  1.000000
 FoFCou: FMM=F IPFlag=           0 FMFlag=      100000 FMFlg1=           0
         NFxFlg=           0 DoJE=T BraDBF=F KetDBF=T FulRan=T
         wScrn=  0.000000 ICntrl=       500 IOpCl=  0 I1Cent=   200000004 NGrid=           0
         NMat0=    1 NMatS0=      1 NMatT0=    0 NMatD0=    1 NMtDS0=    0 NMtDT0=    0
 Petite list used in FoFCou.
 Requested convergence on RMS density matrix=1.00D-08 within 128 cycles.
 Requested convergence on MAX density matrix=1.00D-06.
 Requested convergence on             energy=1.00D-06.
 No special actions if energy rises.
 Integral accuracy reduced to 1.0D-05 until final iterations.
 Initial convergence to 1.0D-05 achieved.  Increase integral accuracy.
 SCF Done:  E(RPBE1PBE) =  -816.390599254     A.U. after   12 cycles
            NFock= 12  Conv=0.67D-08     -V/T= 2.0059
   1 Symmetry operations used in ECPInt.
 ECPInt:  NShTT=    4278 NPrTT=   15746 LenC2=    4223 LenP2D=   12001.
 LDataN:  DoStor=T MaxTD1= 5 Len=  102
 Calling FoFJK, ICntrl=      2127 FMM=F ISym2X=0 I1Cent= 0 IOpClX= 0 NMat=1 NMatS=1 NMatT=0.
 ***** Axes restored to original set *****
 -------------------------------------------------------------------
 Center     Atomic                   Forces (Hartrees/Bohr)
 Number     Number              X              Y              Z
 -------------------------------------------------------------------
      1        7          -0.000354753    0.007682496    0.006071867
      2       16           0.006898242   -0.000574896   -0.010004239
      3        6           0.000411152    0.000582572    0.000865808
      4        6          -0.003936022    0.002381135    0.000919945
      5        6           0.000691448    0.002582466    0.000202490
      6        8           0.004223561   -0.001067227   -0.000805071
      7        6          -0.001035289   -0.000270588   -0.000275015
      8        6          -0.000848990   -0.000510436    0.000586612
      9        6           0.000735442   -0.000397667    0.002967731
     10        7          -0.005919567   -0.006917912   -0.000300836
     11        1          -0.003212756   -0.001304353   -0.002336613
     12        1          -0.000447196    0.000056408    0.000117859
     13        1          -0.000053808   -0.000002710    0.000148578
     14        1          -0.000039199   -0.000644897    0.000102600
     15        1           0.000107804   -0.001303384   -0.000108241
     16        1           0.000109463   -0.001213102   -0.000099656
     17        1          -0.000256246   -0.000293482   -0.000168091
     18        1          -0.000741484    0.000490356   -0.001090313
     19        1           0.000099050   -0.000111085    0.000122253
     20        1           0.003569149    0.000836306    0.003082332
 -------------------------------------------------------------------
 Cartesian Forces:  Max     0.010004239 RMS     0.002694566

 GradGradGradGradGradGradGradGradGradGradGradGradGradGradGradGradGradGrad
 Berny optimization.
 Using GEDIIS/GDIIS optimizer.
 FormGI is forming the generalized inverse of G from B-inverse, IUseBI=4.
 Internal  Forces:  Max     0.008130680 RMS     0.001646483
 Search for a local minimum.
 Step number   2 out of a maximum of  106
 All quantities printed in internal units (Hartrees-Bohrs-Radians)
 Mixed Optimization -- RFO/linear search
 Update second derivatives using D2CorX and points    1    2
 DE= -4.52D-03 DEPred=-4.33D-03 R= 1.05D+00
 TightC=F SS=  1.41D+00  RLast= 2.25D-01 DXNew= 5.0454D-01 6.7399D-01
 Trust test= 1.05D+00 RLast= 2.25D-01 DXMaxT set to 5.05D-01
 ITU=  1  0
 Use linear search instead of GDIIS.
     Eigenvalues ---    0.00230   0.00617   0.00988   0.01456   0.01675
     Eigenvalues ---    0.02182   0.02320   0.02464   0.02589   0.03044
     Eigenvalues ---    0.03457   0.05985   0.06179   0.06580   0.07454
     Eigenvalues ---    0.07631   0.08656   0.09465   0.13878   0.15787
     Eigenvalues ---    0.15994   0.16000   0.16000   0.16000   0.16000
     Eigenvalues ---    0.16000   0.16000   0.16000   0.16262   0.19300
     Eigenvalues ---    0.22656   0.23464   0.24692   0.24903   0.26795
     Eigenvalues ---    0.27569   0.34036   0.34836   0.35007   0.35106
     Eigenvalues ---    0.35590   0.35680   0.36063   0.37157   0.38253
     Eigenvalues ---    0.41690   0.45524   0.46485   0.46516   0.51407
     Eigenvalues ---    0.53388   0.55214   0.65050   0.68300
 RFO step:  Lambda=-1.60569990D-03 EMin= 2.29986479D-03
 Quartic linear search produced a step of  0.11326.
 Iteration  1 RMS(Cart)=  0.02920194 RMS(Int)=  0.00088382
 Iteration  2 RMS(Cart)=  0.00085628 RMS(Int)=  0.00003620
 Iteration  3 RMS(Cart)=  0.00000100 RMS(Int)=  0.00003619
 Iteration  4 RMS(Cart)=  0.00000000 RMS(Int)=  0.00003619
 Variable       Old X    -DE/DX   Delta X   Delta X   Delta X     New X
                                 (Linear)    (Quad)   (Total)
    R1        2.90224   0.00813   0.00022   0.01372   0.01394   2.91619
    R2        1.92401   0.00259   0.00244   0.00763   0.01007   1.93408
    R3        3.35819  -0.00073  -0.00103  -0.00352  -0.00455   3.35364
    R4        3.41343  -0.00174  -0.00516  -0.01110  -0.01626   3.39717
    R5        2.91516   0.00702   0.00043   0.01227   0.01270   2.92786
    R6        2.59889  -0.00279   0.00158  -0.00537  -0.00379   2.59510
    R7        2.70701  -0.00189   0.00282  -0.00345  -0.00064   2.70637
    R8        2.80033  -0.00206  -0.00029  -0.00681  -0.00710   2.79322
    R9        2.54310   0.00090  -0.00028   0.00163   0.00136   2.54446
   R10        2.07963  -0.00024   0.00262   0.00081   0.00342   2.08306
   R11        2.08354  -0.00015   0.00265   0.00111   0.00375   2.08730
   R12        2.07570   0.00028   0.00218   0.00220   0.00438   2.08008
   R13        2.56183  -0.00063   0.00119  -0.00023   0.00097   2.56281
   R14        2.56561   0.00120   0.00017   0.00278   0.00295   2.56856
   R15        2.05504  -0.00069   0.00343   0.00002   0.00344   2.05849
   R16        2.05521  -0.00112   0.00406  -0.00084   0.00322   2.05843
   R17        2.07317  -0.00026   0.00294   0.00098   0.00392   2.07709
   R18        2.07389  -0.00038   0.00336   0.00085   0.00421   2.07810
   R19        2.07510  -0.00010   0.00315   0.00160   0.00475   2.07986
   R20        1.92647   0.00279   0.00262   0.00822   0.01084   1.93731
    A1        1.92031  -0.00378  -0.00805  -0.03063  -0.03869   1.88163
    A2        1.75189   0.00102  -0.00275   0.00880   0.00605   1.75795
    A3        1.98443  -0.00076  -0.00092  -0.00440  -0.00541   1.97902
    A4        2.19435  -0.00103   0.00193  -0.01381  -0.01190   2.18245
    A5        1.73875   0.00133   0.00101   0.01679   0.01780   1.75655
    A6        1.99991  -0.00100   0.00219  -0.00594  -0.00382   1.99609
    A7        1.75087   0.00088  -0.00142   0.00501   0.00356   1.75443
    A8        2.20884  -0.00214   0.00065  -0.00854  -0.00789   2.20095
    A9        2.19723   0.00267  -0.00220   0.01099   0.00879   2.20603
   A10        1.87700  -0.00053   0.00155  -0.00262  -0.00112   1.87588
   A11        2.32551  -0.00066   0.00561   0.00079   0.00640   2.33192
   A12        1.88701   0.00263  -0.00263   0.00932   0.00667   1.89369
   A13        2.07063  -0.00198  -0.00298  -0.01012  -0.01309   2.05754
   A14        1.93118  -0.00017   0.00080  -0.00121  -0.00041   1.93077
   A15        1.93868   0.00001   0.00074   0.00102   0.00175   1.94043
   A16        1.89314   0.00078  -0.00016   0.00523   0.00507   1.89821
   A17        1.87646   0.00010  -0.00072   0.00033  -0.00039   1.87607
   A18        1.91491  -0.00050  -0.00048  -0.00478  -0.00526   1.90965
   A19        1.90944  -0.00024  -0.00020  -0.00078  -0.00099   1.90845
   A20        1.90195  -0.00293   0.00277  -0.01056  -0.00780   1.89415
   A21        1.92586   0.00098  -0.00077   0.00538   0.00458   1.93044
   A22        2.03477  -0.00164  -0.00073  -0.01121  -0.01194   2.02283
   A23        2.32252   0.00065   0.00150   0.00578   0.00727   2.32979
   A24        1.83295  -0.00016  -0.00093  -0.00146  -0.00242   1.83052
   A25        2.19943  -0.00042   0.00118  -0.00222  -0.00102   2.19841
   A26        2.25057   0.00058  -0.00027   0.00379   0.00353   2.25410
   A27        1.87291   0.00023  -0.00218   0.00043  -0.00181   1.87110
   A28        1.89347   0.00211   0.00226   0.01693   0.01920   1.91267
   A29        1.85900  -0.00059  -0.00329  -0.00721  -0.01051   1.84850
   A30        1.95434  -0.00081   0.00062  -0.00258  -0.00200   1.95234
   A31        1.94874  -0.00012   0.00145  -0.00250  -0.00115   1.94759
   A32        1.93104  -0.00069   0.00091  -0.00440  -0.00342   1.92762
   A33        1.90721  -0.00333  -0.00869  -0.02790  -0.03658   1.87063
    D1       -2.93015  -0.00057  -0.00521  -0.03908  -0.04428  -2.97442
    D2        1.51302  -0.00236  -0.00465  -0.06122  -0.06584   1.44718
    D3       -0.64816  -0.00183  -0.00329  -0.05015  -0.05349  -0.70165
    D4        2.87286  -0.00049   0.00492  -0.01463  -0.00977   2.86309
    D5       -0.25100  -0.00028   0.00424  -0.00075   0.00344  -0.24755
    D6       -1.37779  -0.00061   0.00347  -0.01196  -0.00844  -1.38624
    D7        1.78154  -0.00040   0.00279   0.00193   0.00477   1.78631
    D8        0.47404   0.00078   0.00304   0.00075   0.00379   0.47783
    D9       -2.64982   0.00098   0.00236   0.01464   0.01701  -2.63281
   D10        0.85884   0.00067  -0.00203  -0.00075  -0.00278   0.85606
   D11        2.97355   0.00102  -0.00124   0.00600   0.00477   2.97832
   D12       -1.23041   0.00100  -0.00074   0.00576   0.00496  -1.22545
   D13       -0.98944  -0.00093   0.00085  -0.01787  -0.01696  -1.00640
   D14        1.12528  -0.00057   0.00164  -0.01112  -0.00942   1.11586
   D15       -3.07869  -0.00060   0.00214  -0.01136  -0.00922  -3.08791
   D16       -3.03801  -0.00051  -0.00136  -0.01794  -0.01931  -3.05732
   D17       -0.92330  -0.00016  -0.00057  -0.01120  -0.01177  -0.93506
   D18        1.15592  -0.00018  -0.00007  -0.01144  -0.01157   1.14435
   D19       -0.65799  -0.00224  -0.00607  -0.06982  -0.07594  -0.73393
   D20        1.52308  -0.00288  -0.00591  -0.07728  -0.08314   1.43994
   D21       -2.91576  -0.00122  -0.00479  -0.05731  -0.06211  -2.97787
   D22        0.02603  -0.00015   0.00104  -0.00273  -0.00175   0.02428
   D23       -3.12327  -0.00019   0.00051  -0.00496  -0.00457  -3.12784
   D24       -3.13063  -0.00030   0.00158  -0.01440  -0.01280   3.13975
   D25        0.00325  -0.00033   0.00104  -0.01663  -0.01562  -0.01237
   D26        3.12414   0.00012  -0.00026   0.00403   0.00366   3.12779
   D27        0.00425  -0.00001   0.00089  -0.00118  -0.00034   0.00391
   D28       -0.00252   0.00032  -0.00083   0.01581   0.01493   0.01242
   D29       -3.12240   0.00019   0.00032   0.01060   0.01094  -3.11146
   D30       -2.31303   0.00013   0.00062   0.00623   0.00684  -2.30619
   D31        1.88739   0.00012   0.00053   0.00595   0.00647   1.89386
   D32       -0.21174  -0.00009   0.00042   0.00293   0.00334  -0.20840
   D33        0.83690   0.00016   0.00120   0.00857   0.00979   0.84669
   D34       -1.24586   0.00014   0.00111   0.00829   0.00941  -1.23645
   D35        2.93820  -0.00007   0.00100   0.00527   0.00628   2.94448
   D36       -0.00275   0.00023  -0.00085   0.01105   0.01019   0.00745
   D37        3.13245   0.00020  -0.00128   0.00924   0.00797   3.14042
   D38        0.00113  -0.00003   0.00031  -0.00075  -0.00040   0.00073
   D39        3.13487  -0.00013  -0.00037  -0.00663  -0.00691   3.12796
   D40        0.00088  -0.00018   0.00033  -0.00931  -0.00899  -0.00811
   D41        3.11989  -0.00007  -0.00085  -0.00401  -0.00490   3.11499
   D42       -3.13110  -0.00004   0.00116  -0.00201  -0.00080  -3.13190
   D43       -0.01208   0.00007  -0.00002   0.00330   0.00329  -0.00880
         Item               Value     Threshold  Converged?
 Maximum Force            0.008131     0.000450     NO 
 RMS     Force            0.001646     0.000300     NO 
 Maximum Displacement     0.170407     0.001800     NO 
 RMS     Displacement     0.029290     0.001200     NO 
 Predicted change in Energy=-8.689603D-04
 GradGradGradGradGradGradGradGradGradGradGradGradGradGradGradGradGradGrad

                          Input orientation:                          
 ---------------------------------------------------------------------
 Center     Atomic      Atomic             Coordinates (Angstroms)
 Number     Number       Type             X           Y           Z
 ---------------------------------------------------------------------
      1          7           0       -1.918022    1.300311    0.730691
      2         16           0       -1.384817   -0.008073    0.110023
      3          6           0        0.358355    0.323985    0.086583
      4          6           0        1.356770   -0.604157   -0.079504
      5          6           0        1.363546   -2.064886   -0.305410
      6          8           0        2.543289    0.029766   -0.022039
      7          6           0        2.316632    1.350242    0.188175
      8          6           0        0.983058    1.599288    0.272060
      9          6           0       -1.719290   -0.150947   -1.650508
     10          7           0       -1.757439   -1.434815    0.585495
     11          1           0       -2.909607    1.164023    0.944421
     12          1           0        2.074402   -2.559926    0.376278
     13          1           0        1.670383   -2.307505   -1.338376
     14          1           0        0.350562   -2.455755   -0.124593
     15          1           0        3.203029    1.978304    0.268331
     16          1           0        0.469814    2.542112    0.456940
     17          1           0       -1.404455    0.792262   -2.118866
     18          1           0       -1.174297   -1.013612   -2.060496
     19          1           0       -2.805456   -0.304637   -1.739781
     20          1           0       -1.754618   -1.422745    1.610599
 ---------------------------------------------------------------------
                    Distance matrix (angstroms):
                    1          2          3          4          5
     1  N    0.000000
     2  S    1.543180   0.000000
     3  C    2.559293   1.774672   0.000000
     4  C    3.873974   2.812034   1.373268   0.000000
     5  C    4.813185   3.457826   2.621216   1.478110   0.000000
     6  O    4.699382   3.930508   2.207329   1.346473   2.420674
     7  C    4.269557   3.943584   2.213227   2.193778   3.579818
     8  C    2.952286   2.866478   1.432149   2.262394   3.728862
     9  C    2.795666   1.797707   2.749482   3.483618   3.869926
    10  N    2.743680   1.549359   2.796226   3.290975   3.306244
    11  H    1.023472   2.096429   3.481540   4.730418   5.499797
    12  H    5.564754   4.306859   3.368336   2.132549   1.102307
    13  H    5.493089   4.088948   3.267517   2.141146   1.104550
    14  H    4.470572   3.009607   2.787762   2.107820   1.100732
    15  H    5.186388   5.001908   3.295751   3.193550   4.478868
    16  H    2.705323   3.172294   2.251593   3.312622   4.754404
    17  H    2.939701   2.368305   2.861955   3.705853   4.371927
    18  H    3.701093   2.401370   2.957724   3.240106   3.259777
    19  H    3.076789   2.351157   3.706814   4.491142   4.747260
    20  H    2.866351   2.095180   3.136614   3.634181   3.715695
                    6          7          8          9         10
     6  O    0.000000
     7  C    1.356178   0.000000
     8  C    2.232536   1.359221   0.000000
     9  C    4.566634   4.682199   3.749969   0.000000
    10  N    4.583706   4.951007   4.100530   2.578659   0.000000
    11  H    5.652846   5.283953   3.974212   3.143192   2.865359
    12  H    2.661770   3.922177   4.301273   4.929821   3.999081
    13  H    2.820912   4.015857   4.281232   4.029647   4.026516
    14  H    3.316080   4.295215   4.123198   3.453237   2.447491
    15  H    2.077587   1.089305   2.252097   5.696040   6.029612
    16  H    3.292507   2.214390   1.089273   4.060304   4.559949
    17  H    4.534619   4.413646   3.473907   1.099147   3.521085
    18  H    4.366279   4.778170   4.113665   1.099681   2.742031
    19  H    5.627748   5.717642   4.693109   1.100612   2.789723
    20  H    4.821546   5.127166   4.291764   3.500505   1.025179
                   11         12         13         14         15
    11  H    0.000000
    12  H    6.247473   0.000000
    13  H    6.183767   1.779603   0.000000
    14  H    4.987413   1.798151   1.799215   0.000000
    15  H    6.203585   4.677711   4.826869   5.286950   0.000000
    16  H    3.682017   5.349018   5.308795   5.032999   2.797126
    17  H    3.433281   5.437403   4.435352   4.196049   5.322998
    18  H    4.096696   4.345457   3.207463   2.855292   5.791025
    19  H    3.061495   5.777287   4.919933   4.146878   6.733960
    20  H    2.910182   4.180685   4.605420   2.917154   6.160120
                   16         17         18         19         20
    16  H    0.000000
    17  H    3.634506   0.000000
    18  H    4.656582   1.821417   0.000000
    19  H    4.863841   1.819257   1.807258   0.000000
    20  H    4.690322   4.351756   3.739131   3.685034   0.000000
 Stoichiometry    C6H10N2OS
 Framework group  C1[X(C6H10N2OS)]
 Deg. of freedom    54
 Full point group                 C1      NOp   1
 Largest Abelian subgroup         C1      NOp   1
 Largest concise Abelian subgroup C1      NOp   1
                         Standard orientation:                         
 ---------------------------------------------------------------------
 Center     Atomic      Atomic             Coordinates (Angstroms)
 Number     Number       Type             X           Y           Z
 ---------------------------------------------------------------------
      1          7           0       -1.808409   -1.542781   -0.504176
      2         16           0       -1.357578   -0.113677   -0.135641
      3          6           0        0.400487   -0.336322   -0.040266
      4          6           0        1.343955    0.661533   -0.044534
      5          6           0        1.267374    2.136782   -0.095380
      6          8           0        2.564056    0.096213    0.024440
      7          6           0        2.413208   -1.250992    0.063206
      8          6           0        1.096750   -1.586405    0.019409
      9          6           0       -1.728151    0.335231    1.565214
     10          7           0       -1.799595    1.176197   -0.871414
     11          1           0       -2.802314   -1.505030   -0.745471
     12          1           0        1.961257    2.535724   -0.853306
     13          1           0        1.543556    2.584415    0.875897
     14          1           0        0.237685    2.429166   -0.352017
     15          1           0        3.333725   -1.831780    0.107015
     16          1           0        0.638775   -2.574687    0.010831
     17          1           0       -1.370075   -0.484945    2.203348
     18          1           0       -1.237797    1.288586    1.810094
     19          1           0       -2.822398    0.441099    1.617775
     20          1           0       -1.779321    0.973704   -1.876191
 ---------------------------------------------------------------------
 Rotational constants (GHZ):           1.9413158           0.9724759           0.7677576
 Standard basis: def2SVP (5D, 7F)
 There are   204 symmetry adapted cartesian basis functions of A   symmetry.
 There are   194 symmetry adapted basis functions of A   symmetry.
   194 basis functions,   332 primitive gaussians,   204 cartesian basis functions
    42 alpha electrons       42 beta electrons
       nuclear repulsion energy       660.3896306785 Hartrees.
 NAtoms=   20 NActive=   20 NUniq=   20 SFac= 1.00D+00 NAtFMM=   60 NAOKFM=F Big=F
 Integral buffers will be    131072 words long.
 Raffenetti 2 integral format.
 Two-electron integral symmetry is turned on.
 Nuclear repulsion after empirical dispersion term =      660.3690731259 Hartrees.
 One-electron integrals computed using PRISM.
   1 Symmetry operations used in ECPInt.
 ECPInt:  NShTT=    4278 NPrTT=   15746 LenC2=    4223 LenP2D=   11996.
 LDataN:  DoStor=T MaxTD1= 4 Len=   56
 NBasis=   194 RedAO= T EigKep=  5.07D-04  NBF=   194
 NBsUse=   194 1.00D-06 EigRej= -1.00D+00 NBFU=   194
 Initial guess from the checkpoint file:  "SDI0291_2.chk"
 B after Tr=    -0.000000   -0.000000   -0.000000
         Rot=    0.999995   -0.001751    0.002481    0.000911 Ang=  -0.36 deg.
 ExpMin= 1.22D-01 ExpMax= 9.18D+03 ExpMxC= 1.38D+03 IAcc=3 IRadAn=         5 AccDes= 0.00D+00
 Harris functional with IExCor= 1009 and IRadAn=       5 diagonalized for initial guess.
 HarFok:  IExCor= 1009 AccDes= 0.00D+00 IRadAn=         5 IDoV= 1 UseB2=F ITyADJ=14
 ICtDFT=  3500011 ScaDFX=  1.000000  1.000000  1.000000  1.000000
 FoFCou: FMM=F IPFlag=           0 FMFlag=      100000 FMFlg1=           0
         NFxFlg=           0 DoJE=T BraDBF=F KetDBF=T FulRan=T
         wScrn=  0.000000 ICntrl=       500 IOpCl=  0 I1Cent=   200000004 NGrid=           0
         NMat0=    1 NMatS0=      1 NMatT0=    0 NMatD0=    1 NMtDS0=    0 NMtDT0=    0
 Petite list used in FoFCou.
 Requested convergence on RMS density matrix=1.00D-08 within 128 cycles.
 Requested convergence on MAX density matrix=1.00D-06.
 Requested convergence on             energy=1.00D-06.
 No special actions if energy rises.
 Integral accuracy reduced to 1.0D-05 until final iterations.
 Initial convergence to 1.0D-05 achieved.  Increase integral accuracy.
 SCF Done:  E(RPBE1PBE) =  -816.391725214     A.U. after   12 cycles
            NFock= 12  Conv=0.47D-08     -V/T= 2.0059
   1 Symmetry operations used in ECPInt.
 ECPInt:  NShTT=    4278 NPrTT=   15746 LenC2=    4223 LenP2D=   11996.
 LDataN:  DoStor=T MaxTD1= 5 Len=  102
 Calling FoFJK, ICntrl=      2127 FMM=F ISym2X=0 I1Cent= 0 IOpClX= 0 NMat=1 NMatS=1 NMatT=0.
 ***** Axes restored to original set *****
 -------------------------------------------------------------------
 Center     Atomic                   Forces (Hartrees/Bohr)
 Number     Number              X              Y              Z
 -------------------------------------------------------------------
      1        7          -0.001583948    0.002455395    0.003759351
      2       16           0.004681712   -0.000554100   -0.003839280
      3        6          -0.000442085    0.001206014    0.001802305
      4        6          -0.000817713    0.000220832   -0.000916572
      5        6          -0.000772641   -0.001745987   -0.000389073
      6        8           0.000066449    0.001049546    0.000349277
      7        6           0.000992822    0.001476529    0.000697212
      8        6           0.000447777    0.000541342   -0.000564012
      9        6          -0.000106525   -0.000716492   -0.000807840
     10        7          -0.003615920   -0.002218986    0.002503428
     11        1           0.000108488    0.000438203   -0.001867481
     12        1          -0.000911295    0.000759235   -0.000696713
     13        1          -0.000356325    0.000318635    0.001344106
     14        1           0.001190244    0.000210774   -0.000365382
     15        1          -0.001629074   -0.000995532   -0.000099476
     16        1           0.000928389   -0.002056092   -0.000554095
     17        1          -0.000814107   -0.001483276    0.000400209
     18        1          -0.001156328    0.001435143    0.000212389
     19        1           0.001684580    0.000268820   -0.000262351
     20        1           0.002105498   -0.000610002   -0.000706002
 -------------------------------------------------------------------
 Cartesian Forces:  Max     0.004681712 RMS     0.001494632

 GradGradGradGradGradGradGradGradGradGradGradGradGradGradGradGradGradGrad
 Berny optimization.
 Using GEDIIS/GDIIS optimizer.
 FormGI is forming the generalized inverse of G from B-inverse, IUseBI=4.
 Internal  Forces:  Max     0.003723964 RMS     0.000883684
 Search for a local minimum.
 Step number   3 out of a maximum of  106
[...]
                 (A) (A) (A) (A) (A) (A) (A) (A) (A) (A) (A) (A)
                 (A) (A) (A) (A) (A) (A) (A) (A) (A) (A)
 The electronic state is 1-A.
 Alpha  occ. eigenvalues --  -89.17639 -19.28984 -14.34599 -14.34521 -10.30286
 Alpha  occ. eigenvalues --  -10.28258 -10.25289 -10.25117 -10.23566 -10.23424
 Alpha  occ. eigenvalues --   -8.13172  -6.06809  -6.06686  -6.06615  -1.16348
 Alpha  occ. eigenvalues --   -1.00315  -0.86027  -0.84273  -0.81865  -0.77205
 Alpha  occ. eigenvalues --   -0.72275  -0.67143  -0.61934  -0.57362  -0.54890
 Alpha  occ. eigenvalues --   -0.51516  -0.50115  -0.47518  -0.46731  -0.45961
 Alpha  occ. eigenvalues --   -0.43252  -0.42844  -0.42785  -0.42272  -0.41348
 Alpha  occ. eigenvalues --   -0.39521  -0.35555  -0.31273  -0.29265  -0.26929
 Alpha  occ. eigenvalues --   -0.25132  -0.24496
 Alpha virt. eigenvalues --   -0.01048   0.02410   0.03679   0.06634   0.07276
 Alpha virt. eigenvalues --    0.07512   0.08048   0.08945   0.09522   0.10402
 Alpha virt. eigenvalues --    0.11345   0.12135   0.12253   0.12850   0.12903
 Alpha virt. eigenvalues --    0.13787   0.14973   0.16865   0.17935   0.20305
 Alpha virt. eigenvalues --    0.21201   0.22504   0.22593   0.23695   0.24821
 Alpha virt. eigenvalues --    0.26640   0.27836   0.28549   0.29425   0.29889
 Alpha virt. eigenvalues --    0.30838   0.32317   0.32459   0.33810   0.34133
 Alpha virt. eigenvalues --    0.35400   0.35949   0.37937   0.39253   0.40294
 Alpha virt. eigenvalues --    0.40755   0.41071   0.42029   0.42687   0.44027
 Alpha virt. eigenvalues --    0.44462   0.45371   0.46095   0.47251   0.48352
 Alpha virt. eigenvalues --    0.49152   0.49771   0.51114   0.51978   0.52438
 Alpha virt. eigenvalues --    0.54029   0.54413   0.55142   0.55506   0.56639
 Alpha virt. eigenvalues --    0.58002   0.59240   0.61251   0.62606   0.63422
 Alpha virt. eigenvalues --    0.64769   0.66283   0.69452   0.70478   0.71482
 Alpha virt. eigenvalues --    0.72907   0.73934   0.75265   0.77275   0.78023
 Alpha virt. eigenvalues --    0.79433   0.79936   0.82656   0.83470   0.83769
 Alpha virt. eigenvalues --    0.85648   0.85767   0.89882   0.92375   0.92785
 Alpha virt. eigenvalues --    0.95210   0.97311   0.98020   0.98660   1.00832
 Alpha virt. eigenvalues --    1.01909   1.03329   1.07061   1.07414   1.07925
 Alpha virt. eigenvalues --    1.10559   1.13925   1.14566   1.16009   1.17317
 Alpha virt. eigenvalues --    1.17966   1.21099   1.22396   1.24281   1.26027
 Alpha virt. eigenvalues --    1.28426   1.30195   1.31213   1.35264   1.38848
 Alpha virt. eigenvalues --    1.40452   1.41854   1.43040   1.45314   1.47220
 Alpha virt. eigenvalues --    1.48690   1.49770   1.51081   1.52174   1.53649
 Alpha virt. eigenvalues --    1.54079   1.55224   1.56109   1.56305   1.57867
 Alpha virt. eigenvalues --    1.60694   1.61186   1.62400   1.62722   1.65829
 Alpha virt. eigenvalues --    1.66130   1.68653   1.70367   1.72148   1.73174
 Alpha virt. eigenvalues --    1.75956   1.76886   1.78750   1.80378   1.84040
 Alpha virt. eigenvalues --    1.85222   1.86963   1.88140   1.90430   1.91980
 Alpha virt. eigenvalues --    1.93075   1.95333   1.96176   1.98054   2.00497
 Alpha virt. eigenvalues --    2.01398   2.01929   2.02612   2.03697   2.05083
 Alpha virt. eigenvalues --    2.07291   2.07435   2.08368   2.10264   2.12092
 Alpha virt. eigenvalues --    2.14205   2.16090   2.17506   2.18118   2.19385
 Alpha virt. eigenvalues --    2.20310   2.22164   2.23747   2.24934   2.27669
 Alpha virt. eigenvalues --    2.28941   2.29976   2.32400   2.33433   2.34494
 Alpha virt. eigenvalues --    2.39832   2.41413   2.42357   2.43623   2.46667
 Alpha virt. eigenvalues --    2.49330   2.50704   2.51287   2.53643   2.55078
 Alpha virt. eigenvalues --    2.56351   2.58140   2.59506   2.60832   2.61459
 Alpha virt. eigenvalues --    2.62368   2.64275   2.66302   2.66631   2.69876
 Alpha virt. eigenvalues --    2.70152   2.71936   2.72620   2.75762   2.76586
 Alpha virt. eigenvalues --    2.76907   2.79347   2.80892   2.82154   2.84339
 Alpha virt. eigenvalues --    2.85646   2.88629   2.89866   2.91734   2.95237
 Alpha virt. eigenvalues --    2.97725   2.98445   3.02797   3.05787   3.06759
 Alpha virt. eigenvalues --    3.08477   3.08604   3.10104   3.12309   3.12758
 Alpha virt. eigenvalues --    3.15397   3.16609   3.16785   3.19425   3.20093
 Alpha virt. eigenvalues --    3.20973   3.22520   3.22754   3.26264   3.27514
 Alpha virt. eigenvalues --    3.28706   3.30284   3.33590   3.35250   3.36379
 Alpha virt. eigenvalues --    3.36993   3.38454   3.39997   3.40921   3.41873
 Alpha virt. eigenvalues --    3.46727   3.47985   3.49868   3.52264   3.54807
 Alpha virt. eigenvalues --    3.56310   3.59255   3.61311   3.61939   3.65491
 Alpha virt. eigenvalues --    3.67146   3.70447   3.71303   3.74529   3.77548
 Alpha virt. eigenvalues --    3.78270   3.84863   3.86649   3.88840   3.95703
 Alpha virt. eigenvalues --    3.97701   4.02573   4.07485   4.09508   4.13304
 Alpha virt. eigenvalues --    4.15219   4.17758   4.18400   4.18926   4.20894
 Alpha virt. eigenvalues --    4.22605   4.26509   4.26905   4.29337   4.29681
 Alpha virt. eigenvalues --    4.32623   4.34029   4.36248   4.39472   4.40539
 Alpha virt. eigenvalues --    4.44568   4.47391   4.50640   4.54673   4.58374
 Alpha virt. eigenvalues --    4.61164   4.64059   4.65885   4.70350   4.70723
 Alpha virt. eigenvalues --    4.73984   4.74195   4.77704   4.82308   4.84251
 Alpha virt. eigenvalues --    4.87512   4.93209   4.97049   5.02547   5.07011
 Alpha virt. eigenvalues --    5.09255   5.11257   5.16590   5.18718   5.23882
 Alpha virt. eigenvalues --    5.27022   5.37653   5.40913   5.55503   5.58777
 Alpha virt. eigenvalues --    5.64664   5.78891   5.81303   5.96692   6.32568
 Alpha virt. eigenvalues --    6.53635   6.68388   6.80357   6.82565   7.24722
 Alpha virt. eigenvalues --    7.34024   9.44129   9.53167   9.65415  21.71141
 Alpha virt. eigenvalues --   22.31880  22.33344  22.45034  22.84277  22.89632
 Alpha virt. eigenvalues --   23.37872  31.87883  31.95259  44.19074
          Condensed to atoms (all electrons):
               1          2          3          4          5          6
     1  N    6.922522   0.520055  -0.130937   0.012631  -0.000841  -0.000272
     2  S    0.520055  14.071723   0.298544  -0.053787  -0.004305   0.002022
     3  C   -0.130937   0.298544   5.386406   0.493933  -0.036196  -0.095891
     4  C    0.012631  -0.053787   0.493933   5.086223   0.215335   0.377120
     5  C   -0.000841  -0.004305  -0.036196   0.215335   5.052914  -0.022762
     6  O   -0.000272   0.002022  -0.095891   0.377120  -0.022762   7.691775
     7  C   -0.003119   0.006441  -0.019973  -0.157380  -0.006016   0.341601
     8  C    0.021347  -0.017801   0.293703  -0.063717   0.025970  -0.089454
     9  C   -0.053154   0.289539  -0.082284  -0.001137   0.005074  -0.000531
    10  N   -0.073888   0.520586  -0.060800  -0.000164  -0.024113  -0.000272
    11  H    0.309588  -0.017915   0.017126  -0.000687  -0.000024   0.000019
    12  H    0.000046   0.000466  -0.003251  -0.030700   0.392178   0.000091
    13  H    0.000002  -0.000266  -0.007217  -0.030389   0.390086  -0.000305
    14  H    0.001085   0.004103  -0.008275  -0.052831   0.431169   0.002338
    15  H   -0.000092  -0.000192   0.011147   0.000585  -0.000526  -0.028855
    16  H    0.014446  -0.000655  -0.033979   0.010995  -0.000174   0.003441
    17  H    0.003538  -0.021610   0.001745   0.002560  -0.000682   0.000034
    18  H    0.005210  -0.011975   0.008171  -0.009280   0.002668   0.000143
    19  H    0.001088  -0.014399   0.007620   0.000220  -0.000271   0.000006
    20  H   -0.002036  -0.025653  -0.001607  -0.004690   0.002864  -0.000024
               7          8          9         10         11         12
     1  N   -0.003119   0.021347  -0.053154  -0.073888   0.309588   0.000046
     2  S    0.006441  -0.017801   0.289539   0.520586  -0.017915   0.000466
     3  C   -0.019973   0.293703  -0.082284  -0.060800   0.017126  -0.003251
     4  C   -0.157380  -0.063717  -0.001137  -0.000164  -0.000687  -0.030700
     5  C   -0.006016   0.025970   0.005074  -0.024113  -0.000024   0.392178
     6  O    0.341601  -0.089454  -0.000531  -0.000272   0.000019   0.000091
     7  C    4.929952   0.532397  -0.001951  -0.000241   0.000163   0.001019
     8  C    0.532397   5.129883   0.011562   0.009232  -0.002499  -0.000695
     9  C   -0.001951   0.011562   5.149173  -0.080016  -0.009654   0.000151
    10  N   -0.000241   0.009232  -0.080016   6.934888  -0.001372   0.000346
    11  H    0.000163  -0.002499  -0.009654  -0.001372   0.490314  -0.000002
    12  H    0.001019  -0.000695   0.000151   0.000346  -0.000002   0.536377
    13  H    0.001123  -0.000227  -0.000558   0.001179  -0.000000  -0.028390
    14  H   -0.000432  -0.000894  -0.003592   0.019598   0.000007  -0.011328
    15  H    0.421907  -0.045248   0.000003   0.000008   0.000000  -0.000016
    16  H   -0.035450   0.406864   0.000724   0.000310  -0.000569   0.000005
    17  H    0.000373  -0.003031   0.377920   0.005582   0.000046  -0.000014
    18  H    0.000224   0.000521   0.353353   0.002124   0.000222  -0.000104
    19  H    0.000049  -0.000713   0.374326   0.004220   0.002104   0.000010
    20  H   -0.000107   0.001326   0.013634   0.313535  -0.000321  -0.000108
              13         14         15         16         17         18
     1  N    0.000002   0.001085  -0.000092   0.014446   0.003538   0.005210
     2  S   -0.000266   0.004103  -0.000192  -0.000655  -0.021610  -0.011975
     3  C   -0.007217  -0.008275   0.011147  -0.033979   0.001745   0.008171
     4  C   -0.030389  -0.052831   0.000585   0.010995   0.002560  -0.009280
     5  C    0.390086   0.431169  -0.000526  -0.000174  -0.000682   0.002668
     6  O   -0.000305   0.002338  -0.028855   0.003441   0.000034   0.000143
     7  C    0.001123  -0.000432   0.421907  -0.035450   0.000373   0.000224
     8  C   -0.000227  -0.000894  -0.045248   0.406864  -0.003031   0.000521
     9  C   -0.000558  -0.003592   0.000003   0.000724   0.377920   0.353353
    10  N    0.001179   0.019598   0.000008   0.000310   0.005582   0.002124
    11  H   -0.000000   0.000007   0.000000  -0.000569   0.000046   0.000222
    12  H   -0.028390  -0.011328  -0.000016   0.000005  -0.000014  -0.000104
    13  H    0.555296  -0.019112   0.000011   0.000001   0.000107   0.000726
    14  H   -0.019112   0.457217   0.000026  -0.000049   0.000297  -0.001668
    15  H    0.000011   0.000026   0.495903  -0.001385  -0.000005   0.000002
    16  H    0.000001  -0.000049  -0.001385   0.474320   0.000252  -0.000074
    17  H    0.000107   0.000297  -0.000005   0.000252   0.510020  -0.016470
    18  H    0.000726  -0.001668   0.000002  -0.000074  -0.016470   0.529429
    19  H   -0.000062   0.000156  -0.000000  -0.000032  -0.014818  -0.011682
    20  H   -0.000003  -0.003239  -0.000000   0.000007  -0.000594  -0.000868
              19         20
     1  N    0.001088  -0.002036
     2  S   -0.014399  -0.025653
     3  C    0.007620  -0.001607
     4  C    0.000220  -0.004690
     5  C   -0.000271   0.002864
     6  O    0.000006  -0.000024
     7  C    0.000049  -0.000107
     8  C   -0.000713   0.001326
     9  C    0.374326   0.013634
    10  N    0.004220   0.313535
    11  H    0.002104  -0.000321
    12  H    0.000010  -0.000108
    13  H   -0.000062  -0.000003
    14  H    0.000156  -0.003239
    15  H   -0.000000  -0.000000
    16  H   -0.000032   0.000007
    17  H   -0.014818  -0.000594
    18  H   -0.011682  -0.000868
    19  H    0.503017  -0.000669
    20  H   -0.000669   0.491021
 Mulliken charges:
               1
     1  N   -0.547219
     2  S    0.455081
     3  C   -0.037985
     4  C    0.205160
     5  C   -0.422348
     6  O   -0.180224
     7  C   -0.010581
     8  C   -0.208526
     9  C   -0.342585
    10  N   -0.570742
    11  H    0.213455
    12  H    0.143920
    13  H    0.137997
    14  H    0.185423
    15  H    0.146728
    16  H    0.161003
    17  H    0.154750
    18  H    0.149328
    19  H    0.149830
    20  H    0.217534
 Sum of Mulliken charges =  -0.00000
 Mulliken charges with hydrogens summed into heavy atoms:
               1
     1  N   -0.333764
     2  S    0.455081
     3  C   -0.037985
     4  C    0.205160
     5  C    0.044992
     6  O   -0.180224
     7  C    0.136148
     8  C   -0.047523
     9  C    0.111324
    10  N   -0.353208
 Electronic spatial extent (au):  <R**2>=           1590.7430
 Charge=              0.0000 electrons
 Dipole moment (field-independent basis, Debye):
    X=              1.1764    Y=              0.5104    Z=              1.6116  Tot=              2.0595
 Quadrupole moment (field-independent basis, Debye-Ang):
   XX=            -64.3459   YY=            -68.8012   ZZ=            -64.6806
   XY=              0.3090   XZ=             -2.9715   YZ=             -0.1840
 Traceless Quadrupole moment (field-independent basis, Debye-Ang):
   XX=              1.5967   YY=             -2.8586   ZZ=              1.2620
   XY=              0.3090   XZ=             -2.9715   YZ=             -0.1840
 Octapole moment (field-independent basis, Debye-Ang**2):
  XXX=             -2.1355  YYY=              2.8577  ZZZ=             -3.3691  XYY=             22.5454
  XXY=            -18.8690  XXZ=              4.5817  XZZ=             -7.3853  YZZ=              7.8595
  YYZ=              4.7595  XYZ=             -3.1601
 Hexadecapole moment (field-independent basis, Debye-Ang**3):
 XXXX=          -1141.4909 YYYY=           -640.4777 ZZZZ=           -235.9714 XXXY=              2.6217
 XXXZ=             -8.3676 YYYX=              1.1644 YYYZ=              0.0746 ZZZX=              6.6620
 ZZZY=             -9.9236 XXYY=           -300.8787 XXZZ=           -239.3092 YYZZ=           -150.9224
 XXYZ=              7.8893 YYXZ=             -4.9788 ZZXY=              3.8174
 N-N= 6.605428283299D+02 E-N=-3.243450823865D+03  KE= 8.142004326129D+02
 Breneman (CHELPG) radii used.
 Read replacement radii for each type of atom:
 Atom Element Radius
    1     7    1.70
    2    16    2.00
    3     6    1.50
    4     6    1.50
    5     6    1.50
    6     8    1.70
    7     6    1.50
    8     6    1.50
    9     6    1.50
   10     7    1.70
   11     1    1.45
   12     1    1.45
   13     1    1.45
   14     1    1.45
   15     1    1.45
   16     1    1.45
   17     1    1.45
   18     1    1.45
   19     1    1.45
   20     1    1.45
 Generate Potential Derived Charges using the Breneman model, NDens= 1.
 Grid spacing= 0.300 Box extension= 2.800
 NStep X,Y,Z=   41     37     34   Total possible points=       51578
 Number of Points to Fit=   13573

 **********************************************************************

            Electrostatic Properties Using The SCF Density.

 **********************************************************************

       Atomic Center    1 is at  -1.791402 -1.561658 -0.493197
       Atomic Center    2 is at  -1.350256 -0.120317 -0.138827
       Atomic Center    3 is at   0.402479 -0.340368 -0.039663
       Atomic Center    4 is at   1.337873  0.664545 -0.036606
       Atomic Center    5 is at   1.246983  2.139633 -0.087703
       Atomic Center    6 is at   2.561966  0.106826  0.031023
       Atomic Center    7 is at   2.420428 -1.241731  0.067472
       Atomic Center    8 is at   1.107109 -1.584209  0.025706
       Atomic Center    9 is at  -1.754392  0.356857  1.546905
       Atomic Center   10 is at  -1.797582  1.158417 -0.899893
       Atomic Center   11 is at  -2.805769 -1.544695 -0.629278
       Atomic Center   12 is at   1.908936  2.539637 -0.870610
       Atomic Center   13 is at   1.555812  2.590116  0.869574
       Atomic Center   14 is at   0.209539  2.425013 -0.310108
       Atomic Center   15 is at   3.341773 -1.816020  0.112334
       Atomic Center   16 is at   0.653686 -2.571059  0.020688
       Atomic Center   17 is at  -1.431798 -0.459591  2.204146
       Atomic Center   18 is at  -1.260362  1.303327  1.798652
       Atomic Center   19 is at  -2.845200  0.481506  1.571409
       Atomic Center   20 is at  -1.658249  0.976540 -1.898798
   13573 points will be used for fitting atomic charges
 Fitting point charges to electrostatic potential
 Charges from ESP fit, RMS=   0.00297 RRMS=   0.21661:
 ESP charges:
               1
     1  N   -0.756782
     2  S    0.713974
     3  C   -0.059257
     4  C    0.280554
     5  C   -0.372460
     6  O   -0.170844
     7  C   -0.084786
     8  C   -0.176417
     9  C   -0.316121
    10  N   -0.760217
    11  H    0.330253
    12  H    0.117736
    13  H    0.111730
    14  H    0.143034
    15  H    0.157371
    16  H    0.156052
    17  H    0.105572
    18  H    0.121921
    19  H    0.148413
    20  H    0.310275
 Sum of ESP charges =  -0.00000
 ESP charges with hydrogens summed into heavy atoms:
               1
     1  N   -0.426529
     2  S    0.713974
     3  C   -0.059257
     4  C    0.280554
     5  C    0.000040
     6  O   -0.170844
     7  C    0.072584
     8  C   -0.020366
     9  C    0.059785
    10  N   -0.449942
 Charge=  -0.00000 Dipole=     1.2002     0.4881     1.6228 Tot=     2.0766
 -----------------------------------------------------------------

              Electrostatic Properties (Atomic Units)

 -----------------------------------------------------------------
    Center     Electric         -------- Electric Field --------
               Potential          X             Y             Z
 -----------------------------------------------------------------
    1 Atom    -18.427828
    2 Atom    -59.071391
    3 Atom    -14.740339
    4 Atom    -14.688041
    5 Atom    -14.752184
    6 Atom    -22.266110
    7 Atom    -14.708630
    8 Atom    -14.756454
    9 Atom    -14.736751
   10 Atom    -18.427197
   11 Atom     -1.051087
   12 Atom     -1.093526
   13 Atom     -1.092524
   14 Atom     -1.097670
   15 Atom     -1.068084
   16 Atom     -1.084234
   17 Atom     -1.079218
   18 Atom     -1.077258
   19 Atom     -1.076353
   20 Atom     -1.053312
 -----------------------------------------------------------------
 Unable to Open any file for archive entry.
 1\1\GINC-NOTCH033\SP\RPBE1PBE\def2TZVP\C6H10N2O1S1\U1414944\24-Feb-202
 5\0\\#N Guess=Read Geom=Check Integral(Ultrafine) Density Pop=(ChelpG,
 ReadRadii) NMR pbe1pbe EmpiricalDispersion=GD3BJ def2TZVP\\SDI0291_2\\
 0,1\N,0,-1.9077740815,1.3127792797,0.731046418\S,0,-1.377723119,-0.004
 5011822,0.1134137371\C,0,0.3596202931,0.3296893284,0.0963693935\C,0,1.
 3534106948,-0.6006718651,-0.081480766\C,0,1.3503764279,-2.0601756379,-
 0.3193788308\O,0,2.5425795427,0.0280364699,-0.0134340125\C,0,2.3210321
 901,1.3476072321,0.2093151939\C,0,0.9892344558,1.6003441786,0.28856805
 36\C,0,-1.7357717344,-0.1661886846,-1.6411158272\N,0,-1.7553597653,-1.
 4302914722,0.6022847578\H,0,-2.9206187343,1.2121303343,0.8394979356\H,
 0,2.0272205792,-2.5668718676,0.3850856409\H,0,1.695120777,-2.297240592
 5,-1.3390063721\H,0,0.3296857302,-2.4417864256,-0.1788113267\H,0,3.206
 7920356,1.970936492,0.296420939\H,0,0.4775886643,2.5399677767,0.475160
 3585\H,0,-1.4560330471,0.7796313195,-2.1204808857\H,0,-1.1835474881,-1
 .0158934015,-2.0609941498\H,0,-2.8168760915,-0.3453275664,-1.712684336
 4\H,0,-1.6371202201,-1.4389401743,1.620247591\\Version=ES64L-G16RevC.0
 1\State=1-A\HF=-817.031812\RMSD=3.036e-09\Dipole=0.4803012,-0.0468209,
 -0.6508871\Quadrupole=1.1584764,-2.0204633,0.8619869,-0.4614994,2.1672
 586,-0.6013698\PG=C01 [X(C6H10N2O1S1)]\\@
 The archive entry for this job was punched.


 SILVERMAN'S PARADOX - IF MURPHY'S LAW CAN GO WRONG, IT WILL.
 Job cpu time:       0 days  0 hours 25 minutes 31.5 seconds.
 Elapsed time:       0 days  0 hours  1 minutes 43.2 seconds.
 File lengths (MBytes):  RWF=     97 Int=      0 D2E=      0 Chk=     14 Scr=      2
 Normal termination of Gaussian 16 at Mon Feb 24 19:57:54 2025.
