 Entering Gaussian System, Link 0=g16
 Input=SDI2997_1.com
 Output=SDI2997_1.log
 Initial command:
 /uufs/chpc.utah.edu/sys/installdir/gaussian16/C01/AVX/g16/l1.exe "/scratch/general/vast/u1414944/4689619-notchpeak.peaks/Gau-2534948.inp" -scrdir="/scratch/general/vast/u1414944/4689619-notchpeak.peaks/"
 Entering Link 1 = /uufs/chpc.utah.edu/sys/installdir/gaussian16/C01/AVX/g16/l1.exe PID=   2534950.
  
 Copyright (c) 1988-2019, Gaussian, Inc.  All Rights Reserved.
  
 This is part of the Gaussian(R) 16 program.  It is based on
 the Gaussian(R) 09 system (copyright 2009, Gaussian, Inc.),
 the Gaussian(R) 03 system (copyright 2003, Gaussian, Inc.),
 the Gaussian(R) 98 system (copyright 1998, Gaussian, Inc.),
 the Gaussian(R) 94 system (copyright 1995, Gaussian, Inc.),
 the Gaussian 92(TM) system (copyright 1992, Gaussian, Inc.),
 the Gaussian 90(TM) system (copyright 1990, Gaussian, Inc.),
 the Gaussian 88(TM) system (copyright 1988, Gaussian, Inc.),
 the Gaussian 86(TM) system (copyright 1986, Carnegie Mellon
 University), and the Gaussian 82(TM) system (copyright 1983,
 Carnegie Mellon University). Gaussian is a federally registered
 trademark of Gaussian, Inc.
  
 This software contains proprietary and confidential information,
 including trade secrets, belonging to Gaussian, Inc.
  
 This software is provided under written license and may be
 used, copied, transmitted, or stored only in accord with that
 written license.
  
 The following legend is applicable only to US Government
 contracts under FAR:
  
                    RESTRICTED RIGHTS LEGEND
  
 Use, reproduction and disclosure by the US Government is
 subject to restrictions as set forth in subparagraphs (a)
 and (c) of the Commercial Computer Software - Restricted
 Rights clause in FAR 52.227-19.
  
 Gaussian, Inc.
 340 Quinnipiac St., Bldg. 40, Wallingford CT 06492
  
  
 ---------------------------------------------------------------
 Warning -- This program may not be used in any manner that
 competes with the business of Gaussian, Inc. or will provide
 assistance to any competitor of Gaussian, Inc.  The licensee
 of this program is prohibited from giving any competitor of
 Gaussian, Inc. access to this program.  By using this program,
 the user acknowledges that Gaussian, Inc. is engaged in the
 business of creating and licensing software in the field of
 computational chemistry and represents and warrants to the
 licensee that it is not a competitor of Gaussian, Inc. and that
 it will not use this program in any manner prohibited above.
 ---------------------------------------------------------------
  

 Cite this work as:
 Gaussian 16, Revision C.01,
 M. J. Frisch, G. W. Trucks, H. B. Schlegel, G. E. Scuseria, 
 M. A. Robb, J. R. Cheeseman, G. Scalmani, V. Barone, 
 G. A. Petersson, H. Nakatsuji, X. Li, M. Caricato, A. V. Marenich, 
 J. Bloino, B. G. Janesko, R. Gomperts, B. Mennucci, H. P. Hratchian, 
 J. V. Ortiz, A. F. Izmaylov, J. L. Sonnenberg, D. Williams-Young, 
 F. Ding, F. Lipparini, F. Egidi, J. Goings, B. Peng, A. Petrone, 
 T. Henderson, D. Ranasinghe, V. G. Zakrzewski, J. Gao, N. Rega, 
 G. Zheng, W. Liang, M. Hada, M. Ehara, K. Toyota, R. Fukuda, 
 J. Hasegawa, M. Ishida, T. Nakajima, Y. Honda, O. Kitao, H. Nakai, 
 T. Vreven, K. Throssell, J. A. Montgomery, Jr., J. E. Peralta, 
 F. Ogliaro, M. J. Bearpark, J. J. Heyd, E. N. Brothers, K. N. Kudin, 
 V. N. Staroverov, T. A. Keith, R. Kobayashi, J. Normand, 
 K. Raghavachari, A. P. Rendell, J. C. Burant, S. S. Iyengar, 
 J. Tomasi, M. Cossi, J. M. Millam, M. Klene, C. Adamo, R. Cammi, 
 J. W. Ochterski, R. L. Martin, K. Morokuma, O. Farkas, 
 J. B. Foresman, and D. J. Fox, Gaussian, Inc., Wallingford CT, 2019.
 
 ******************************************
 Gaussian 16:  ES64L-G16RevC.01  3-Jul-2019
                 7-Jun-2025 
 ******************************************
 %NProcShared=16
 Will use up to   16 processors via shared memory.
 %Mem=40GB
 %chk=SDI2997_1.chk
 ----------------------------------------------------------------------
 #N OPT FREQ=NORAMAN Integral(Ultrafine) pbe1pbe EmpiricalDispersion=GD
 3BJ def2SVP
 ----------------------------------------------------------------------
 1/18=20,19=15,26=4,38=1/1,3;
 2/9=110,12=2,17=6,18=5,40=1/2;
 3/5=43,7=101,11=2,25=1,30=1,71=1,74=-13,75=-5,124=41/1,2,3;
 4//1;
 5/5=2,38=5/2;
 6/7=2,8=2,9=2,10=2,28=1/1;
 7//1,2,3,16;
 1/18=20,19=15,26=4/3(2);
 2/9=110/2;
 99//99;
 2/9=110/2;
 3/5=43,7=101,11=2,25=1,30=1,71=1,74=-13,75=-5,124=41/1,2,3;
 4/5=5,16=3,69=1/1;
 5/5=2,38=5/2;
 7//1,2,3,16;
 1/18=20,19=15,26=4/3(-5);
 2/9=110/2;
 6/7=2,8=2,9=2,10=2,19=2,28=1/1;
 99/9=1/99;
 ---------
 SDI2997_1
 ---------
 Symbolic Z-matrix:
 Charge =  0 Multiplicity = 1
 N                    -4.42853  -0.99108  -0.40145 
 S                    -3.13724  -0.40009   0.14207 
 C                    -2.00365   0.11543  -1.29969 
 C                    -0.75472   0.68535  -0.7679 
 C                    -0.73022   1.99449  -0.28633 
 C                     0.4137    2.51162   0.29335 
 C                     1.55778   1.73897   0.4056 
 C                     1.53222   0.44292  -0.08014 
 Br                    3.09765  -0.64185   0.05804 
 C                     0.39673  -0.09141  -0.65966 
 C                    -2.21325  -1.86457   0.72673 
 N                    -3.319     0.7129    1.17224 
 H                    -5.21671  -0.36842  -0.36379 
 H                    -2.59917   0.84029  -1.84812 
 H                    -1.86697  -0.7876   -1.88465 
 H                    -1.6167    2.60474  -0.37137 
 H                     0.41994   3.52579   0.66252 
 H                     2.45352   2.1359    0.85649 
 H                     0.40926  -1.10254  -1.0394 
 H                    -2.69637  -2.20767   1.63361 
 H                    -1.18429  -1.58729   0.92138 
 H                    -2.28894  -2.61718  -0.04641 
 H                    -2.463     1.10705   1.52535 
 

 GradGradGradGradGradGradGradGradGradGradGradGradGradGradGradGradGradGrad
 Berny optimization.
 Initialization pass.
                           ----------------------------
                           !    Initial Parameters    !
                           ! (Angstroms and Degrees)  !
 --------------------------                            --------------------------
 ! Name  Definition              Value          Derivative Info.                !
 --------------------------------------------------------------------------------
 ! R1    R(1,2)                  1.5206         estimate D2E/DX2                !
 ! R2    R(1,13)                 1.0052         estimate D2E/DX2                !
 ! R3    R(2,3)                  1.9051         estimate D2E/DX2                !
 ! R4    R(2,11)                 1.8276         estimate D2E/DX2                !
 ! R5    R(2,12)                 1.5274         estimate D2E/DX2                !
 ! R6    R(3,4)                  1.4722         estimate D2E/DX2                !
 ! R7    R(3,14)                 1.0867         estimate D2E/DX2                !
 ! R8    R(3,15)                 1.0846         estimate D2E/DX2                !
 ! R9    R(4,5)                  1.3951         estimate D2E/DX2                !
 ! R10   R(4,10)                 1.3932         estimate D2E/DX2                !
 ! R11   R(5,6)                  1.3828         estimate D2E/DX2                !
 ! R12   R(5,16)                 1.0796         estimate D2E/DX2                !
 ! R13   R(6,7)                  1.3851         estimate D2E/DX2                !
 ! R14   R(6,17)                 1.0793         estimate D2E/DX2                !
 ! R15   R(7,8)                  1.3843         estimate D2E/DX2                !
 ! R16   R(7,18)                 1.0785         estimate D2E/DX2                !
 ! R17   R(8,9)                  1.9096         estimate D2E/DX2                !
 ! R18   R(8,10)                 1.3823         estimate D2E/DX2                !
 ! R19   R(10,19)                1.0802         estimate D2E/DX2                !
 ! R20   R(11,20)                1.0833         estimate D2E/DX2                !
 ! R21   R(11,21)                1.0833         estimate D2E/DX2                !
 ! R22   R(11,22)                1.0816         estimate D2E/DX2                !
 ! R23   R(12,23)                1.0064         estimate D2E/DX2                !
 ! A1    A(2,1,13)             114.3145         estimate D2E/DX2                !
 ! A2    A(1,2,3)              109.875          estimate D2E/DX2                !
 ! A3    A(1,2,11)             103.4296         estimate D2E/DX2                !
 ! A4    A(1,2,12)             115.0385         estimate D2E/DX2                !
 ! A5    A(3,2,11)              99.0969         estimate D2E/DX2                !
 ! A6    A(3,2,12)             112.5842         estimate D2E/DX2                !
 ! A7    A(11,2,12)            115.3586         estimate D2E/DX2                !
 ! A8    A(2,3,4)              109.6434         estimate D2E/DX2                !
 ! A9    A(2,3,14)             103.6711         estimate D2E/DX2                !
 ! A10   A(2,3,15)             104.9421         estimate D2E/DX2                !
 ! A11   A(4,3,14)             112.8916         estimate D2E/DX2                !
 ! A12   A(4,3,15)             114.2194         estimate D2E/DX2                !
 ! A13   A(14,3,15)            110.625          estimate D2E/DX2                !
 ! A14   A(3,4,5)              120.1881         estimate D2E/DX2                !
 ! A15   A(3,4,10)             120.8885         estimate D2E/DX2                !
 ! A16   A(5,4,10)             118.8071         estimate D2E/DX2                !
 ! A17   A(4,5,6)              120.6753         estimate D2E/DX2                !
 ! A18   A(4,5,16)             119.2634         estimate D2E/DX2                !
 ! A19   A(6,5,16)             120.0613         estimate D2E/DX2                !
 ! A20   A(5,6,7)              120.5756         estimate D2E/DX2                !
 ! A21   A(5,6,17)             119.9739         estimate D2E/DX2                !
 ! A22   A(7,6,17)             119.4505         estimate D2E/DX2                !
 ! A23   A(6,7,8)              118.5919         estimate D2E/DX2                !
 ! A24   A(6,7,18)             120.9701         estimate D2E/DX2                !
 ! A25   A(8,7,18)             120.4372         estimate D2E/DX2                !
 ! A26   A(7,8,9)              119.4276         estimate D2E/DX2                !
 ! A27   A(7,8,10)             121.6137         estimate D2E/DX2                !
 ! A28   A(9,8,10)             118.958          estimate D2E/DX2                !
 ! A29   A(4,10,8)             119.7346         estimate D2E/DX2                !
 ! A30   A(4,10,19)            120.278          estimate D2E/DX2                !
 ! A31   A(8,10,19)            119.9812         estimate D2E/DX2                !
 ! A32   A(2,11,20)            107.2249         estimate D2E/DX2                !
 ! A33   A(2,11,21)            109.4259         estimate D2E/DX2                !
 ! A34   A(2,11,22)            107.068          estimate D2E/DX2                !
 ! A35   A(20,11,21)           110.7476         estimate D2E/DX2                !
 ! A36   A(20,11,22)           110.2916         estimate D2E/DX2                !
 ! A37   A(21,11,22)           111.9011         estimate D2E/DX2                !
 ! A38   A(2,12,23)            114.8857         estimate D2E/DX2                !
 ! D1    D(13,1,2,3)          -102.6253         estimate D2E/DX2                !
 ! D2    D(13,1,2,11)          152.3543         estimate D2E/DX2                !
 ! D3    D(13,1,2,12)           25.6608         estimate D2E/DX2                !
 ! D4    D(1,2,3,4)           -179.9366         estimate D2E/DX2                !
 ! D5    D(1,2,3,14)            59.2735         estimate D2E/DX2                !
 ! D6    D(1,2,3,15)           -56.8381         estimate D2E/DX2                !
 ! D7    D(11,2,3,4)           -71.9986         estimate D2E/DX2                !
 ! D8    D(11,2,3,14)          167.2116         estimate D2E/DX2                !
 ! D9    D(11,2,3,15)           51.0999         estimate D2E/DX2                !
 ! D10   D(12,2,3,4)            50.4375         estimate D2E/DX2                !
 ! D11   D(12,2,3,14)          -70.3523         estimate D2E/DX2                !
 ! D12   D(12,2,3,15)          173.5361         estimate D2E/DX2                !
 ! D13   D(1,2,11,20)          -73.0166         estimate D2E/DX2                !
 ! D14   D(1,2,11,21)          166.8106         estimate D2E/DX2                !
 ! D15   D(1,2,11,22)           45.3426         estimate D2E/DX2                !
 ! D16   D(3,2,11,20)          173.8912         estimate D2E/DX2                !
 ! D17   D(3,2,11,21)           53.7184         estimate D2E/DX2                !
 ! D18   D(3,2,11,22)          -67.7496         estimate D2E/DX2                !
 ! D19   D(12,2,11,20)          53.4741         estimate D2E/DX2                !
 ! D20   D(12,2,11,21)         -66.6987         estimate D2E/DX2                !
 ! D21   D(12,2,11,22)         171.8333         estimate D2E/DX2                !
 ! D22   D(1,2,12,23)         -179.5676         estimate D2E/DX2                !
 ! D23   D(3,2,12,23)          -52.6481         estimate D2E/DX2                !
 ! D24   D(11,2,12,23)          60.0966         estimate D2E/DX2                !
 ! D25   D(2,3,4,5)            -78.2419         estimate D2E/DX2                !
 ! D26   D(2,3,4,10)            97.7895         estimate D2E/DX2                !
 ! D27   D(14,3,4,5)            36.79           estimate D2E/DX2                !
 ! D28   D(14,3,4,10)         -147.1787         estimate D2E/DX2                !
 ! D29   D(15,3,4,5)           164.322          estimate D2E/DX2                !
 ! D30   D(15,3,4,10)          -19.6467         estimate D2E/DX2                !
 ! D31   D(3,4,5,6)            175.8451         estimate D2E/DX2                !
 ! D32   D(3,4,5,16)            -4.2208         estimate D2E/DX2                !
 ! D33   D(10,4,5,6)            -0.2683         estimate D2E/DX2                !
 ! D34   D(10,4,5,16)          179.6659         estimate D2E/DX2                !
 ! D35   D(3,4,10,8)          -175.9706         estimate D2E/DX2                !
 ! D36   D(3,4,10,19)            4.9294         estimate D2E/DX2                !
 ! D37   D(5,4,10,8)             0.1146         estimate D2E/DX2                !
 ! D38   D(5,4,10,19)         -178.9855         estimate D2E/DX2                !
 ! D39   D(4,5,6,7)              0.0572         estimate D2E/DX2                !
 ! D40   D(4,5,6,17)          -179.9738         estimate D2E/DX2                !
 ! D41   D(16,5,6,7)          -179.8765         estimate D2E/DX2                !
 ! D42   D(16,5,6,17)            0.0926         estimate D2E/DX2                !
 ! D43   D(5,6,7,8)              0.3045         estimate D2E/DX2                !
 ! D44   D(5,6,7,18)           179.9928         estimate D2E/DX2                !
 ! D45   D(17,6,7,8)          -179.6647         estimate D2E/DX2                !
 ! D46   D(17,6,7,18)            0.0236         estimate D2E/DX2                !
 ! D47   D(6,7,8,9)            179.8381         estimate D2E/DX2                !
 ! D48   D(6,7,8,10)            -0.4631         estimate D2E/DX2                !
 ! D49   D(18,7,8,9)             0.1481         estimate D2E/DX2                !
 ! D50   D(18,7,8,10)          179.8469         estimate D2E/DX2                !
 ! D51   D(7,8,10,4)             0.2544         estimate D2E/DX2                !
 ! D52   D(7,8,10,19)          179.3571         estimate D2E/DX2                !
 ! D53   D(9,8,10,4)           179.9545         estimate D2E/DX2                !
 ! D54   D(9,8,10,19)           -0.9427         estimate D2E/DX2                !
 --------------------------------------------------------------------------------
 Trust Radius=3.00D-01 FncErr=1.00D-07 GrdErr=1.00D-06 EigMax=2.50D+02 EigMin=1.00D-04
 Number of steps in this run=    125 maximum allowed number of steps=    138.
 GradGradGradGradGradGradGradGradGradGradGradGradGradGradGradGradGradGrad

                          Input orientation:                          
 ---------------------------------------------------------------------
 Center     Atomic      Atomic             Coordinates (Angstroms)
 Number     Number       Type             X           Y           Z
 ---------------------------------------------------------------------
      1          7           0       -4.428528   -0.991077   -0.401452
      2         16           0       -3.137238   -0.400093    0.142067
      3          6           0       -2.003645    0.115430   -1.299693
      4          6           0       -0.754716    0.685352   -0.767897
      5          6           0       -0.730221    1.994492   -0.286331
      6          6           0        0.413696    2.511625    0.293351
      7          6           0        1.557785    1.738969    0.405604
      8          6           0        1.532222    0.442922   -0.080140
      9         35           0        3.097652   -0.641852    0.058043
     10          6           0        0.396731   -0.091410   -0.659660
     11          6           0       -2.213252   -1.864568    0.726735
     12          7           0       -3.319004    0.712904    1.172242
     13          1           0       -5.216706   -0.368415   -0.363794
     14          1           0       -2.599173    0.840288   -1.848120
     15          1           0       -1.866971   -0.787597   -1.884650
     16          1           0       -1.616697    2.604737   -0.371367
     17          1           0        0.419942    3.525792    0.662518
     18          1           0        2.453523    2.135896    0.856488
     19          1           0        0.409265   -1.102544   -1.039405
     20          1           0       -2.696373   -2.207673    1.633610
     21          1           0       -1.184286   -1.587289    0.921381
     22          1           0       -2.288945   -2.617179   -0.046408
     23          1           0       -2.462999    1.107045    1.525354
 ---------------------------------------------------------------------
                    Distance matrix (angstroms):
                    1          2          3          4          5
     1  N    0.000000
     2  S    1.520560   0.000000
     3  C    2.812694   1.905117   0.000000
     4  C    4.054822   2.771757   1.472223   0.000000
     5  C    4.754403   3.422177   2.485837   1.395118   0.000000
     6  C    6.016544   4.594575   3.758068   2.413857   1.382752
     7  C    6.628758   5.166070   4.269391   2.799085   2.403963
     8  C    6.139228   4.750148   3.754586   2.400389   2.751096
     9  Br   7.548276   6.240141   5.332932   4.157450   4.660635
    10  C    4.915201   3.636893   2.492837   1.393164   2.400080
    11  C    2.635002   1.827641   2.840905   3.295959   4.256528
    12  N    2.571207   1.527436   2.863146   3.215660   3.236001
    13  H    1.005162   2.140347   3.381386   4.602508   5.071280
    14  H    2.965347   2.406014   1.086666   2.143106   2.695246
    15  H    2.966961   2.423081   1.084580   2.157273   3.403945
    16  H    4.564776   3.406563   2.684803   2.141095   1.079569
    17  H    6.711319   5.323249   4.621106   3.390282   2.137304
    18  H    7.663093   6.180473   5.347686   3.877564   3.385595
    19  H    4.880947   3.803550   2.715391   2.150614   3.384846
    20  H    2.936314   2.384619   3.805384   4.231650   5.020968
    21  H    3.553936   2.414702   2.916123   2.864103   3.807086
    22  H    2.710734   2.381301   3.019813   3.712292   4.873878
    23  H    3.460925   2.153962   3.029059   2.890511   2.659377
                    6          7          8          9         10
     6  C    0.000000
     7  C    1.385113   0.000000
     8  C    2.381202   1.384319   0.000000
     9  Br   4.147699   2.856624   1.909556   0.000000
    10  C    2.772058   2.415185   1.382278   2.848343   0.000000
    11  C    5.122474   5.225833   4.472598   5.490709   3.446475
    12  N    4.235669   5.042184   5.017543   6.652088   4.220127
    13  H    6.358294   7.136300   6.803437   8.329542   5.628050
    14  H    4.056678   4.813231   4.511327   6.187408   3.354988
    15  H    4.563989   4.832986   4.040414   5.333177   2.666388
    16  H    2.138461   3.380913   3.830659   5.740194   3.377309
    17  H    1.079286   2.133876   3.360475   4.990469   3.851343
    18  H    2.149230   1.078515   2.142948   2.961132   3.389688
    19  H    3.852074   3.388414   2.137683   2.940078   1.080165
    20  H    5.808665   5.931429   5.276704   6.205235   4.393740
    21  H    4.443992   4.341541   3.536130   4.469250   2.690160
    22  H    5.807265   5.829037   4.895576   5.738314   3.737438
    23  H    3.430167   4.221359   4.356657   6.011030   3.793236
                   11         12         13         14         15
    11  C    0.000000
    12  N    2.839811   0.000000
    13  H    3.528238   2.670193   0.000000
    14  H    3.754339   3.107566   3.242787   0.000000
    15  H    2.845893   3.701958   3.702627   1.785347   0.000000
    16  H    4.640733   2.976510   4.669022   2.501867   3.722982
    17  H    5.999485   4.706578   6.927480   4.757130   5.506665
    18  H    6.148117   5.953711   8.160458   5.875648   5.892989
    19  H    3.252310   4.699704   5.713750   3.671419   2.448444
    20  H    1.083305   3.021638   3.704669   4.628386   3.883643
    21  H    1.083301   3.148148   4.404287   3.945272   2.996561
    22  H    1.081620   3.692638   3.705329   3.911072   2.627654
    23  H    3.087176   1.006370   3.650859   3.386743   3.946271
                   16         17         18         19         20
    16  H    0.000000
    17  H    2.462754   0.000000
    18  H    4.277163   2.470807   0.000000
    19  H    4.277234   4.931344   4.273277   0.000000
    20  H    5.323996   6.597504   6.781736   4.243973   0.000000
    21  H    4.408091   5.365087   5.205763   2.572754   1.782850
    22  H    5.275028   6.751054   6.774802   3.249691   1.776557
    23  H    2.560637   3.860851   5.067356   4.439614   3.324687
                   21         22         23
    21  H    0.000000
    22  H    1.793756   0.000000
    23  H    3.042914   4.046057   0.000000
 Stoichiometry    C8H11BrN2S
 Framework group  C1[X(C8H11BrN2S)]
 Deg. of freedom    63
 Full point group                 C1      NOp   1
 Largest Abelian subgroup         C1      NOp   1
 Largest concise Abelian subgroup C1      NOp   1
                         Standard orientation:                         
 ---------------------------------------------------------------------
 Center     Atomic      Atomic             Coordinates (Angstroms)
 Number     Number       Type             X           Y           Z
 ---------------------------------------------------------------------
      1          7           0        4.264556   -0.915907    0.389255
      2         16           0        2.957928   -0.355061   -0.149522
      3          6           0        1.813051    0.122629    1.296348
      4          6           0        0.549324    0.663438    0.769129
      5          6           0        0.490705    1.974350    0.295391
      6          6           0       -0.666742    2.465369   -0.280126
      7          6           0       -1.790742    1.664272   -0.395904
      8          6           0       -1.731387    0.366452    0.082088
      9         35           0       -3.268606   -0.757321   -0.061082
     10          6           0       -0.581923   -0.141977    0.657348
     11          6           0        2.071202   -1.839285   -0.742033
     12          7           0        3.109939    0.768325   -1.173220
     13          1           0        5.036449   -0.273001    0.354566
     14          1           0        2.390373    0.859274    1.848521
     15          1           0        1.700241   -0.787063    1.876044
     16          1           0        1.361316    2.606641    0.383227
     17          1           0       -0.699423    3.481213   -0.643241
     18          1           0       -2.696866    2.040736   -0.843574
     19          1           0       -0.568082   -1.155333    1.031077
     20          1           0        2.561981   -2.164488   -1.651389
     21          1           0        1.035245   -1.587367   -0.934058
     22          1           0        2.167033   -2.594275    0.026543
     23          1           0        2.243713    1.142445   -1.523175
 ---------------------------------------------------------------------
 Rotational constants (GHZ):           1.2915903           0.2761656           0.2453787
 Standard basis: def2SVP (5D, 7F)
 There are   259 symmetry adapted cartesian basis functions of A   symmetry.
 There are   245 symmetry adapted basis functions of A   symmetry.
   245 basis functions,   444 primitive gaussians,   259 cartesian basis functions
    62 alpha electrons       62 beta electrons
       nuclear repulsion energy      1086.0346013979 Hartrees.
 NAtoms=   23 NActive=   23 NUniq=   23 SFac= 1.00D+00 NAtFMM=   60 NAOKFM=F Big=F
 Integral buffers will be    131072 words long.
 Raffenetti 2 integral format.
 Two-electron integral symmetry is turned on.
 Nuclear repulsion after empirical dispersion term =     1086.0064132485 Hartrees.
 One-electron integrals computed using PRISM.
   1 Symmetry operations used in ECPInt.
 ECPInt:  NShTT=    6441 NPrTT=   25202 LenC2=    6142 LenP2D=   17702.
 LDataN:  DoStor=T MaxTD1= 4 Len=   56
 NBasis=   245 RedAO= T EigKep=  2.50D-04  NBF=   245
 NBsUse=   245 1.00D-06 EigRej= -1.00D+00 NBFU=   245
 ExpMin= 1.22D-01 ExpMax= 1.13D+05 ExpMxC= 1.70D+04 IAcc=3 IRadAn=         5 AccDes= 0.00D+00
 Harris functional with IExCor= 1009 and IRadAn=       5 diagonalized for initial guess.
 HarFok:  IExCor= 1009 AccDes= 0.00D+00 IRadAn=         5 IDoV= 1 UseB2=F ITyADJ=14
 ICtDFT=  3500011 ScaDFX=  1.000000  1.000000  1.000000  1.000000
 FoFCou: FMM=F IPFlag=           0 FMFlag=      100000 FMFlg1=           0
         NFxFlg=           0 DoJE=T BraDBF=F KetDBF=T FulRan=T
         wScrn=  0.000000 ICntrl=       500 IOpCl=  0 I1Cent=   200000004 NGrid=           0
         NMat0=    1 NMatS0=      1 NMatT0=    0 NMatD0=    1 NMtDS0=    0 NMtDT0=    0
 Petite list used in FoFCou.
 Requested convergence on RMS density matrix=1.00D-08 within 128 cycles.
 Requested convergence on MAX density matrix=1.00D-06.
 Requested convergence on             energy=1.00D-06.
 No special actions if energy rises.
 Integral accuracy reduced to 1.0D-05 until final iterations.
 Initial convergence to 1.0D-05 achieved.  Increase integral accuracy.
 SCF Done:  E(RPBE1PBE) =  -3391.54258915     A.U. after   15 cycles
            NFock= 15  Conv=0.38D-08     -V/T= 2.0022

 **********************************************************************

            Population analysis using the SCF Density.

 **********************************************************************

 Orbital symmetries:
       Occupied  (A) (A) (A) (A) (A) (A) (A) (A) (A) (A) (A) (A)
                 (A) (A) (A) (A) (A) (A) (A) (A) (A) (A) (A) (A)
                 (A) (A) (A) (A) (A) (A) (A) (A) (A) (A) (A) (A)
                 (A) (A) (A) (A) (A) (A) (A) (A) (A) (A) (A) (A)
                 (A) (A) (A) (A) (A) (A) (A) (A) (A) (A) (A) (A)
                 (A) (A)
       Virtual   (A) (A) (A) (A) (A) (A) (A) (A) (A) (A) (A) (A)
                 (A) (A) (A) (A) (A) (A) (A) (A) (A) (A) (A) (A)
                 (A) (A) (A) (A) (A) (A) (A) (A) (A) (A) (A) (A)
                 (A) (A) (A) (A) (A) (A) (A) (A) (A) (A) (A) (A)
                 (A) (A) (A) (A) (A) (A) (A) (A) (A) (A) (A) (A)
                 (A) (A) (A) (A) (A) (A) (A) (A) (A) (A) (A) (A)
                 (A) (A) (A) (A) (A) (A) (A) (A) (A) (A) (A) (A)
                 (A) (A) (A) (A) (A) (A) (A) (A) (A) (A) (A) (A)
                 (A) (A) (A) (A) (A) (A) (A) (A) (A) (A) (A) (A)
                 (A) (A) (A) (A) (A) (A) (A) (A) (A) (A) (A) (A)
                 (A) (A) (A) (A) (A) (A) (A) (A) (A) (A) (A) (A)
                 (A) (A) (A) (A) (A) (A) (A) (A) (A) (A) (A) (A)
                 (A) (A) (A) (A) (A) (A) (A) (A) (A) (A) (A) (A)
                 (A) (A) (A) (A) (A) (A) (A) (A) (A) (A) (A) (A)
                 (A) (A) (A) (A) (A) (A) (A) (A) (A) (A) (A) (A)
                 (A) (A) (A)
 The electronic state is 1-A.
 Alpha  occ. eigenvalues -- -483.20323 -89.18063 -62.63692 -56.42687 -56.42334
 Alpha  occ. eigenvalues --  -56.42323 -14.35025 -14.33707 -10.30742 -10.27365
 Alpha  occ. eigenvalues --  -10.27028 -10.26513 -10.26404 -10.26234 -10.26163
 Alpha  occ. eigenvalues --  -10.25771  -8.78299  -8.15594  -6.59782  -6.58494
 Alpha  occ. eigenvalues --   -6.58467  -6.09700  -6.09620  -6.09595  -2.68335
 Alpha  occ. eigenvalues --   -2.67965  -2.67944  -2.66910  -2.66910  -1.00755
 Alpha  occ. eigenvalues --   -0.91972  -0.85373  -0.84707  -0.81836  -0.77165
 Alpha  occ. eigenvalues --   -0.76408  -0.73399  -0.64734  -0.63352  -0.60654
 Alpha  occ. eigenvalues --   -0.55112  -0.53296  -0.51879  -0.51240  -0.49234
 Alpha  occ. eigenvalues --   -0.47477  -0.45882  -0.45210  -0.44737  -0.43951
 Alpha  occ. eigenvalues --   -0.42905  -0.41598  -0.39114  -0.37856  -0.34107
 Alpha  occ. eigenvalues --   -0.31091  -0.30921  -0.30209  -0.28162  -0.27172
 Alpha  occ. eigenvalues --   -0.25396  -0.23890
 Alpha virt. eigenvalues --   -0.03938  -0.03068   0.00027   0.05335   0.06105
 Alpha virt. eigenvalues --    0.07865   0.08556   0.08756   0.09869   0.10800
 Alpha virt. eigenvalues --    0.11421   0.12439   0.13431   0.14462   0.15047
 Alpha virt. eigenvalues --    0.15872   0.16411   0.17705   0.18838   0.21981
 Alpha virt. eigenvalues --    0.25367   0.27523   0.29876   0.30946   0.32579
 Alpha virt. eigenvalues --    0.34754   0.36358   0.39163   0.40023   0.40960
 Alpha virt. eigenvalues --    0.42288   0.43926   0.44769   0.46591   0.46936
 Alpha virt. eigenvalues --    0.47463   0.48624   0.49401   0.50500   0.51804
 Alpha virt. eigenvalues --    0.52394   0.52567   0.53447   0.57354   0.57902
 Alpha virt. eigenvalues --    0.58200   0.60690   0.61548   0.62175   0.63165
 Alpha virt. eigenvalues --    0.63683   0.64591   0.64858   0.65543   0.66487
 Alpha virt. eigenvalues --    0.67091   0.67951   0.68477   0.69881   0.70370
 Alpha virt. eigenvalues --    0.71122   0.71644   0.71747   0.72660   0.74167
 Alpha virt. eigenvalues --    0.74588   0.76499   0.77408   0.78546   0.79017
 Alpha virt. eigenvalues --    0.81362   0.82249   0.84339   0.84833   0.87194
 Alpha virt. eigenvalues --    0.88562   0.89685   0.92097   0.94692   0.97228
 Alpha virt. eigenvalues --    0.98124   0.99906   1.00563   1.04134   1.06246
 Alpha virt. eigenvalues --    1.07748   1.09826   1.12066   1.14468   1.19863
 Alpha virt. eigenvalues --    1.20756   1.22168   1.22677   1.23069   1.25253
 Alpha virt. eigenvalues --    1.27122   1.29108   1.29729   1.33151   1.38546
 Alpha virt. eigenvalues --    1.45624   1.46227   1.46652   1.48125   1.51702
 Alpha virt. eigenvalues --    1.52140   1.53971   1.64741   1.67074   1.67350
 Alpha virt. eigenvalues --    1.68961   1.71197   1.72548   1.74130   1.74583
 Alpha virt. eigenvalues --    1.76431   1.77410   1.77872   1.79711   1.82499
 Alpha virt. eigenvalues --    1.82812   1.84037   1.84608   1.88057   1.89082
 Alpha virt. eigenvalues --    1.91763   1.95719   1.96305   1.98305   2.00252
 Alpha virt. eigenvalues --    2.00719   2.04017   2.07920   2.10240   2.13230
 Alpha virt. eigenvalues --    2.15004   2.15938   2.16795   2.19374   2.20927
 Alpha virt. eigenvalues --    2.23628   2.26152   2.29778   2.29848   2.30461
 Alpha virt. eigenvalues --    2.31500   2.36168   2.37367   2.42322   2.43345
 Alpha virt. eigenvalues --    2.44586   2.45497   2.51874   2.55281   2.57366
 Alpha virt. eigenvalues --    2.59630   2.60318   2.63155   2.64594   2.65733
 Alpha virt. eigenvalues --    2.66323   2.73886   2.75482   2.81500   2.84004
 Alpha virt. eigenvalues --    2.84979   2.88369   2.89630   2.90539   2.94845
 Alpha virt. eigenvalues --    2.98243   2.99439   3.05475   3.10435   3.24178
 Alpha virt. eigenvalues --    3.26834   3.32144   3.44519   3.48165   3.52546
 Alpha virt. eigenvalues --    3.59662   3.64811   3.84810
          Condensed to atoms (all electrons):
               1          2          3          4          5          6
     1  N    6.924768   0.352235  -0.071863   0.009884   0.000026  -0.000000
     2  S    0.352235  14.626922   0.164198  -0.066094   0.003050  -0.000475
     3  C   -0.071863   0.164198   5.519192   0.136160  -0.114654   0.013168
     4  C    0.009884  -0.066094   0.136160   5.605515   0.197431   0.103456
     5  C    0.000026   0.003050  -0.114654   0.197431   5.241557   0.254751
     6  C   -0.000000  -0.000475   0.013168   0.103456   0.254751   5.033063
     7  C   -0.000000   0.000176  -0.001093  -0.159209   0.106305   0.276791
     8  C    0.000003  -0.000157   0.012976   0.127809  -0.172060   0.115609
     9  Br   0.000000   0.000002  -0.000168   0.004480   0.000755   0.003463
    10  C   -0.000121  -0.000355  -0.099589   0.273062   0.063050  -0.131380
    11  C   -0.083217   0.251676  -0.127205  -0.003515   0.004104   0.000018
    12  N   -0.063298   0.330932  -0.054049  -0.007358   0.013306  -0.000592
    13  H    0.334054  -0.010292  -0.000395  -0.000495   0.000002   0.000000
    14  H    0.005448  -0.001500   0.318320   0.006165  -0.003370   0.000489
    15  H    0.007678  -0.010281   0.326284  -0.004135   0.012122  -0.000613
    16  H   -0.000181  -0.000934  -0.007907  -0.083385   0.457345  -0.062173
    17  H   -0.000000  -0.000009  -0.000329   0.016732  -0.072851   0.458561
    18  H    0.000000   0.000000   0.000032  -0.001642   0.013927  -0.058267
    19  H   -0.000027  -0.000099  -0.014454  -0.059184   0.013900  -0.001805
    20  H    0.003133  -0.002781   0.008132  -0.000521  -0.000197   0.000000
    21  H    0.006331  -0.013952   0.007528   0.001810  -0.000873   0.000083
    22  H    0.007827  -0.009398   0.003114   0.001347  -0.000290   0.000003
    23  H    0.004030  -0.006500  -0.002447   0.004617   0.005617   0.000865
               7          8          9         10         11         12
     1  N   -0.000000   0.000003   0.000000  -0.000121  -0.083217  -0.063298
     2  S    0.000176  -0.000157   0.000002  -0.000355   0.251676   0.330932
     3  C   -0.001093   0.012976  -0.000168  -0.099589  -0.127205  -0.054049
     4  C   -0.159209   0.127809   0.004480   0.273062  -0.003515  -0.007358
     5  C    0.106305  -0.172060   0.000755   0.063050   0.004104   0.013306
     6  C    0.276791   0.115609   0.003463  -0.131380   0.000018  -0.000592
     7  C    5.094466   0.257515  -0.062400   0.070139   0.000001  -0.000003
     8  C    0.257515   5.332633   0.236809   0.263810  -0.001248   0.000108
     9  Br  -0.062400   0.236809  34.914227  -0.069513  -0.000072  -0.000000
    10  C    0.070139   0.263810  -0.069513   5.150131   0.007242  -0.000320
    11  C    0.000001  -0.001248  -0.000072   0.007242   5.004677  -0.042961
    12  N   -0.000003   0.000108  -0.000000  -0.000320  -0.042961   6.902937
    13  H    0.000000  -0.000001  -0.000000   0.000024   0.006800   0.003782
    14  H    0.000126  -0.000693   0.000003   0.008318   0.006629   0.000521
    15  H    0.000063   0.000772  -0.000034  -0.011277   0.004892   0.003683
    16  H    0.015070  -0.002252   0.000017   0.015032   0.000405   0.008030
    17  H   -0.074144   0.016278  -0.000190  -0.002165  -0.000001  -0.000028
    18  H    0.444067  -0.065412  -0.000293   0.014594   0.000001  -0.000000
    19  H    0.014035  -0.056758   0.000695   0.436073  -0.000169   0.000007
    20  H    0.000002   0.000031   0.000000  -0.000263   0.360693   0.004346
    21  H   -0.000145   0.000937   0.000499  -0.001166   0.353806   0.000086
    22  H   -0.000003   0.000103   0.000001  -0.000095   0.354076   0.003908
    23  H   -0.000243   0.000223   0.000001  -0.001382  -0.004378   0.321899
              13         14         15         16         17         18
     1  N    0.334054   0.005448   0.007678  -0.000181  -0.000000   0.000000
     2  S   -0.010292  -0.001500  -0.010281  -0.000934  -0.000009   0.000000
     3  C   -0.000395   0.318320   0.326284  -0.007907  -0.000329   0.000032
     4  C   -0.000495   0.006165  -0.004135  -0.083385   0.016732  -0.001642
     5  C    0.000002  -0.003370   0.012122   0.457345  -0.072851   0.013927
     6  C    0.000000   0.000489  -0.000613  -0.062173   0.458561  -0.058267
     7  C    0.000000   0.000126   0.000063   0.015070  -0.074144   0.444067
     8  C   -0.000001  -0.000693   0.000772  -0.002252   0.016278  -0.065412
     9  Br  -0.000000   0.000003  -0.000034   0.000017  -0.000190  -0.000293
    10  C    0.000024   0.008318  -0.011277   0.015032  -0.002165   0.014594
    11  C    0.006800   0.006629   0.004892   0.000405  -0.000001   0.000001
    12  N    0.003782   0.000521   0.003683   0.008030  -0.000028  -0.000000
    13  H    0.534484   0.001559  -0.000548   0.000049  -0.000000   0.000000
    14  H    0.001559   0.586298  -0.013222   0.004997  -0.000011  -0.000001
    15  H   -0.000548  -0.013222   0.612607   0.000342   0.000006  -0.000001
    16  H    0.000049   0.004997   0.000342   0.647098  -0.012298  -0.000220
    17  H   -0.000000  -0.000011   0.000006  -0.012298   0.653865  -0.012353
    18  H    0.000000  -0.000001  -0.000001  -0.000220  -0.012353   0.641924
    19  H    0.000000   0.000107   0.004642  -0.000258   0.000032  -0.000278
    20  H   -0.000087  -0.000249  -0.000387  -0.000008   0.000000  -0.000000
    21  H   -0.000391  -0.000416  -0.000795  -0.000044  -0.000001  -0.000007
    22  H   -0.000694  -0.000168   0.000548  -0.000028   0.000000  -0.000000
    23  H   -0.000232  -0.000347  -0.000329  -0.001592   0.000067  -0.000005
              19         20         21         22         23
     1  N   -0.000027   0.003133   0.006331   0.007827   0.004030
     2  S   -0.000099  -0.002781  -0.013952  -0.009398  -0.006500
     3  C   -0.014454   0.008132   0.007528   0.003114  -0.002447
     4  C   -0.059184  -0.000521   0.001810   0.001347   0.004617
     5  C    0.013900  -0.000197  -0.000873  -0.000290   0.005617
     6  C   -0.001805   0.000000   0.000083   0.000003   0.000865
     7  C    0.014035   0.000002  -0.000145  -0.000003  -0.000243
     8  C   -0.056758   0.000031   0.000937   0.000103   0.000223
     9  Br   0.000695   0.000000   0.000499   0.000001   0.000001
    10  C    0.436073  -0.000263  -0.001166  -0.000095  -0.001382
    11  C   -0.000169   0.360693   0.353806   0.354076  -0.004378
    12  N    0.000007   0.004346   0.000086   0.003908   0.321899
    13  H    0.000000  -0.000087  -0.000391  -0.000694  -0.000232
    14  H    0.000107  -0.000249  -0.000416  -0.000168  -0.000347
    15  H    0.004642  -0.000387  -0.000795   0.000548  -0.000329
    16  H   -0.000258  -0.000008  -0.000044  -0.000028  -0.001592
    17  H    0.000032   0.000000  -0.000001   0.000000   0.000067
    18  H   -0.000278  -0.000000  -0.000007  -0.000000  -0.000005
    19  H    0.649170   0.000041   0.001153   0.000251   0.000016
    20  H    0.000041   0.542624  -0.007614  -0.005627  -0.000031
    21  H    0.001153  -0.007614   0.580753  -0.014038   0.001016
    22  H    0.000251  -0.005627  -0.014038   0.573328  -0.000069
    23  H    0.000016  -0.000031   0.001016  -0.000069   0.552441
 Mulliken charges:
               1
     1  N   -0.436711
     2  S    0.393635
     3  C   -0.014951
     4  C   -0.102930
     5  C   -0.022954
     6  C   -0.005014
     7  C    0.018484
     8  C   -0.067034
     9  Br  -0.028282
    10  C    0.016152
    11  C   -0.092258
    12  N   -0.424938
    13  H    0.132379
    14  H    0.080994
    15  H    0.067982
    16  H    0.022895
    17  H    0.028839
    18  H    0.023933
    19  H    0.012910
    20  H    0.098760
    21  H    0.085439
    22  H    0.085904
    23  H    0.126765
 Sum of Mulliken charges =  -0.00000
 Mulliken charges with hydrogens summed into heavy atoms:
               1
     1  N   -0.304333
     2  S    0.393635
     3  C    0.134026
     4  C   -0.102930
     5  C   -0.000059
     6  C    0.023825
     7  C    0.042417
     8  C   -0.067034
     9  Br  -0.028282
    10  C    0.029063
    11  C    0.177845
    12  N   -0.298173
 Electronic spatial extent (au):  <R**2>=           4078.8966
 Charge=             -0.0000 electrons
 Dipole moment (field-independent basis, Debye):
    X=             -2.2712    Y=              0.7924    Z=              0.4258  Tot=              2.4428
 Quadrupole moment (field-independent basis, Debye-Ang):
   XX=           -109.4066   YY=            -85.2486   ZZ=            -92.3024
   XY=              1.0934   XZ=              4.7945   YZ=              0.9725
 Traceless Quadrupole moment (field-independent basis, Debye-Ang):
   XX=            -13.7541   YY=             10.4039   ZZ=              3.3501
   XY=              1.0934   XZ=              4.7945   YZ=              0.9725
 Octapole moment (field-independent basis, Debye-Ang**2):
  XXX=           -153.5403  YYY=            -15.3417  ZZZ=             -3.5555  XYY=            -41.1289
  XXY=             12.0652  XXZ=              7.2408  XZZ=            -31.6477  YZZ=            -13.1488
  YYZ=             -8.7242  XYZ=             18.3364
 Hexadecapole moment (field-independent basis, Debye-Ang**3):
 XXXX=          -3722.1515 YYYY=           -835.5629 ZZZZ=           -329.2868 XXXY=            197.8833
 XXXZ=             67.4843 YYYX=             73.0186 YYYZ=            -15.0403 ZZZX=             12.0400
 ZZZY=              3.1952 XXYY=           -776.6956 XXZZ=           -685.3909 YYZZ=           -200.7291
 XXYZ=             50.9711 YYXZ=              4.7501 ZZXY=             19.6471
 N-N= 1.086006413249D+03 E-N=-1.024284411860D+04  KE= 3.384221802672D+03
   1 Symmetry operations used in ECPInt.
 ECPInt:  NShTT=    6441 NPrTT=   25202 LenC2=    6142 LenP2D=   17702.
 LDataN:  DoStor=T MaxTD1= 5 Len=  102
 Calling FoFJK, ICntrl=      2127 FMM=F ISym2X=0 I1Cent= 0 IOpClX= 0 NMat=1 NMatS=1 NMatT=0.
 ***** Axes restored to original set *****
 -------------------------------------------------------------------
 Center     Atomic                   Forces (Hartrees/Bohr)
 Number     Number              X              Y              Z
 -------------------------------------------------------------------
      1        7           0.003127704   -0.022272642   -0.009375867
      2       16          -0.002576454   -0.008486254   -0.002786706
      3        6          -0.002660145   -0.002102573    0.018217067
      4        6           0.001910370    0.001303203   -0.003229543
      5        6          -0.000715011   -0.000339369   -0.000693826
      6        6           0.000158677   -0.001125008   -0.000127206
      7        6           0.000917212   -0.000056863    0.000296972
      8        6           0.013370205   -0.009218284    0.001738275
      9       35          -0.005960555    0.004291988   -0.000538400
     10        6           0.000040284    0.000790266   -0.000876172
     11        6          -0.005140831    0.014414181   -0.007283526
     12        7          -0.005303360    0.005419859    0.003080254
     13        1          -0.004216419    0.012023970    0.001811325
     14        1          -0.007575689    0.003801025   -0.002547088
     15        1           0.000247970   -0.007142893   -0.005860991
     16        1          -0.007697090    0.005100781   -0.000540285
     17        1           0.000094315    0.008979158    0.003072320
     18        1           0.007573325    0.003113202    0.003687134
     19        1           0.000238184   -0.008031336   -0.002869157
     20        1          -0.007259650    0.000134817    0.007396351
     21        1           0.009393407    0.002688824    0.001936148
     22        1          -0.000244622   -0.007474997   -0.007825098
     23        1           0.012278171    0.004188944    0.003318017
 -------------------------------------------------------------------
 Cartesian Forces:  Max     0.022272642 RMS     0.006461557

 GradGradGradGradGradGradGradGradGradGradGradGradGradGradGradGradGradGrad
 Berny optimization.
 FormGI is forming the generalized inverse of G from B-inverse, IUseBI=4.
 Internal  Forces:  Max     0.013248056 RMS     0.004829101
 Search for a local minimum.
 Step number   1 out of a maximum of  125
 All quantities printed in internal units (Hartrees-Bohrs-Radians)
 Mixed Optimization -- RFO/linear search
 Second derivative matrix not updated -- first step.
 ITU=  0
     Eigenvalues ---    0.00230   0.00230   0.01133   0.01762   0.02183
     Eigenvalues ---    0.02233   0.02251   0.02283   0.02291   0.02300
     Eigenvalues ---    0.02304   0.02311   0.03579   0.03670   0.04722
     Eigenvalues ---    0.05848   0.05856   0.06143   0.06287   0.07106
     Eigenvalues ---    0.08480   0.08621   0.12397   0.15167   0.15998
     Eigenvalues ---    0.16000   0.16000   0.16000   0.16000   0.16000
     Eigenvalues ---    0.16000   0.16000   0.16000   0.17792   0.19263
     Eigenvalues ---    0.19321   0.22000   0.22035   0.23455   0.23500
     Eigenvalues ---    0.24055   0.24938   0.25000   0.35201   0.35447
     Eigenvalues ---    0.35475   0.35598   0.35598   0.35799   0.35974
     Eigenvalues ---    0.36046   0.36081   0.36174   0.43057   0.43455
     Eigenvalues ---    0.46586   0.46792   0.47055   0.47562   0.48344
     Eigenvalues ---    0.48647   0.68264   0.70252
 RFO step:  Lambda=-9.60959937D-03 EMin= 2.30000000D-03
 Linear search not attempted -- first point.
 Iteration  1 RMS(Cart)=  0.05509136 RMS(Int)=  0.00097670
 Iteration  2 RMS(Cart)=  0.00167545 RMS(Int)=  0.00019188
 Iteration  3 RMS(Cart)=  0.00000123 RMS(Int)=  0.00019188
 Iteration  4 RMS(Cart)=  0.00000000 RMS(Int)=  0.00019188
 Variable       Old X    -DE/DX   Delta X   Delta X   Delta X     New X
                                 (Linear)    (Quad)   (Total)
    R1        2.87344   0.00761   0.00000   0.01069   0.01069   2.88413
    R2        1.89948   0.01082   0.00000   0.02266   0.02266   1.92215
    R3        3.60015  -0.00757   0.00000  -0.03732  -0.03732   3.56282
    R4        3.45374  -0.01132   0.00000  -0.04524  -0.04524   3.40850
    R5        2.88644   0.01049   0.00000   0.01515   0.01515   2.90159
    R6        2.78210   0.01026   0.00000   0.02815   0.02815   2.81025
    R7        2.05350   0.00797   0.00000   0.02205   0.02205   2.07555
    R8        2.04956   0.00914   0.00000   0.02511   0.02511   2.07466
    R9        2.63639   0.00836   0.00000   0.01760   0.01760   2.65400
   R10        2.63270   0.00911   0.00000   0.01898   0.01898   2.65168
   R11        2.61302   0.00981   0.00000   0.01985   0.01985   2.63287
   R12        2.04009   0.00925   0.00000   0.02498   0.02498   2.06507
   R13        2.61748   0.00946   0.00000   0.01935   0.01935   2.63683
   R14        2.03956   0.00949   0.00000   0.02562   0.02562   2.06517
   R15        2.61598   0.00831   0.00000   0.01690   0.01690   2.63289
   R16        2.03810   0.00898   0.00000   0.02417   0.02417   2.06227
   R17        3.60854  -0.00736   0.00000  -0.03926  -0.03926   3.56927
   R18        2.61213   0.00919   0.00000   0.01846   0.01845   2.63058
   R19        2.04122   0.00853   0.00000   0.02309   0.02309   2.06431
   R20        2.04715   0.00939   0.00000   0.02568   0.02568   2.07283
   R21        2.04714   0.00996   0.00000   0.02724   0.02724   2.07438
   R22        2.04397   0.01081   0.00000   0.02941   0.02941   2.07337
   R23        1.90176   0.01325   0.00000   0.02786   0.02786   1.92963
    A1        1.99517  -0.01291   0.00000  -0.07614  -0.07614   1.91902
    A2        1.91768  -0.00168   0.00000  -0.00944  -0.00918   1.90850
    A3        1.80519  -0.00199   0.00000  -0.00185  -0.00199   1.80319
    A4        2.00780   0.00680   0.00000   0.06112   0.06128   2.06908
    A5        1.72957   0.00296   0.00000  -0.00516  -0.00564   1.72393
    A6        1.96496  -0.00493   0.00000  -0.03932  -0.03952   1.92544
    A7        2.01339  -0.00163   0.00000  -0.01277  -0.01366   1.99972
    A8        1.91364   0.01010   0.00000   0.04714   0.04693   1.96057
    A9        1.80940  -0.00673   0.00000  -0.04686  -0.04687   1.76253
   A10        1.83159  -0.00213   0.00000   0.00068  -0.00002   1.83157
   A11        1.97033  -0.00024   0.00000   0.00268   0.00337   1.97370
   A12        1.99351  -0.00211   0.00000   0.00405   0.00352   1.99702
   A13        1.93077   0.00084   0.00000  -0.01103  -0.01135   1.91942
   A14        2.09768  -0.00023   0.00000  -0.00060  -0.00060   2.09707
   A15        2.10990   0.00052   0.00000   0.00227   0.00227   2.11217
   A16        2.07358  -0.00028   0.00000  -0.00129  -0.00129   2.07228
   A17        2.10618  -0.00041   0.00000  -0.00180  -0.00180   2.10438
   A18        2.08154   0.00014   0.00000   0.00052   0.00052   2.08205
   A19        2.09546   0.00027   0.00000   0.00128   0.00128   2.09675
   A20        2.10444   0.00062   0.00000   0.00297   0.00297   2.10741
   A21        2.09394  -0.00033   0.00000  -0.00160  -0.00160   2.09234
   A22        2.08480  -0.00029   0.00000  -0.00137  -0.00137   2.08343
   A23        2.06982  -0.00049   0.00000  -0.00189  -0.00189   2.06793
   A24        2.11133   0.00048   0.00000   0.00233   0.00233   2.11366
   A25        2.10203   0.00001   0.00000  -0.00045  -0.00045   2.10158
   A26        2.08440  -0.00013   0.00000  -0.00043  -0.00044   2.08397
   A27        2.12256  -0.00016   0.00000  -0.00073  -0.00074   2.12182
   A28        2.07621   0.00029   0.00000   0.00119   0.00119   2.07740
   A29        2.08976   0.00072   0.00000   0.00274   0.00273   2.09250
   A30        2.09925  -0.00018   0.00000  -0.00028  -0.00028   2.09896
   A31        2.09407  -0.00054   0.00000  -0.00239  -0.00239   2.09167
   A32        1.87143  -0.00689   0.00000  -0.04380  -0.04386   1.82756
   A33        1.90984   0.00085   0.00000   0.00614   0.00603   1.91587
   A34        1.86869   0.00129   0.00000   0.00974   0.00968   1.87837
   A35        1.93291   0.00238   0.00000   0.00978   0.00965   1.94256
   A36        1.92495   0.00211   0.00000   0.00996   0.00995   1.93490
   A37        1.95304  -0.00011   0.00000   0.00589   0.00578   1.95882
   A38        2.00513  -0.00366   0.00000  -0.02158  -0.02158   1.98356
    D1       -1.79115   0.00237   0.00000   0.01952   0.01944  -1.77171
    D2        2.65908   0.00052   0.00000   0.02935   0.02970   2.68879
    D3        0.44787  -0.00027   0.00000   0.00761   0.00734   0.45521
    D4       -3.14049   0.00131   0.00000  -0.00606  -0.00632   3.13638
    D5        1.03452   0.00035   0.00000  -0.00631  -0.00592   1.02860
    D6       -0.99201   0.00308   0.00000   0.02518   0.02521  -0.96680
    D7       -1.25661  -0.00008   0.00000  -0.01301  -0.01347  -1.27008
    D8        2.91839  -0.00104   0.00000  -0.01326  -0.01306   2.90533
    D9        0.89186   0.00169   0.00000   0.01823   0.01807   0.90993
   D10        0.88030  -0.00248   0.00000  -0.04893  -0.04916   0.83114
   D11       -1.22788  -0.00344   0.00000  -0.04918  -0.04876  -1.27663
   D12        3.02878  -0.00071   0.00000  -0.01770  -0.01763   3.01115
   D13       -1.27438  -0.00240   0.00000  -0.01194  -0.01178  -1.28616
   D14        2.91139  -0.00169   0.00000  -0.00138  -0.00126   2.91014
   D15        0.79138  -0.00282   0.00000  -0.01788  -0.01778   0.77360
   D16        3.03497  -0.00104   0.00000   0.00031   0.00034   3.03531
   D17        0.93756  -0.00032   0.00000   0.01088   0.01086   0.94843
   D18       -1.18245  -0.00146   0.00000  -0.00562  -0.00566  -1.18811
   D19        0.93330   0.00374   0.00000   0.05674   0.05665   0.98995
   D20       -1.16411   0.00445   0.00000   0.06730   0.06718  -1.09693
   D21        2.99906   0.00332   0.00000   0.05080   0.05066   3.04971
   D22       -3.13405   0.00096   0.00000   0.01455   0.01496  -3.11908
   D23       -0.91888   0.00010   0.00000   0.01926   0.01871  -0.90017
   D24        1.04888  -0.00056   0.00000  -0.02273  -0.02260   1.02628
   D25       -1.36558   0.00182   0.00000   0.02841   0.02844  -1.33713
   D26        1.70675   0.00199   0.00000   0.03493   0.03498   1.74172
   D27        0.64211  -0.00025   0.00000   0.00189   0.00202   0.64413
   D28       -2.56875  -0.00008   0.00000   0.00842   0.00855  -2.56020
   D29        2.86796  -0.00114   0.00000  -0.00766  -0.00783   2.86013
   D30       -0.34290  -0.00097   0.00000  -0.00113  -0.00130  -0.34420
   D31        3.06908   0.00010   0.00000   0.00296   0.00295   3.07203
   D32       -0.07367   0.00018   0.00000   0.00583   0.00583  -0.06784
   D33       -0.00468  -0.00010   0.00000  -0.00358  -0.00357  -0.00825
   D34        3.13576  -0.00002   0.00000  -0.00070  -0.00070   3.13506
   D35       -3.07127   0.00004   0.00000   0.00048   0.00048  -3.07079
   D36        0.08603  -0.00012   0.00000  -0.00465  -0.00466   0.08138
   D37        0.00200   0.00021   0.00000   0.00694   0.00695   0.00895
   D38       -3.12389   0.00005   0.00000   0.00181   0.00181  -3.12208
   D39        0.00100  -0.00002   0.00000  -0.00040  -0.00040   0.00060
   D40       -3.14114  -0.00007   0.00000  -0.00186  -0.00186   3.14019
   D41       -3.13944  -0.00010   0.00000  -0.00330  -0.00330   3.14045
   D42        0.00162  -0.00015   0.00000  -0.00476  -0.00476  -0.00315
   D43        0.00531   0.00003   0.00000   0.00100   0.00100   0.00632
   D44        3.14147  -0.00001   0.00000  -0.00032  -0.00032   3.14115
   D45       -3.13574   0.00008   0.00000   0.00246   0.00246  -3.13328
   D46        0.00041   0.00004   0.00000   0.00114   0.00113   0.00155
   D47        3.13877  -0.00008   0.00000  -0.00254  -0.00254   3.13623
   D48       -0.00808   0.00008   0.00000   0.00248   0.00248  -0.00560
   D49        0.00258  -0.00004   0.00000  -0.00123  -0.00123   0.00135
   D50        3.13892   0.00012   0.00000   0.00379   0.00379  -3.14048
   D51        0.00444  -0.00020   0.00000  -0.00651  -0.00651  -0.00207
   D52        3.13037  -0.00003   0.00000  -0.00137  -0.00138   3.12900
   D53        3.14080  -0.00004   0.00000  -0.00152  -0.00152   3.13928
   D54       -0.01645   0.00012   0.00000   0.00362   0.00362  -0.01284
         Item               Value     Threshold  Converged?
 Maximum Force            0.013248     0.000450     NO 
 RMS     Force            0.004829     0.000300     NO 
 Maximum Displacement     0.242716     0.001800     NO 
 RMS     Displacement     0.054536     0.001200     NO 
 Predicted change in Energy=-5.068721D-03
 GradGradGradGradGradGradGradGradGradGradGradGradGradGradGradGradGradGrad

                          Input orientation:                          
 ---------------------------------------------------------------------
 Center     Atomic      Atomic             Coordinates (Angstroms)
 Number     Number       Type             X           Y           Z
 ---------------------------------------------------------------------
      1          7           0       -4.446868   -1.017407   -0.457655
      2         16           0       -3.173331   -0.425947    0.140355
      3          6           0       -2.007367    0.082436   -1.251291
      4          6           0       -0.743077    0.676073   -0.740707
      5          6           0       -0.727670    1.994478   -0.256968
      6          6           0        0.431232    2.531696    0.299367
      7          6           0        1.598784    1.772620    0.386698
      8          6           0        1.581257    0.468015   -0.102059
      9         35           0        3.149772   -0.579749   -0.004923
     10          6           0        0.433074   -0.085151   -0.661941
     11          6           0       -2.279563   -1.876641    0.731963
     12          7           0       -3.302889    0.707370    1.168180
     13          1           0       -5.194587   -0.328278   -0.432686
     14          1           0       -2.632577    0.803129   -1.795393
     15          1           0       -1.871817   -0.825799   -1.852990
     16          1           0       -1.636828    2.597574   -0.319403
     17          1           0        0.430963    3.559363    0.671126
     18          1           0        2.509891    2.187659    0.820954
     19          1           0        0.454243   -1.107101   -1.047267
     20          1           0       -2.824813   -2.192811    1.629690
     21          1           0       -1.243617   -1.602852    0.970362
     22          1           0       -2.336661   -2.643837   -0.050315
     23          1           0       -2.405490    1.060913    1.503378
 ---------------------------------------------------------------------
                    Distance matrix (angstroms):
                    1          2          3          4          5
     1  N    0.000000
     2  S    1.526217   0.000000
     3  C    2.791178   1.885365   0.000000
     4  C    4.082408   2.810134   1.487121   0.000000
     5  C    4.790006   3.463752   2.506433   1.404434   0.000000
     6  C    6.079891   4.665384   3.788163   2.429834   1.393257
     7  C    6.711713   5.259987   4.306281   2.820952   2.424029
     8  C    6.218618   4.843969   3.787825   2.419439   2.772225
     9  Br   7.622692   6.326641   5.346774   4.156048   4.660979
    10  C    4.972390   3.710253   2.516181   1.403209   2.415820
    11  C    2.617381   1.803700   2.800958   3.323536   4.286248
    12  N    2.631897   1.535453   2.814739   3.193347   3.212389
    13  H    1.017156   2.103186   3.316198   4.573788   5.037799
    14  H    2.897507   2.355878   1.098332   2.167653   2.723001
    15  H    2.935057   2.413968   1.097865   2.183311   3.436615
    16  H    4.580777   3.422557   2.707698   2.160661   1.092790
    17  H    6.783376   5.399569   4.661561   3.418334   2.157001
    18  H    7.765551   6.292310   5.397386   3.912222   3.417753
    19  H    4.937264   3.877333   2.741560   2.169623   3.411933
    20  H    2.893034   2.336963   3.760986   4.264142   5.048849
    21  H    3.555671   2.407865   2.891237   2.893406   3.835796
    22  H    2.695213   2.378111   2.997223   3.746725   4.913810
    23  H    3.511736   2.158278   2.950274   2.819156   2.604888
                    6          7          8          9         10
     6  C    0.000000
     7  C    1.395350   0.000000
     8  C    2.396347   1.393264   0.000000
     9  Br   4.142963   2.844744   1.888779   0.000000
    10  C    2.787832   2.431015   1.392043   2.838441   0.000000
    11  C    5.193167   5.336468   4.593358   5.630507   3.537061
    12  N    4.245781   5.076600   5.052294   6.683537   4.234955
    13  H    6.353360   7.157866   6.830480   8.359099   5.637573
    14  H    4.094251   4.858586   4.553688   6.209162   3.387030
    15  H    4.605372   4.879863   4.082087   5.356515   2.698088
    16  H    2.159650   3.412963   3.865013   5.753765   3.405707
    17  H    1.092842   2.153406   3.387834   4.998120   3.880664
    18  H    2.170539   1.091307   2.161363   2.958051   3.417281
    19  H    3.880052   3.414531   2.155126   2.937763   1.092386
    20  H    5.890039   6.069422   5.430691   6.400749   4.506399
    21  H    4.511081   4.451261   3.663126   4.615170   2.789108
    22  H    5.879596   5.931593   5.003637   5.862036   3.819999
    23  H    3.414650   4.217548   4.338560   5.985622   3.749602
                   11         12         13         14         15
    11  C    0.000000
    12  N    2.813288   0.000000
    13  H    3.500171   2.685863   0.000000
    14  H    3.700448   3.039943   3.114634   0.000000
    15  H    2.820019   3.677777   3.647682   1.798744   0.000000
    16  H    4.640805   2.926010   4.607720   2.527863   3.758535
    17  H    6.074602   4.724677   6.926685   4.802689   5.559101
    18  H    6.282143   6.008347   8.201252   5.933563   5.952333
    19  H    3.351351   4.724040   5.735291   3.706364   2.477676
    20  H    1.096893   2.975332   3.653178   4.554537   3.860827
    21  H    1.097715   3.101106   4.382151   3.920123   2.994957
    22  H    1.097183   3.694444   3.698076   3.874847   2.602111
    23  H    3.039763   1.021115   3.668414   3.316612   3.887119
                   16         17         18         19         20
    16  H    0.000000
    17  H    2.486352   0.000000
    18  H    4.320153   2.495188   0.000000
    19  H    4.315899   4.972857   4.309453   0.000000
    20  H    5.306417   6.678804   6.949938   4.370020   0.000000
    21  H    4.411541   5.435276   5.336584   2.683157   1.811889
    22  H    5.294767   6.830806   6.898661   3.338355   1.806691
    23  H    2.504935   3.870447   5.088834   4.402744   3.283064
                   21         22         23
    21  H    0.000000
    22  H    1.822135   0.000000
    23  H    2.954607   4.017944   0.000000
 Stoichiometry    C8H11BrN2S
 Framework group  C1[X(C8H11BrN2S)]
 Deg. of freedom    63
 Full point group                 C1      NOp   1
 Largest Abelian subgroup         C1      NOp   1
 Largest concise Abelian subgroup C1      NOp   1
                         Standard orientation:                         
 ---------------------------------------------------------------------
 Center     Atomic      Atomic             Coordinates (Angstroms)
 Number     Number       Type             X           Y           Z
 ---------------------------------------------------------------------
      1          7           0        4.308824   -0.894676    0.442718
      2         16           0        3.015709   -0.340092   -0.148574
      3          6           0        1.819533    0.078251    1.247404
      4          6           0        0.534947    0.632857    0.743638
      5          6           0        0.467319    1.962947    0.297855
      6          6           0       -0.709271    2.466962   -0.252391
      7          6           0       -1.843097    1.662389   -0.371145
      8          6           0       -1.773967    0.346026    0.080069
      9         35           0       -3.296134   -0.763410   -0.060096
     10          6           0       -0.607439   -0.174470    0.633312
     11          6           0        2.188169   -1.809239   -0.788980
     12          7           0        3.104564    0.827039   -1.142318
     13          1           0        5.026946   -0.174326    0.443740
     14          1           0        2.409911    0.808452    1.817136
     15          1           0        1.718198   -0.851968    1.821627
     16          1           0        1.349747    2.601616    0.385107
     17          1           0       -0.749756    3.504097   -0.594465
     18          1           0       -2.767823    2.051244   -0.800824
     19          1           0       -0.588172   -1.207168    0.988939
     20          1           0        2.752600   -2.076029   -1.690875
     21          1           0        1.143298   -1.572381   -1.027980
     22          1           0        2.272076   -2.595759   -0.028614
     23          1           0        2.195430    1.152176   -1.474637
 ---------------------------------------------------------------------
 Rotational constants (GHZ):           1.3049051           0.2701962           0.2405296
 Standard basis: def2SVP (5D, 7F)
 There are   259 symmetry adapted cartesian basis functions of A   symmetry.
 There are   245 symmetry adapted basis functions of A   symmetry.
   245 basis functions,   444 primitive gaussians,   259 cartesian basis functions
    62 alpha electrons       62 beta electrons
       nuclear repulsion energy      1081.6718426824 Hartrees.
 NAtoms=   23 NActive=   23 NUniq=   23 SFac= 1.00D+00 NAtFMM=   60 NAOKFM=F Big=F
 Integral buffers will be    131072 words long.
 Raffenetti 2 integral format.
 Two-electron integral symmetry is turned on.
 Nuclear repulsion after empirical dispersion term =     1081.6438106378 Hartrees.
 One-electron integrals computed using PRISM.
   1 Symmetry operations used in ECPInt.
 ECPInt:  NShTT=    6441 NPrTT=   25202 LenC2=    6129 LenP2D=   17635.
 LDataN:  DoStor=T MaxTD1= 4 Len=   56
 NBasis=   245 RedAO= T EigKep=  2.69D-04  NBF=   245
 NBsUse=   245 1.00D-06 EigRej= -1.00D+00 NBFU=   245
 Initial guess from the checkpoint file:  "SDI2997_1.chk"
 B after Tr=     0.000000   -0.000000    0.000000
         Rot=    0.999965   -0.007415    0.000713   -0.003784 Ang=  -0.96 deg.
 ExpMin= 1.22D-01 ExpMax= 1.13D+05 ExpMxC= 1.70D+04 IAcc=3 IRadAn=         5 AccDes= 0.00D+00
 Harris functional with IExCor= 1009 and IRadAn=       5 diagonalized for initial guess.
 HarFok:  IExCor= 1009 AccDes= 0.00D+00 IRadAn=         5 IDoV= 1 UseB2=F ITyADJ=14
 ICtDFT=  3500011 ScaDFX=  1.000000  1.000000  1.000000  1.000000
 FoFCou: FMM=F IPFlag=           0 FMFlag=      100000 FMFlg1=           0
         NFxFlg=           0 DoJE=T BraDBF=F KetDBF=T FulRan=T
         wScrn=  0.000000 ICntrl=       500 IOpCl=  0 I1Cent=   200000004 NGrid=           0
         NMat0=    1 NMatS0=      1 NMatT0=    0 NMatD0=    1 NMtDS0=    0 NMtDT0=    0
 Petite list used in FoFCou.
 Requested convergence on RMS density matrix=1.00D-08 within 128 cycles.
 Requested convergence on MAX density matrix=1.00D-06.
 Requested convergence on             energy=1.00D-06.
 No special actions if energy rises.
 Integral accuracy reduced to 1.0D-05 until final iterations.
 Initial convergence to 1.0D-05 achieved.  Increase integral accuracy.
 SCF Done:  E(RPBE1PBE) =  -3391.54760963     A.U. after   12 cycles
            NFock= 12  Conv=0.88D-08     -V/T= 2.0023
   1 Symmetry operations used in ECPInt.
 ECPInt:  NShTT=    6441 NPrTT=   25202 LenC2=    6129 LenP2D=   17635.
 LDataN:  DoStor=T MaxTD1= 5 Len=  102
 Calling FoFJK, ICntrl=      2127 FMM=F ISym2X=0 I1Cent= 0 IOpClX= 0 NMat=1 NMatS=1 NMatT=0.
 ***** Axes restored to original set *****
 -------------------------------------------------------------------
 Center     Atomic                   Forces (Hartrees/Bohr)
 Number     Number              X              Y              Z
 -------------------------------------------------------------------
      1        7          -0.006202817   -0.005719062   -0.001350289
      2       16           0.015583969   -0.000440441   -0.000896510
      3        6          -0.001472038    0.000028012    0.006345644
      4        6           0.001310453    0.000318800   -0.001172508
      5        6           0.000211043   -0.000221285   -0.000121287
      6        6           0.000374351   -0.000913787   -0.000131641
      7        6          -0.002166077    0.001020008   -0.000310295
      8        6           0.001829402   -0.001377357   -0.000008656
      9       35          -0.000069301    0.000091679   -0.000019292
     10        6          -0.002503533    0.001403904   -0.000225907
     11        6          -0.002592211    0.002400678   -0.001254420
     12        7          -0.004845226    0.001915506    0.003018690
     13        1          -0.000856401    0.003758483   -0.000768139
     14        1          -0.000334273   -0.000100499   -0.000888820
     15        1           0.000366727    0.000751461   -0.001374897
     16        1           0.000331698   -0.000234039    0.000110820
     17        1          -0.000066673   -0.000205130   -0.000188937
     18        1          -0.000239344   -0.000226025   -0.000154060
     19        1           0.000050785    0.000090416    0.000266155
     20        1          -0.000103596   -0.000473858    0.000115983
     21        1          -0.000201501    0.000216796    0.000190898
     22        1           0.000673338   -0.000527183    0.000843273
     23        1           0.000921224   -0.001557079   -0.002025805
 -------------------------------------------------------------------
 Cartesian Forces:  Max     0.015583969 RMS     0.002587313

 GradGradGradGradGradGradGradGradGradGradGradGradGradGradGradGradGradGrad
 Berny optimization.
 Using GEDIIS/GDIIS optimizer.
 FormGI is forming the generalized inverse of G from B-inverse, IUseBI=4.
 Internal  Forces:  Max     0.007479709 RMS     0.001252969
 Search for a local minimum.
 Step number   2 out of a maximum of  125
 All quantities printed in internal units (Hartrees-Bohrs-Radians)
 Mixed Optimization -- RFO/linear search
 Update second derivatives using D2CorX and points    1    2
 DE= -5.02D-03 DEPred=-5.07D-03 R= 9.90D-01
 TightC=F SS=  1.41D+00  RLast= 2.37D-01 DXNew= 5.0454D-01 7.1148D-01
 Trust test= 9.90D-01 RLast= 2.37D-01 DXMaxT set to 5.05D-01
 ITU=  1  0
 Use linear search instead of GDIIS.
     Eigenvalues ---    0.00230   0.00231   0.01136   0.01760   0.02183
     Eigenvalues ---    0.02233   0.02251   0.02283   0.02291   0.02300
     Eigenvalues ---    0.02304   0.02311   0.03573   0.03624   0.04413
     Eigenvalues ---    0.05694   0.05827   0.06346   0.06806   0.07311
     Eigenvalues ---    0.08741   0.09191   0.12539   0.14204   0.15083
     Eigenvalues ---    0.15999   0.16000   0.16000   0.16000   0.16000
     Eigenvalues ---    0.16000   0.16000   0.16471   0.17911   0.18807
     Eigenvalues ---    0.19234   0.21542   0.22003   0.23458   0.23469
     Eigenvalues ---    0.23854   0.24973   0.25000   0.35113   0.35390
     Eigenvalues ---    0.35514   0.35595   0.35697   0.35876   0.35996
     Eigenvalues ---    0.36065   0.36145   0.36931   0.43211   0.43523
     Eigenvalues ---    0.46043   0.46760   0.47055   0.48209   0.48339
     Eigenvalues ---    0.49752   0.67790   0.70392
 RFO step:  Lambda=-1.08402927D-03 EMin= 2.29779892D-03
 Quartic linear search produced a step of  0.04983.
 Iteration  1 RMS(Cart)=  0.03538631 RMS(Int)=  0.00073704
 Iteration  2 RMS(Cart)=  0.00087064 RMS(Int)=  0.00004262
 Iteration  3 RMS(Cart)=  0.00000055 RMS(Int)=  0.00004262
 Variable       Old X    -DE/DX   Delta X   Delta X   Delta X     New X
                                 (Linear)    (Quad)   (Total)
    R1        2.88413   0.00748   0.00053   0.01179   0.01232   2.89645
    R2        1.92215   0.00316   0.00113   0.00840   0.00953   1.93167
    R3        3.56282  -0.00292  -0.00186  -0.01793  -0.01979   3.54303
    R4        3.40850  -0.00243  -0.00225  -0.01319  -0.01544   3.39305
    R5        2.90159   0.00126   0.00075   0.00283   0.00359   2.90517
    R6        2.81025  -0.00157   0.00140  -0.00299  -0.00158   2.80867
    R7        2.07555   0.00057   0.00110   0.00297   0.00407   2.07961
    R8        2.07466   0.00018   0.00125   0.00199   0.00324   2.07790
    R9        2.65400  -0.00129   0.00088  -0.00200  -0.00112   2.65287
   R10        2.65168  -0.00191   0.00095  -0.00320  -0.00225   2.64943
   R11        2.63287  -0.00125   0.00099  -0.00161  -0.00062   2.63225
   R12        2.06507  -0.00041   0.00125   0.00027   0.00151   2.06659
   R13        2.63683  -0.00125   0.00096  -0.00156  -0.00059   2.63624
   R14        2.06517  -0.00026   0.00128   0.00075   0.00203   2.06720
   R15        2.63289   0.00027   0.00084   0.00168   0.00253   2.63541
   R16        2.06227  -0.00035   0.00120   0.00041   0.00161   2.06389
   R17        3.56927  -0.00011  -0.00196  -0.00289  -0.00484   3.56443
   R18        2.63058   0.00001   0.00092   0.00119   0.00211   2.63269
   R19        2.06431  -0.00018   0.00115   0.00083   0.00198   2.06630
   R20        2.07283   0.00028   0.00128   0.00233   0.00361   2.07644
   R21        2.07438  -0.00009   0.00136   0.00132   0.00267   2.07705
   R22        2.07337  -0.00027   0.00147   0.00094   0.00240   2.07578
   R23        1.92963  -0.00039   0.00139   0.00075   0.00214   1.93177
    A1        1.91902  -0.00311  -0.00379  -0.02456  -0.02835   1.89067
    A2        1.90850  -0.00048  -0.00046  -0.00405  -0.00468   1.90382
    A3        1.80319   0.00079  -0.00010   0.00821   0.00811   1.81130
    A4        2.06908  -0.00128   0.00305  -0.01824  -0.01520   2.05387
    A5        1.72393   0.00187  -0.00028   0.02093   0.02060   1.74453
    A6        1.92544   0.00026  -0.00197   0.00137  -0.00070   1.92474
    A7        1.99972  -0.00061  -0.00068  -0.00126  -0.00202   1.99770
    A8        1.96057   0.00286   0.00234   0.01999   0.02224   1.98281
    A9        1.76253  -0.00089  -0.00234  -0.00443  -0.00675   1.75579
   A10        1.83157   0.00011  -0.00000   0.00830   0.00822   1.83979
   A11        1.97370  -0.00038   0.00017  -0.00207  -0.00191   1.97180
   A12        1.99702  -0.00132   0.00018  -0.00736  -0.00744   1.98958
   A13        1.91942  -0.00024  -0.00057  -0.01307  -0.01368   1.90574
   A14        2.09707   0.00036  -0.00003   0.00167   0.00164   2.09871
   A15        2.11217  -0.00108   0.00011  -0.00417  -0.00406   2.10811
   A16        2.07228   0.00073  -0.00006   0.00266   0.00259   2.07487
   A17        2.10438  -0.00037  -0.00009  -0.00239  -0.00248   2.10191
   A18        2.08205   0.00022   0.00003   0.00136   0.00138   2.08344
   A19        2.09675   0.00016   0.00006   0.00103   0.00110   2.09784
   A20        2.10741   0.00005   0.00015   0.00024   0.00038   2.10780
   A21        2.09234  -0.00012  -0.00008  -0.00076  -0.00084   2.09150
   A22        2.08343   0.00007  -0.00007   0.00052   0.00045   2.08388
   A23        2.06793   0.00069  -0.00009   0.00342   0.00333   2.07125
   A24        2.11366  -0.00023   0.00012  -0.00090  -0.00079   2.11287
   A25        2.10158  -0.00046  -0.00002  -0.00251  -0.00254   2.09904
   A26        2.08397   0.00068  -0.00002   0.00264   0.00262   2.08659
   A27        2.12182  -0.00145  -0.00004  -0.00579  -0.00582   2.11599
   A28        2.07740   0.00077   0.00006   0.00315   0.00321   2.08060
   A29        2.09250   0.00036   0.00014   0.00189   0.00202   2.09452
   A30        2.09896  -0.00006  -0.00001  -0.00012  -0.00014   2.09882
   A31        2.09167  -0.00029  -0.00012  -0.00175  -0.00187   2.08980
   A32        1.82756   0.00026  -0.00219  -0.00144  -0.00364   1.82393
   A33        1.91587  -0.00067   0.00030  -0.00439  -0.00411   1.91176
   A34        1.87837   0.00187   0.00048   0.01370   0.01418   1.89255
   A35        1.94256  -0.00009   0.00048  -0.00222  -0.00176   1.94080
   A36        1.93490  -0.00076   0.00050  -0.00350  -0.00300   1.93189
   A37        1.95882  -0.00048   0.00029  -0.00160  -0.00133   1.95749
   A38        1.98356  -0.00511  -0.00108  -0.03451  -0.03558   1.94797
    D1       -1.77171   0.00217   0.00097   0.04357   0.04447  -1.72724
    D2        2.68879  -0.00008   0.00148   0.01818   0.01968   2.70847
    D3        0.45521   0.00098   0.00037   0.02592   0.02633   0.48154
    D4        3.13638  -0.00103  -0.00032  -0.00078  -0.00116   3.13521
    D5        1.02860  -0.00140  -0.00029  -0.00511  -0.00538   1.02322
    D6       -0.96680  -0.00084   0.00126   0.00802   0.00936  -0.95744
    D7       -1.27008   0.00049  -0.00067   0.01583   0.01504  -1.25504
    D8        2.90533   0.00012  -0.00065   0.01150   0.01082   2.91616
    D9        0.90993   0.00067   0.00090   0.02463   0.02557   0.93550
   D10        0.83114   0.00087  -0.00245   0.02582   0.02331   0.85445
   D11       -1.27663   0.00049  -0.00243   0.02149   0.01910  -1.25754
   D12        3.01115   0.00105  -0.00088   0.03462   0.03384   3.04498
   D13       -1.28616   0.00057  -0.00059   0.04406   0.04354  -1.24262
   D14        2.91014   0.00088  -0.00006   0.04970   0.04969   2.95982
   D15        0.77360   0.00070  -0.00089   0.04571   0.04488   0.81848
   D16        3.03531   0.00027   0.00002   0.03950   0.03948   3.07480
   D17        0.94843   0.00058   0.00054   0.04514   0.04563   0.99406
   D18       -1.18811   0.00040  -0.00028   0.04116   0.04083  -1.14728
   D19        0.98995  -0.00089   0.00282   0.02599   0.02880   1.01876
   D20       -1.09693  -0.00059   0.00335   0.03162   0.03495  -1.06198
   D21        3.04971  -0.00076   0.00252   0.02764   0.03015   3.07986
   D22       -3.11908   0.00060   0.00075   0.01290   0.01368  -3.10540
   D23       -0.90017  -0.00096   0.00093  -0.00759  -0.00665  -0.90682
   D24        1.02628   0.00117  -0.00113   0.01843   0.01727   1.04356
   D25       -1.33713   0.00017   0.00142  -0.00353  -0.00214  -1.33928
   D26        1.74172   0.00024   0.00174  -0.00054   0.00117   1.74289
   D27        0.64413   0.00065   0.00010   0.00245   0.00253   0.64666
   D28       -2.56020   0.00072   0.00043   0.00544   0.00584  -2.55436
   D29        2.86013  -0.00117  -0.00039  -0.02419  -0.02452   2.83561
   D30       -0.34420  -0.00110  -0.00006  -0.02120  -0.02121  -0.36541
   D31        3.07203   0.00008   0.00015   0.00522   0.00537   3.07740
   D32       -0.06784   0.00006   0.00029   0.00434   0.00463  -0.06321
   D33       -0.00825   0.00007  -0.00018   0.00254   0.00236  -0.00589
   D34        3.13506   0.00005  -0.00003   0.00166   0.00162   3.13668
   D35       -3.07079  -0.00013   0.00002  -0.00570  -0.00568  -3.07646
   D36        0.08138  -0.00015  -0.00023  -0.00680  -0.00703   0.07435
   D37        0.00895  -0.00008   0.00035  -0.00278  -0.00244   0.00651
   D38       -3.12208  -0.00009   0.00009  -0.00388  -0.00379  -3.12587
   D39        0.00060  -0.00002  -0.00002  -0.00059  -0.00061  -0.00001
   D40        3.14019  -0.00006  -0.00009  -0.00274  -0.00283   3.13736
   D41        3.14045  -0.00000  -0.00016   0.00031   0.00014   3.14059
   D42       -0.00315  -0.00004  -0.00024  -0.00185  -0.00208  -0.00523
   D43        0.00632  -0.00003   0.00005  -0.00111  -0.00106   0.00526
   D44        3.14115  -0.00001  -0.00002  -0.00078  -0.00080   3.14035
   D45       -3.13328   0.00002   0.00012   0.00103   0.00116  -3.13213
   D46        0.00155   0.00003   0.00006   0.00136   0.00142   0.00297
   D47        3.13623   0.00001  -0.00013   0.00026   0.00013   3.13636
   D48       -0.00560   0.00002   0.00012   0.00085   0.00097  -0.00463
   D49        0.00135  -0.00000  -0.00006  -0.00008  -0.00014   0.00122
   D50       -3.14048   0.00001   0.00019   0.00052   0.00070  -3.13978
   D51       -0.00207   0.00003  -0.00032   0.00113   0.00080  -0.00127
   D52        3.12900   0.00005  -0.00007   0.00222   0.00215   3.13115
   D53        3.13928   0.00004  -0.00008   0.00171   0.00164   3.14092
   D54       -0.01284   0.00006   0.00018   0.00281   0.00299  -0.00984
         Item               Value     Threshold  Converged?
 Maximum Force            0.007480     0.000450     NO 
 RMS     Force            0.001253     0.000300     NO 
 Maximum Displacement     0.178279     0.001800     NO 
 RMS     Displacement     0.035417     0.001200     NO 
 Predicted change in Energy=-5.675471D-04
 GradGradGradGradGradGradGradGradGradGradGradGradGradGradGradGradGradGrad

                          Input orientation:                          
 ---------------------------------------------------------------------
 Center     Atomic      Atomic             Coordinates (Angstroms)
 Number     Number       Type             X           Y           Z
 ---------------------------------------------------------------------
      1          7           0       -4.444192   -1.032570   -0.488892
      2         16           0       -3.175607   -0.443964    0.138417
      3          6           0       -2.005320    0.085420   -1.227381
      4          6           0       -0.738791    0.681752   -0.728053
      5          6           0       -0.720806    1.998295   -0.241065
      6          6           0        0.445912    2.535179    0.298167
      7          6           0        1.615616    1.777894    0.364769
      8          6           0        1.596468    0.472482   -0.125582
      9         35           0        3.166397   -0.570706   -0.055641
     10          6           0        0.437747   -0.078421   -0.668501
     11          6           0       -2.298186   -1.882451    0.758746
     12          7           0       -3.345426    0.689064    1.163529
     13          1           0       -5.167722   -0.310495   -0.488598
     14          1           0       -2.636892    0.807591   -1.766503
[...]
 Alpha virt. eigenvalues --    1.65435   1.66450   1.67414   1.67833   1.69201
 Alpha virt. eigenvalues --    1.69346   1.69770   1.70055   1.72239   1.72834
 Alpha virt. eigenvalues --    1.73173   1.75914   1.78414   1.79001   1.79420
 Alpha virt. eigenvalues --    1.82727   1.84281   1.84954   1.86424   1.88699
 Alpha virt. eigenvalues --    1.89081   1.90619   1.92520   1.93322   1.94355
 Alpha virt. eigenvalues --    1.95999   1.96357   1.97747   1.99303   2.00829
 Alpha virt. eigenvalues --    2.02452   2.03157   2.04304   2.05157   2.07825
 Alpha virt. eigenvalues --    2.08769   2.09295   2.12070   2.12843   2.13697
 Alpha virt. eigenvalues --    2.15159   2.15876   2.16890   2.18269   2.18659
 Alpha virt. eigenvalues --    2.22295   2.22953   2.24785   2.26960   2.28666
 Alpha virt. eigenvalues --    2.32211   2.33011   2.33579   2.38017   2.39040
 Alpha virt. eigenvalues --    2.40577   2.42452   2.44770   2.45926   2.47238
 Alpha virt. eigenvalues --    2.48210   2.49757   2.49875   2.54011   2.55711
 Alpha virt. eigenvalues --    2.56892   2.57941   2.58926   2.60513   2.61570
 Alpha virt. eigenvalues --    2.62965   2.63936   2.64465   2.65209   2.66852
 Alpha virt. eigenvalues --    2.67692   2.69586   2.70856   2.71361   2.73092
 Alpha virt. eigenvalues --    2.74436   2.75219   2.75609   2.77114   2.77976
 Alpha virt. eigenvalues --    2.79942   2.80369   2.81507   2.82077   2.82940
 Alpha virt. eigenvalues --    2.84990   2.86946   2.87966   2.89407   2.91026
 Alpha virt. eigenvalues --    2.94015   2.96970   2.97446   2.99621   3.02177
 Alpha virt. eigenvalues --    3.04122   3.05939   3.07933   3.08970   3.11012
 Alpha virt. eigenvalues --    3.11706   3.12367   3.14709   3.15107   3.15456
 Alpha virt. eigenvalues --    3.16588   3.18806   3.20398   3.21638   3.22522
 Alpha virt. eigenvalues --    3.23638   3.24538   3.25761   3.28089   3.28346
 Alpha virt. eigenvalues --    3.30607   3.31915   3.32955   3.35742   3.37121
 Alpha virt. eigenvalues --    3.38349   3.38735   3.39626   3.42156   3.43699
 Alpha virt. eigenvalues --    3.44154   3.46694   3.47480   3.48734   3.51025
 Alpha virt. eigenvalues --    3.52015   3.52968   3.54588   3.57127   3.58218
 Alpha virt. eigenvalues --    3.59234   3.61446   3.63167   3.65330   3.68194
 Alpha virt. eigenvalues --    3.71105   3.74189   3.75709   3.78205   3.78692
 Alpha virt. eigenvalues --    3.82050   3.83063   3.85192   3.87704   3.93607
 Alpha virt. eigenvalues --    3.96967   3.97225   4.02259   4.03316   4.04544
 Alpha virt. eigenvalues --    4.05633   4.06903   4.09184   4.10538   4.13092
 Alpha virt. eigenvalues --    4.14349   4.15788   4.17990   4.18753   4.19424
 Alpha virt. eigenvalues --    4.19852   4.21825   4.22445   4.24204   4.26085
 Alpha virt. eigenvalues --    4.27024   4.27616   4.29257   4.32018   4.35570
 Alpha virt. eigenvalues --    4.36865   4.39673   4.40604   4.41437   4.43535
 Alpha virt. eigenvalues --    4.44727   4.46649   4.52271   4.54440   4.56131
 Alpha virt. eigenvalues --    4.57993   4.61076   4.64696   4.68570   4.68737
 Alpha virt. eigenvalues --    4.71083   4.71304   4.75028   4.78579   4.82324
 Alpha virt. eigenvalues --    4.85783   4.88250   4.88523   4.99942   5.01181
 Alpha virt. eigenvalues --    5.02319   5.09070   5.11287   5.16899   5.17794
 Alpha virt. eigenvalues --    5.20185   5.22174   5.24956   5.35529   5.41966
 Alpha virt. eigenvalues --    5.42369   5.56479   5.59970   5.60942   7.78929
 Alpha virt. eigenvalues --    9.43513   9.48149   9.55202  21.65880  22.08691
 Alpha virt. eigenvalues --   22.31954  22.54744  22.69054  22.71979  22.79194
 Alpha virt. eigenvalues --   22.89313  23.23392  31.87462  31.91156
          Condensed to atoms (all electrons):
               1          2          3          4          5          6
     1  N    6.902484   0.536401  -0.088170   0.022471  -0.000455  -0.000053
     2  S    0.536401  14.093834   0.176345   0.056372  -0.012895   0.002703
     3  C   -0.088170   0.176345   5.833283  -0.103374  -0.102605   0.016802
     4  C    0.022471   0.056372  -0.103374   5.538136   0.188548   0.117473
     5  C   -0.000455  -0.012895  -0.102605   0.188548   5.403298   0.296127
     6  C   -0.000053   0.002703   0.016802   0.117473   0.296127   5.031756
     7  C    0.000006  -0.001801   0.002099  -0.176629   0.123834   0.323517
     8  C    0.000024   0.006233  -0.003583   0.156117  -0.168597   0.121575
     9  Br  -0.000000   0.000020  -0.001249   0.018932  -0.000678   0.017341
    10  C    0.000313  -0.016798  -0.038379   0.195721   0.103558  -0.166042
    11  C   -0.091946   0.281034  -0.087386   0.000185   0.012798  -0.001087
    12  N   -0.078851   0.420976  -0.046025  -0.010856   0.019201  -0.001490
    13  H    0.307673  -0.009132  -0.005234  -0.000522   0.000324  -0.000003
    14  H    0.009781  -0.014464   0.333907  -0.015794   0.007957  -0.000615
    15  H    0.011297  -0.014652   0.362693  -0.036156   0.015344  -0.001956
    16  H   -0.000233  -0.002800  -0.000581  -0.072697   0.451441  -0.052100
    17  H   -0.000000  -0.000001  -0.000271   0.014700  -0.055662   0.430202
    18  H    0.000000  -0.000008   0.000104  -0.004339   0.012324  -0.062270
    19  H   -0.000010  -0.001158   0.000506  -0.083809   0.014229  -0.005166
    20  H    0.007008  -0.017515   0.010129  -0.000988  -0.000670   0.000064
    21  H    0.006943  -0.007685   0.002812   0.004130  -0.000666   0.000347
    22  H    0.003011  -0.011966   0.004778  -0.000860  -0.001736   0.000125
    23  H    0.007392   0.010618   0.002856   0.011178  -0.015967   0.005008
               7          8          9         10         11         12
     1  N    0.000006   0.000024  -0.000000   0.000313  -0.091946  -0.078851
     2  S   -0.001801   0.006233   0.000020  -0.016798   0.281034   0.420976
     3  C    0.002099  -0.003583  -0.001249  -0.038379  -0.087386  -0.046025
     4  C   -0.176629   0.156117   0.018932   0.195721   0.000185  -0.010856
     5  C    0.123834  -0.168597  -0.000678   0.103558   0.012798   0.019201
     6  C    0.323517   0.121575   0.017341  -0.166042  -0.001087  -0.001490
     7  C    5.144465   0.345662  -0.071765   0.089872   0.000743   0.000052
     8  C    0.345662   4.939569   0.321160   0.218877  -0.004872   0.001454
     9  Br  -0.071765   0.321160  34.877889  -0.076469  -0.000148  -0.000004
    10  C    0.089872   0.218877  -0.076469   5.542311   0.007977  -0.004127
    11  C    0.000743  -0.004872  -0.000148   0.007977   5.172042  -0.048337
    12  N    0.000052   0.001454  -0.000004  -0.004127  -0.048337   6.982188
    13  H    0.000002  -0.000014   0.000000   0.000003   0.011767  -0.002840
    14  H    0.000632  -0.001749   0.000012   0.006929   0.009134  -0.002043
    15  H    0.000671   0.001072  -0.000011  -0.003632   0.001122   0.005467
    16  H    0.012615  -0.004880   0.000046   0.013805   0.000685   0.006496
    17  H   -0.054307   0.010813  -0.000457  -0.002172  -0.000013  -0.000136
    18  H    0.438571  -0.060453  -0.004791   0.017506   0.000008  -0.000000
    19  H    0.016262  -0.058865  -0.002404   0.454192  -0.000070  -0.000083
    20  H   -0.000031   0.000139   0.000002  -0.000075   0.373255   0.005130
    21  H   -0.000329   0.003118   0.000462  -0.011499   0.360325  -0.000028
    22  H   -0.000088   0.000897   0.000004   0.000770   0.367995   0.005285
    23  H   -0.001488   0.001411   0.000007  -0.001688  -0.007512   0.292133
              13         14         15         16         17         18
     1  N    0.307673   0.009781   0.011297  -0.000233  -0.000000   0.000000
     2  S   -0.009132  -0.014464  -0.014652  -0.002800  -0.000001  -0.000008
     3  C   -0.005234   0.333907   0.362693  -0.000581  -0.000271   0.000104
     4  C   -0.000522  -0.015794  -0.036156  -0.072697   0.014700  -0.004339
     5  C    0.000324   0.007957   0.015344   0.451441  -0.055662   0.012324
     6  C   -0.000003  -0.000615  -0.001956  -0.052100   0.430202  -0.062270
     7  C    0.000002   0.000632   0.000671   0.012615  -0.054307   0.438571
     8  C   -0.000014  -0.001749   0.001072  -0.004880   0.010813  -0.060453
     9  Br   0.000000   0.000012  -0.000011   0.000046  -0.000457  -0.004791
    10  C    0.000003   0.006929  -0.003632   0.013805  -0.002172   0.017506
    11  C    0.011767   0.009134   0.001122   0.000685  -0.000013   0.000008
    12  N   -0.002840  -0.002043   0.005467   0.006496  -0.000136  -0.000000
    13  H    0.470200   0.003343  -0.000569   0.000107  -0.000000   0.000000
    14  H    0.003343   0.520910  -0.007858   0.002108  -0.000054   0.000001
    15  H   -0.000569  -0.007858   0.509410   0.000511  -0.000005  -0.000000
    16  H    0.000107   0.002108   0.000511   0.503348  -0.007226  -0.000113
    17  H   -0.000000  -0.000054  -0.000005  -0.007226   0.539801  -0.007610
    18  H    0.000000   0.000001  -0.000000  -0.000113  -0.007610   0.530498
    19  H    0.000003   0.000294   0.001285  -0.000149   0.000066  -0.000066
    20  H   -0.000524  -0.000328  -0.000497  -0.000016   0.000001  -0.000000
    21  H   -0.000568  -0.000776   0.001511  -0.000091   0.000006  -0.000007
    22  H   -0.000717  -0.000164  -0.003888  -0.000048   0.000001  -0.000000
    23  H   -0.000128   0.000266  -0.001171  -0.004758   0.000164  -0.000019
              19         20         21         22         23
     1  N   -0.000010   0.007008   0.006943   0.003011   0.007392
     2  S   -0.001158  -0.017515  -0.007685  -0.011966   0.010618
     3  C    0.000506   0.010129   0.002812   0.004778   0.002856
     4  C   -0.083809  -0.000988   0.004130  -0.000860   0.011178
     5  C    0.014229  -0.000670  -0.000666  -0.001736  -0.015967
     6  C   -0.005166   0.000064   0.000347   0.000125   0.005008
     7  C    0.016262  -0.000031  -0.000329  -0.000088  -0.001488
     8  C   -0.058865   0.000139   0.003118   0.000897   0.001411
     9  Br  -0.002404   0.000002   0.000462   0.000004   0.000007
    10  C    0.454192  -0.000075  -0.011499   0.000770  -0.001688
    11  C   -0.000070   0.373255   0.360325   0.367995  -0.007512
    12  N   -0.000083   0.005130  -0.000028   0.005285   0.292133
    13  H    0.000003  -0.000524  -0.000568  -0.000717  -0.000128
    14  H    0.000294  -0.000328  -0.000776  -0.000164   0.000266
    15  H    0.001285  -0.000497   0.001511  -0.003888  -0.001171
    16  H   -0.000149  -0.000016  -0.000091  -0.000048  -0.004758
    17  H    0.000066   0.000001   0.000006   0.000001   0.000164
    18  H   -0.000066  -0.000000  -0.000007  -0.000000  -0.000019
    19  H    0.525812   0.000043  -0.001148  -0.000170  -0.000028
    20  H    0.000043   0.476765  -0.010396  -0.007795   0.000278
    21  H   -0.001148  -0.010396   0.517395  -0.021398   0.000844
    22  H   -0.000170  -0.007795  -0.021398   0.513016   0.000280
    23  H   -0.000028   0.000278   0.000844   0.000280   0.473677
 Mulliken charges:
               1
     1  N   -0.555086
     2  S    0.526340
     3  C   -0.269456
     4  C    0.182062
     5  C   -0.289051
     6  C   -0.072257
     7  C   -0.192562
     8  C    0.174892
     9  Br  -0.077896
    10  C   -0.330951
    11  C   -0.357699
    12  N   -0.543563
    13  H    0.226829
    14  H    0.148571
    15  H    0.160009
    16  H    0.154528
    17  H    0.132161
    18  H    0.140665
    19  H    0.140432
    20  H    0.166019
    21  H    0.156697
    22  H    0.152668
    23  H    0.226647
 Sum of Mulliken charges =  -0.00000
 Mulliken charges with hydrogens summed into heavy atoms:
               1
     1  N   -0.328256
     2  S    0.526340
     3  C    0.039125
     4  C    0.182062
     5  C   -0.134523
     6  C    0.059904
     7  C   -0.051897
     8  C    0.174892
     9  Br  -0.077896
    10  C   -0.190519
    11  C    0.117685
    12  N   -0.316917
 Electronic spatial extent (au):  <R**2>=           4158.2550
 Charge=              0.0000 electrons
 Dipole moment (field-independent basis, Debye):
    X=             -2.6630    Y=              0.7726    Z=              0.8473  Tot=              2.8994
 Quadrupole moment (field-independent basis, Debye-Ang):
   XX=           -112.2635   YY=            -84.9847   ZZ=            -93.4749
   XY=              0.4236   XZ=              6.3453   YZ=              1.5491
 Traceless Quadrupole moment (field-independent basis, Debye-Ang):
   XX=            -15.3558   YY=             11.9230   ZZ=              3.4328
   XY=              0.4236   XZ=              6.3453   YZ=              1.5491
 Octapole moment (field-independent basis, Debye-Ang**2):
  XXX=           -172.7937  YYY=            -15.5391  ZZZ=             -0.4821  XYY=            -41.0024
  XXY=             14.7008  XXZ=             14.2680  XZZ=            -32.8723  YZZ=            -14.2322
  YYZ=             -8.4268  XYZ=             20.6895
 Hexadecapole moment (field-independent basis, Debye-Ang**3):
 XXXX=          -3990.4416 YYYY=           -849.5495 ZZZZ=           -332.8680 XXXY=            212.0684
 XXXZ=            101.4513 YYYX=             67.8940 YYYZ=            -14.7708 ZZZX=             16.7283
 ZZZY=              6.1498 XXYY=           -799.5913 XXZZ=           -708.6870 YYZZ=           -206.9414
 XXYZ=             59.5128 YYXZ=              5.0337 ZZXY=             19.4759
 N-N= 1.080996351421D+03 E-N=-1.023640719050D+04  KE= 3.386299193172D+03
 Breneman (CHELPG) radii used.
 Read replacement radii for each type of atom:
 Rad(35) =   1.850000000000D+00
 Atom Element Radius
    1     7    1.70
    2    16    2.00
    3     6    1.50
    4     6    1.50
    5     6    1.50
    6     6    1.50
    7     6    1.50
    8     6    1.50
    9    35    1.85
   10     6    1.50
   11     6    1.50
   12     7    1.70
   13     1    1.45
   14     1    1.45
   15     1    1.45
   16     1    1.45
   17     1    1.45
   18     1    1.45
   19     1    1.45
   20     1    1.45
   21     1    1.45
   22     1    1.45
   23     1    1.45
 Generate Potential Derived Charges using the Breneman model, NDens= 1.
 Grid spacing= 0.300 Box extension= 2.800
 NStep X,Y,Z=   47     41     31   Total possible points=       59737
 Number of Points to Fit=   14785

 **********************************************************************

            Electrostatic Properties Using The SCF Density.

 **********************************************************************

       Atomic Center    1 is at   4.312027 -0.901435  0.464636
       Atomic Center    2 is at   3.011393 -0.349580 -0.142398
       Atomic Center    3 is at   1.822142  0.132049  1.212793
       Atomic Center    4 is at   0.529849  0.673416  0.717056
       Atomic Center    5 is at   0.440087  2.001090  0.273818
       Atomic Center    6 is at  -0.749747  2.485908 -0.262363
       Atomic Center    7 is at  -1.869911  1.663815 -0.368907
       Atomic Center    8 is at  -1.779709  0.345773  0.076178
       Atomic Center    9 is at  -3.284270 -0.785492 -0.051295
       Atomic Center   10 is at  -0.596468 -0.153149  0.614622
       Atomic Center   11 is at   2.212095 -1.825628 -0.768707
       Atomic Center   12 is at   3.125622  0.794891 -1.168417
       Atomic Center   13 is at   4.937134 -0.108057  0.627324
       Atomic Center   14 is at   2.417492  0.880986  1.755154
       Atomic Center   15 is at   1.716628 -0.761276  1.843772
       Atomic Center   16 is at   1.312541  2.653617  0.353570
       Atomic Center   17 is at  -0.811396  3.522644 -0.601133
       Atomic Center   18 is at  -2.805040  2.039415 -0.786840
       Atomic Center   19 is at  -0.553455 -1.187312  0.963263
       Atomic Center   20 is at   2.839274 -2.142701 -1.611344
       Atomic Center   21 is at   1.200432 -1.567586 -1.108026
       Atomic Center   22 is at   2.198936 -2.594269  0.013806
       Atomic Center   23 is at   2.201057  1.156218 -1.416333
   14785 points will be used for fitting atomic charges
 Fitting point charges to electrostatic potential
 Charges from ESP fit, RMS=   0.00425 RRMS=   0.24802:
 ESP charges:
               1
     1  N   -0.824835
     2  S    0.918194
     3  C   -0.372027
     4  C    0.181210
     5  C   -0.168465
     6  C   -0.107800
     7  C   -0.066571
     8  C    0.037849
     9  Br  -0.079102
    10  C   -0.110525
    11  C   -0.232689
    12  N   -0.798646
    13  H    0.362340
    14  H    0.115024
    15  H    0.132583
    16  H    0.128885
    17  H    0.118415
    18  H    0.087438
    19  H    0.083367
    20  H    0.116870
    21  H    0.050122
    22  H    0.123174
    23  H    0.305188
 Sum of ESP charges =  -0.00000
 ESP charges with hydrogens summed into heavy atoms:
               1
     1  N   -0.462495
     2  S    0.918194
     3  C   -0.124419
     4  C    0.181210
     5  C   -0.039580
     6  C    0.010615
     7  C    0.020867
     8  C    0.037849
     9  Br  -0.079102
    10  C   -0.027158
    11  C    0.057478
    12  N   -0.493459
 Charge=  -0.00000 Dipole=    -2.8059     0.7963     0.9973 Tot=     3.0824
 -----------------------------------------------------------------

              Electrostatic Properties (Atomic Units)

 -----------------------------------------------------------------
    Center     Electric         -------- Electric Field --------
               Potential          X             Y             Z
 -----------------------------------------------------------------
    1 Atom    -18.424873
    2 Atom    -59.073001
    3 Atom    -14.721233
    4 Atom    -14.720375
    5 Atom    -14.739299
    6 Atom    -14.735488
    7 Atom    -14.735033
    8 Atom    -14.686266
    9 Atom   -175.791436
   10 Atom    -14.732552
   11 Atom    -14.731115
   12 Atom    -18.422824
   13 Atom     -1.048506
   14 Atom     -1.070630
   15 Atom     -1.071251
   16 Atom     -1.080146
   17 Atom     -1.078913
   18 Atom     -1.075588
   19 Atom     -1.070533
   20 Atom     -1.071428
   21 Atom     -1.068447
   22 Atom     -1.069941
   23 Atom     -1.042911
 -----------------------------------------------------------------
 Unable to Open any file for archive entry.
 1\1\GINC-NOTCH150\SP\RPBE1PBE\def2TZVP\C8H11Br1N2S1\U1414944\07-Jun-20
 25\0\\#N Guess=Read Geom=Check Integral(Ultrafine) Density Pop=(ChelpG
 ,ReadRadii) NMR pbe1pbe EmpiricalDispersion=GD3BJ def2TZVP\\SDI2997_1\
 \0,1\N,0,-4.4508233198,-1.0622801842,-0.4410592906\S,0,-3.1692516725,-
 0.4597268621,0.1582645077\C,0,-2.0238892336,0.1019456168,-1.2039010426
 \C,0,-0.7517556221,0.6955859637,-0.7159241159\C,0,-0.7187779327,2.0180
 159217,-0.2497395294\C,0,0.4542921906,2.549575951,0.2790265929\C,0,1.6
 136621013,1.7801612254,0.3553137582\C,0,1.5797609277,0.4673628013,-0.1
 125354788\Br,0,3.1380416283,-0.5928353534,-0.0261927655\C,0,0.41391225
 04,-0.0779272463,-0.6439115487\C,0,-2.2917928623,-1.9067290703,0.74657
 58079\N,0,-3.3229072182,0.65972702,1.2064960863\H,0,-5.1151917096,-0.2
 969144942,-0.5807163139\H,0,-2.6619025489,0.8310386072,-1.7243486769\H
 ,0,-1.8851709085,-0.774065654,-1.8524831442\H,0,-1.6223024432,2.629440
 7349,-0.3057025153\H,0,0.4715048881,3.5819426292,0.6358312296\H,0,2.53
 58236713,2.1925657942,0.7673203181\H,0,0.4150485474,-1.1066616125,-1.0
 107894376\H,0,-2.8909855006,-2.2681869718,1.5917045039\H,0,-1.28874145
 ,-1.6066907907,1.0768015674\H,0,-2.2534238723,-2.6599574328,-0.0499683
 694\H,0,-2.4130697827,1.0603683414,1.448412831\\Version=ES64L-G16RevC.
 01\State=1-A\HF=-3392.4916756\RMSD=4.796e-09\Dipole=1.027178,0.3594669
 ,-0.3419053\Quadrupole=-11.2006106,8.818807,2.3818037,-1.3764471,4.941
 8169,-0.7949\PG=C01 [X(C8H11Br1N2S1)]\\@
 The archive entry for this job was punched.


 LAWS OF PROGRAMMING DEFINITION:  A WORKING PROGRAM
                                  IS ONE THAT HAS
                                  ONLY UNOBSERVED
                                  BUGS.
 Job cpu time:       0 days  0 hours 34 minutes 29.9 seconds.
 Elapsed time:       0 days  0 hours  2 minutes 20.4 seconds.
 File lengths (MBytes):  RWF=    137 Int=      0 D2E=      0 Chk=     21 Scr=      2
 Normal termination of Gaussian 16 at Sat Jun  7 02:42:41 2025.
