 Entering Gaussian System, Link 0=g16
 Input=SDI2997_2.com
 Output=SDI2997_2.log
 Initial command:
 /uufs/chpc.utah.edu/sys/installdir/gaussian16/C01/AVX/g16/l1.exe "/scratch/general/vast/u1414944/4689620-notchpeak.peaks/Gau-2807268.inp" -scrdir="/scratch/general/vast/u1414944/4689620-notchpeak.peaks/"
 Entering Link 1 = /uufs/chpc.utah.edu/sys/installdir/gaussian16/C01/AVX/g16/l1.exe PID=   2807269.
  
 Copyright (c) 1988-2019, Gaussian, Inc.  All Rights Reserved.
  
 This is part of the Gaussian(R) 16 program.  It is based on
 the Gaussian(R) 09 system (copyright 2009, Gaussian, Inc.),
 the Gaussian(R) 03 system (copyright 2003, Gaussian, Inc.),
 the Gaussian(R) 98 system (copyright 1998, Gaussian, Inc.),
 the Gaussian(R) 94 system (copyright 1995, Gaussian, Inc.),
 the Gaussian 92(TM) system (copyright 1992, Gaussian, Inc.),
 the Gaussian 90(TM) system (copyright 1990, Gaussian, Inc.),
 the Gaussian 88(TM) system (copyright 1988, Gaussian, Inc.),
 the Gaussian 86(TM) system (copyright 1986, Carnegie Mellon
 University), and the Gaussian 82(TM) system (copyright 1983,
 Carnegie Mellon University). Gaussian is a federally registered
 trademark of Gaussian, Inc.
  
 This software contains proprietary and confidential information,
 including trade secrets, belonging to Gaussian, Inc.
  
 This software is provided under written license and may be
 used, copied, transmitted, or stored only in accord with that
 written license.
  
 The following legend is applicable only to US Government
 contracts under FAR:
  
                    RESTRICTED RIGHTS LEGEND
  
 Use, reproduction and disclosure by the US Government is
 subject to restrictions as set forth in subparagraphs (a)
 and (c) of the Commercial Computer Software - Restricted
 Rights clause in FAR 52.227-19.
  
 Gaussian, Inc.
 340 Quinnipiac St., Bldg. 40, Wallingford CT 06492
  
  
 ---------------------------------------------------------------
 Warning -- This program may not be used in any manner that
 competes with the business of Gaussian, Inc. or will provide
 assistance to any competitor of Gaussian, Inc.  The licensee
 of this program is prohibited from giving any competitor of
 Gaussian, Inc. access to this program.  By using this program,
 the user acknowledges that Gaussian, Inc. is engaged in the
 business of creating and licensing software in the field of
 computational chemistry and represents and warrants to the
 licensee that it is not a competitor of Gaussian, Inc. and that
 it will not use this program in any manner prohibited above.
 ---------------------------------------------------------------
  

 Cite this work as:
 Gaussian 16, Revision C.01,
 M. J. Frisch, G. W. Trucks, H. B. Schlegel, G. E. Scuseria, 
 M. A. Robb, J. R. Cheeseman, G. Scalmani, V. Barone, 
 G. A. Petersson, H. Nakatsuji, X. Li, M. Caricato, A. V. Marenich, 
 J. Bloino, B. G. Janesko, R. Gomperts, B. Mennucci, H. P. Hratchian, 
 J. V. Ortiz, A. F. Izmaylov, J. L. Sonnenberg, D. Williams-Young, 
 F. Ding, F. Lipparini, F. Egidi, J. Goings, B. Peng, A. Petrone, 
 T. Henderson, D. Ranasinghe, V. G. Zakrzewski, J. Gao, N. Rega, 
 G. Zheng, W. Liang, M. Hada, M. Ehara, K. Toyota, R. Fukuda, 
 J. Hasegawa, M. Ishida, T. Nakajima, Y. Honda, O. Kitao, H. Nakai, 
 T. Vreven, K. Throssell, J. A. Montgomery, Jr., J. E. Peralta, 
 F. Ogliaro, M. J. Bearpark, J. J. Heyd, E. N. Brothers, K. N. Kudin, 
 V. N. Staroverov, T. A. Keith, R. Kobayashi, J. Normand, 
 K. Raghavachari, A. P. Rendell, J. C. Burant, S. S. Iyengar, 
 J. Tomasi, M. Cossi, J. M. Millam, M. Klene, C. Adamo, R. Cammi, 
 J. W. Ochterski, R. L. Martin, K. Morokuma, O. Farkas, 
 J. B. Foresman, and D. J. Fox, Gaussian, Inc., Wallingford CT, 2019.
 
 ******************************************
 Gaussian 16:  ES64L-G16RevC.01  3-Jul-2019
                 7-Jun-2025 
 ******************************************
 %NProcShared=16
 Will use up to   16 processors via shared memory.
 %Mem=40GB
 %chk=SDI2997_2.chk
 ----------------------------------------------------------------------
 #N OPT FREQ=NORAMAN Integral(Ultrafine) pbe1pbe EmpiricalDispersion=GD
 3BJ def2SVP
 ----------------------------------------------------------------------
 1/18=20,19=15,26=4,38=1/1,3;
 2/9=110,12=2,17=6,18=5,40=1/2;
 3/5=43,7=101,11=2,25=1,30=1,71=1,74=-13,75=-5,124=41/1,2,3;
 4//1;
 5/5=2,38=5/2;
 6/7=2,8=2,9=2,10=2,28=1/1;
 7//1,2,3,16;
 1/18=20,19=15,26=4/3(2);
 2/9=110/2;
 99//99;
 2/9=110/2;
 3/5=43,7=101,11=2,25=1,30=1,71=1,74=-13,75=-5,124=41/1,2,3;
 4/5=5,16=3,69=1/1;
 5/5=2,38=5/2;
 7//1,2,3,16;
 1/18=20,19=15,26=4/3(-5);
 2/9=110/2;
 6/7=2,8=2,9=2,10=2,19=2,28=1/1;
 99/9=1/99;
 ---------
 SDI2997_2
 ---------
 Symbolic Z-matrix:
 Charge =  0 Multiplicity = 1
 N                    -4.25397  -1.4057   -0.30377 
 S                    -3.22644  -0.36853   0.17036 
 C                    -2.02983   0.13583  -1.1623 
 C                    -0.77066   0.64989  -0.57467 
 C                    -0.76371   1.86079   0.11341 
 C                     0.39855   2.32585   0.69999 
 C                     1.57488   1.59883   0.60943 
 C                     1.56002   0.39716  -0.07564 
 Br                    3.16548  -0.62667  -0.20894 
 C                     0.40583  -0.08661  -0.66466 
 C                    -2.14315  -1.40728   1.21036 
 N                    -3.59389   0.99296   0.77887 
 H                    -5.09152  -1.01548  -0.70341 
 H                    -2.56401   0.90514  -1.71473 
 H                    -1.88366  -0.74685  -1.78014 
 H                    -1.68701   2.40996   0.20439 
 H                     0.39566   3.26352   1.23432 
 H                     2.48591   1.95743   1.06254 
 H                     0.42391  -1.02725  -1.19496 
 H                    -1.34877  -0.79338   1.61631 
 H                    -1.75953  -2.20354   0.5868 
 H                    -2.75652  -1.82169   2.00103 
 H                    -4.40637   0.97288   1.3727 
 

 GradGradGradGradGradGradGradGradGradGradGradGradGradGradGradGradGradGrad
 Berny optimization.
 Initialization pass.
                           ----------------------------
                           !    Initial Parameters    !
                           ! (Angstroms and Degrees)  !
 --------------------------                            --------------------------
 ! Name  Definition              Value          Derivative Info.                !
 --------------------------------------------------------------------------------
 ! R1    R(1,2)                  1.535          estimate D2E/DX2                !
 ! R2    R(1,13)                 1.0067         estimate D2E/DX2                !
 ! R3    R(2,3)                  1.8607         estimate D2E/DX2                !
 ! R4    R(2,11)                 1.826          estimate D2E/DX2                !
 ! R5    R(2,12)                 1.5359         estimate D2E/DX2                !
 ! R6    R(3,4)                  1.4816         estimate D2E/DX2                !
 ! R7    R(3,14)                 1.0874         estimate D2E/DX2                !
 ! R8    R(3,15)                 1.0873         estimate D2E/DX2                !
 ! R9    R(4,5)                  1.3928         estimate D2E/DX2                !
 ! R10   R(4,10)                 1.3909         estimate D2E/DX2                !
 ! R11   R(5,6)                  1.3825         estimate D2E/DX2                !
 ! R12   R(5,16)                 1.0781         estimate D2E/DX2                !
 ! R13   R(6,7)                  1.3858         estimate D2E/DX2                !
 ! R14   R(6,17)                 1.0792         estimate D2E/DX2                !
 ! R15   R(7,8)                  1.3833         estimate D2E/DX2                !
 ! R16   R(7,18)                 1.0788         estimate D2E/DX2                !
 ! R17   R(8,9)                  1.9088         estimate D2E/DX2                !
 ! R18   R(8,10)                 1.3832         estimate D2E/DX2                !
 ! R19   R(10,19)                1.08           estimate D2E/DX2                !
 ! R20   R(11,20)                1.0829         estimate D2E/DX2                !
 ! R21   R(11,21)                1.0817         estimate D2E/DX2                !
 ! R22   R(11,22)                1.0831         estimate D2E/DX2                !
 ! R23   R(12,23)                1.0066         estimate D2E/DX2                !
 ! A1    A(2,1,13)             114.6845         estimate D2E/DX2                !
 ! A2    A(1,2,3)              113.104          estimate D2E/DX2                !
 ! A3    A(1,2,11)             100.8757         estimate D2E/DX2                !
 ! A4    A(1,2,12)             124.137          estimate D2E/DX2                !
 ! A5    A(3,2,11)             100.4043         estimate D2E/DX2                !
 ! A6    A(3,2,12)             101.381          estimate D2E/DX2                !
 ! A7    A(11,2,12)            114.8703         estimate D2E/DX2                !
 ! A8    A(2,3,4)              110.8879         estimate D2E/DX2                !
 ! A9    A(2,3,14)             103.8697         estimate D2E/DX2                !
 ! A10   A(2,3,15)             105.8658         estimate D2E/DX2                !
 ! A11   A(4,3,14)             111.9338         estimate D2E/DX2                !
 ! A12   A(4,3,15)             113.1283         estimate D2E/DX2                !
 ! A13   A(14,3,15)            110.5919         estimate D2E/DX2                !
 ! A14   A(3,4,5)              120.1223         estimate D2E/DX2                !
 ! A15   A(3,4,10)             120.6296         estimate D2E/DX2                !
 ! A16   A(5,4,10)             119.2161         estimate D2E/DX2                !
 ! A17   A(4,5,6)              120.4172         estimate D2E/DX2                !
 ! A18   A(4,5,16)             118.7039         estimate D2E/DX2                !
 ! A19   A(6,5,16)             120.8521         estimate D2E/DX2                !
 ! A20   A(5,6,7)              120.6252         estimate D2E/DX2                !
 ! A21   A(5,6,17)             120.0069         estimate D2E/DX2                !
 ! A22   A(7,6,17)             119.3679         estimate D2E/DX2                !
 ! A23   A(6,7,8)              118.618          estimate D2E/DX2                !
 ! A24   A(6,7,18)             120.9963         estimate D2E/DX2                !
 ! A25   A(8,7,18)             120.3858         estimate D2E/DX2                !
 ! A26   A(7,8,9)              119.4389         estimate D2E/DX2                !
 ! A27   A(7,8,10)             121.5803         estimate D2E/DX2                !
 ! A28   A(9,8,10)             118.9803         estimate D2E/DX2                !
 ! A29   A(4,10,8)             119.5424         estimate D2E/DX2                !
 ! A30   A(4,10,19)            120.472          estimate D2E/DX2                !
 ! A31   A(8,10,19)            119.9846         estimate D2E/DX2                !
 ! A32   A(2,11,20)            109.039          estimate D2E/DX2                !
 ! A33   A(2,11,21)            107.5082         estimate D2E/DX2                !
 ! A34   A(2,11,22)            107.3056         estimate D2E/DX2                !
 ! A35   A(20,11,21)           111.9168         estimate D2E/DX2                !
 ! A36   A(20,11,22)           111.0179         estimate D2E/DX2                !
 ! A37   A(21,11,22)           109.878          estimate D2E/DX2                !
 ! A38   A(2,12,23)            114.1519         estimate D2E/DX2                !
 ! D1    D(13,1,2,3)           -88.7503         estimate D2E/DX2                !
 ! D2    D(13,1,2,11)          164.8762         estimate D2E/DX2                !
 ! D3    D(13,1,2,12)           34.5101         estimate D2E/DX2                !
 ! D4    D(1,2,3,4)           -156.1449         estimate D2E/DX2                !
 ! D5    D(1,2,3,14)            83.4544         estimate D2E/DX2                !
 ! D6    D(1,2,3,15)           -33.0838         estimate D2E/DX2                !
 ! D7    D(11,2,3,4)           -49.4729         estimate D2E/DX2                !
 ! D8    D(11,2,3,14)         -169.8736         estimate D2E/DX2                !
 ! D9    D(11,2,3,15)           73.5881         estimate D2E/DX2                !
 ! D10   D(12,2,3,4)            68.7649         estimate D2E/DX2                !
 ! D11   D(12,2,3,14)          -51.6358         estimate D2E/DX2                !
 ! D12   D(12,2,3,15)         -168.1741         estimate D2E/DX2                !
 ! D13   D(1,2,11,20)          179.6346         estimate D2E/DX2                !
 ! D14   D(1,2,11,21)           58.1075         estimate D2E/DX2                !
 ! D15   D(1,2,11,22)          -60.039          estimate D2E/DX2                !
 ! D16   D(3,2,11,20)           63.4328         estimate D2E/DX2                !
 ! D17   D(3,2,11,21)          -58.0943         estimate D2E/DX2                !
 ! D18   D(3,2,11,22)         -176.2408         estimate D2E/DX2                !
 ! D19   D(12,2,11,20)         -44.4008         estimate D2E/DX2                !
 ! D20   D(12,2,11,21)        -165.9279         estimate D2E/DX2                !
 ! D21   D(12,2,11,22)          75.9256         estimate D2E/DX2                !
 ! D22   D(1,2,12,23)           37.2486         estimate D2E/DX2                !
 ! D23   D(3,2,12,23)          165.5698         estimate D2E/DX2                !
 ! D24   D(11,2,12,23)         -87.1914         estimate D2E/DX2                !
 ! D25   D(2,3,4,5)            -68.6735         estimate D2E/DX2                !
 ! D26   D(2,3,4,10)           109.2549         estimate D2E/DX2                !
 ! D27   D(14,3,4,5)            46.8112         estimate D2E/DX2                !
 ! D28   D(14,3,4,10)         -135.2604         estimate D2E/DX2                !
 ! D29   D(15,3,4,5)           172.5636         estimate D2E/DX2                !
 ! D30   D(15,3,4,10)           -9.508          estimate D2E/DX2                !
 ! D31   D(3,4,5,6)            177.9709         estimate D2E/DX2                !
 ! D32   D(3,4,5,16)            -0.1617         estimate D2E/DX2                !
 ! D33   D(10,4,5,6)             0.0134         estimate D2E/DX2                !
 ! D34   D(10,4,5,16)         -178.1193         estimate D2E/DX2                !
 ! D35   D(3,4,10,8)          -178.1982         estimate D2E/DX2                !
 ! D36   D(3,4,10,19)            2.1741         estimate D2E/DX2                !
 ! D37   D(5,4,10,8)            -0.2512         estimate D2E/DX2                !
 ! D38   D(5,4,10,19)         -179.8789         estimate D2E/DX2                !
 ! D39   D(4,5,6,7)              0.2258         estimate D2E/DX2                !
 ! D40   D(4,5,6,17)          -179.8021         estimate D2E/DX2                !
 ! D41   D(16,5,6,7)           178.3179         estimate D2E/DX2                !
 ! D42   D(16,5,6,17)           -1.71           estimate D2E/DX2                !
 ! D43   D(5,6,7,8)             -0.2201         estimate D2E/DX2                !
 ! D44   D(5,6,7,18)           179.8281         estimate D2E/DX2                !
 ! D45   D(17,6,7,8)           179.8076         estimate D2E/DX2                !
 ! D46   D(17,6,7,18)           -0.1442         estimate D2E/DX2                !
 ! D47   D(6,7,8,9)           -179.7611         estimate D2E/DX2                !
 ! D48   D(6,7,8,10)            -0.0228         estimate D2E/DX2                !
 ! D49   D(18,7,8,9)             0.191          estimate D2E/DX2                !
 ! D50   D(18,7,8,10)          179.9293         estimate D2E/DX2                !
 ! D51   D(7,8,10,4)             0.2591         estimate D2E/DX2                !
 ! D52   D(7,8,10,19)          179.8886         estimate D2E/DX2                !
 ! D53   D(9,8,10,4)           179.9986         estimate D2E/DX2                !
 ! D54   D(9,8,10,19)           -0.3719         estimate D2E/DX2                !
 --------------------------------------------------------------------------------
 Trust Radius=3.00D-01 FncErr=1.00D-07 GrdErr=1.00D-06 EigMax=2.50D+02 EigMin=1.00D-04
 Number of steps in this run=    125 maximum allowed number of steps=    138.
 GradGradGradGradGradGradGradGradGradGradGradGradGradGradGradGradGradGrad

                          Input orientation:                          
 ---------------------------------------------------------------------
 Center     Atomic      Atomic             Coordinates (Angstroms)
 Number     Number       Type             X           Y           Z
 ---------------------------------------------------------------------
      1          7           0       -4.253975   -1.405697   -0.303769
      2         16           0       -3.226443   -0.368529    0.170364
      3          6           0       -2.029829    0.135828   -1.162299
      4          6           0       -0.770655    0.649886   -0.574675
      5          6           0       -0.763707    1.860791    0.113409
      6          6           0        0.398547    2.325854    0.699987
      7          6           0        1.574877    1.598834    0.609434
      8          6           0        1.560018    0.397161   -0.075640
      9         35           0        3.165477   -0.626670   -0.208941
     10          6           0        0.405831   -0.086607   -0.664661
     11          6           0       -2.143150   -1.407284    1.210358
     12          7           0       -3.593888    0.992963    0.778872
     13          1           0       -5.091520   -1.015479   -0.703407
     14          1           0       -2.564008    0.905144   -1.714733
     15          1           0       -1.883659   -0.746849   -1.780138
     16          1           0       -1.687010    2.409960    0.204395
     17          1           0        0.395664    3.263517    1.234322
     18          1           0        2.485907    1.957432    1.062542
     19          1           0        0.423914   -1.027247   -1.194962
     20          1           0       -1.348773   -0.793384    1.616311
     21          1           0       -1.759530   -2.203544    0.586798
     22          1           0       -2.756516   -1.821692    2.001028
     23          1           0       -4.406368    0.972876    1.372699
 ---------------------------------------------------------------------
                    Distance matrix (angstroms):
                    1          2          3          4          5
     1  N    0.000000
     2  S    1.535038   0.000000
     3  C    2.839049   1.860714   0.000000
     4  C    4.053680   2.761004   1.481579   0.000000
     5  C    4.798536   3.322376   2.491183   1.392767   0.000000
     6  C    6.047971   4.547610   3.763155   2.408457   1.382459
     7  C    6.620926   5.207300   4.274732   2.793589   2.404919
     8  C    6.091375   4.853556   3.759804   2.396861   2.752753
     9  Br   7.460840   6.408366   5.336806   4.154094   4.661530
    10  C    4.856339   3.737669   2.495909   1.390913   2.401160
    11  C    2.597723   1.825959   2.832585   3.049923   3.713014
    12  N    2.713190   1.535890   2.636116   3.149671   3.034121
    13  H    1.006709   2.158826   3.303036   4.632481   5.260236
    14  H    3.191676   2.369527   1.087372   2.140328   2.737964
    15  H    2.869171   2.398052   1.087294   2.154712   3.411685
    16  H    4.626746   3.176635   2.675267   2.131787   1.078125
    17  H    6.766566   5.238647   4.627013   3.385829   2.137341
    18  H    7.655289   6.231936   5.353506   3.872384   3.386766
    19  H    4.777037   3.952611   2.715633   2.150471   3.385711
    20  H    3.535793   2.407677   3.007980   2.686571   3.105746
    21  H    2.766210   2.385903   2.933439   3.235576   4.211245
    22  H    2.779842   2.384081   3.790329   4.084921   4.592938
    23  H    2.913997   2.153415   3.574186   4.137027   3.955146
                    6          7          8          9         10
     6  C    0.000000
     7  C    1.385824   0.000000
     8  C    2.381274   1.383316   0.000000
     9  Br   4.147222   2.855279   1.908796   0.000000
    10  C    2.771693   2.414684   1.383157   2.848683   0.000000
    11  C    4.545000   4.818877   4.315468   5.550251   3.428875
    12  N    4.209793   5.206910   5.258128   7.020541   4.387141
    13  H    6.578363   7.280044   6.828807   8.280922   5.575408
    14  H    4.077502   4.797221   4.466795   6.118894   3.302449
    15  H    4.560810   4.813913   4.009113   5.289318   2.630965
    16  H    2.145282   3.385541   3.830531   5.739216   3.371660
    17  H    1.079229   2.133588   3.359719   4.988830   3.850918
    18  H    2.150407   1.078830   2.141768   2.959065   3.389401
    19  H    3.851592   3.387752   2.138353   2.940896   1.079977
    20  H    3.690856   3.909506   3.569476   4.872145   2.963275
    21  H    5.018522   5.057358   4.268711   5.232154   3.276639
    22  H    5.371152   5.691880   5.279046   6.432888   4.485182
    23  H    5.036894   6.062152   6.166594   7.898922   5.332035
                   11         12         13         14         15
    11  C    0.000000
    12  N    2.837606   0.000000
    13  H    3.536792   2.910996   0.000000
    14  H    3.752413   2.699339   3.331650   0.000000
    15  H    3.073529   3.535585   3.394390   1.787801   0.000000
    16  H    3.973837   2.444194   4.914105   2.591649   3.733963
    17  H    5.316251   4.612957   7.223143   4.797761   5.510473
    18  H    5.724625   6.162351   8.329116   5.858516   5.872569
    19  H    3.538334   4.911211   5.537307   3.596105   2.397070
    20  H    1.082915   2.988792   4.408920   3.931621   3.438624
    21  H    1.081676   3.690450   3.765406   3.950718   2.782041
    22  H    1.083102   3.180745   3.662811   4.612979   4.026709
    23  H    3.288415   1.006557   2.955200   3.595986   4.388837
                   16         17         18         19         20
    16  H    0.000000
    17  H    2.475246   0.000000
    18  H    4.284208   2.470725   0.000000
    19  H    4.269495   4.930809   4.272757   0.000000
    20  H    3.517004   4.432540   4.751675   3.331721   0.000000
    21  H    4.629893   5.912098   5.963539   3.053812   1.793648
    22  H    4.720022   6.031868   6.530355   4.578278   1.785264
    23  H    3.290144   5.322188   6.969146   5.824516   3.539478
                   21         22         23
    21  H    0.000000
    22  H    1.771959   0.000000
    23  H    4.208686   3.305514   0.000000
 Stoichiometry    C8H11BrN2S
 Framework group  C1[X(C8H11BrN2S)]
 Deg. of freedom    63
 Full point group                 C1      NOp   1
 Largest Abelian subgroup         C1      NOp   1
 Largest concise Abelian subgroup C1      NOp   1
                         Standard orientation:                         
 ---------------------------------------------------------------------
 Center     Atomic      Atomic             Coordinates (Angstroms)
 Number     Number       Type             X           Y           Z
 ---------------------------------------------------------------------
      1          7           0       -4.051317   -1.466630   -0.241580
      2         16           0       -3.035738   -0.362767    0.084649
      3          6           0       -1.777022   -0.107566   -1.261740
      4          6           0       -0.540007    0.501696   -0.719826
      5          6           0       -0.551713    1.816413   -0.260283
      6          6           0        0.588059    2.377434    0.285031
      7          6           0        1.760238    1.644189    0.379137
      8          6           0        1.763997    0.339106   -0.079458
      9         35           0        3.363917   -0.694452    0.045092
     10          6           0        0.632214   -0.240767   -0.623458
     11          6           0       -2.009099   -1.199660    1.341530
     12          7           0       -3.416528    1.086378    0.422191
     13          1           0       -4.866752   -1.153199   -0.741870
     14          1           0       -2.279072    0.550928   -1.966515
     15          1           0       -1.612304   -1.087009   -1.704195
     16          1           0       -1.472838    2.374390   -0.310732
     17          1           0        0.570672    3.395769    0.641999
     18          1           0        2.653882    2.076901    0.801079
     19          1           0        0.664578   -1.261330   -0.975246
     20          1           0       -1.227485   -0.524076    1.666139
     21          1           0       -1.606095   -2.095476    0.888624
     22          1           0       -2.660507   -1.464520    2.165319
     23          1           0       -4.254445    1.174413    0.972920
 ---------------------------------------------------------------------
 Rotational constants (GHZ):           1.3947278           0.2661495           0.2399769
 Standard basis: def2SVP (5D, 7F)
 There are   259 symmetry adapted cartesian basis functions of A   symmetry.
 There are   245 symmetry adapted basis functions of A   symmetry.
   245 basis functions,   444 primitive gaussians,   259 cartesian basis functions
    62 alpha electrons       62 beta electrons
       nuclear repulsion energy      1085.2510639064 Hartrees.
 NAtoms=   23 NActive=   23 NUniq=   23 SFac= 1.00D+00 NAtFMM=   60 NAOKFM=F Big=F
 Integral buffers will be    131072 words long.
 Raffenetti 2 integral format.
 Two-electron integral symmetry is turned on.
 Nuclear repulsion after empirical dispersion term =     1085.2228770478 Hartrees.
 One-electron integrals computed using PRISM.
   1 Symmetry operations used in ECPInt.
 ECPInt:  NShTT=    6441 NPrTT=   25202 LenC2=    6125 LenP2D=   17630.
 LDataN:  DoStor=T MaxTD1= 4 Len=   56
 NBasis=   245 RedAO= T EigKep=  2.58D-04  NBF=   245
 NBsUse=   245 1.00D-06 EigRej= -1.00D+00 NBFU=   245
 ExpMin= 1.22D-01 ExpMax= 1.13D+05 ExpMxC= 1.70D+04 IAcc=3 IRadAn=         5 AccDes= 0.00D+00
 Harris functional with IExCor= 1009 and IRadAn=       5 diagonalized for initial guess.
 HarFok:  IExCor= 1009 AccDes= 0.00D+00 IRadAn=         5 IDoV= 1 UseB2=F ITyADJ=14
 ICtDFT=  3500011 ScaDFX=  1.000000  1.000000  1.000000  1.000000
 FoFCou: FMM=F IPFlag=           0 FMFlag=      100000 FMFlg1=           0
         NFxFlg=           0 DoJE=T BraDBF=F KetDBF=T FulRan=T
         wScrn=  0.000000 ICntrl=       500 IOpCl=  0 I1Cent=   200000004 NGrid=           0
         NMat0=    1 NMatS0=      1 NMatT0=    0 NMatD0=    1 NMtDS0=    0 NMtDT0=    0
 Petite list used in FoFCou.
 Requested convergence on RMS density matrix=1.00D-08 within 128 cycles.
 Requested convergence on MAX density matrix=1.00D-06.
 Requested convergence on             energy=1.00D-06.
 No special actions if energy rises.
 Integral accuracy reduced to 1.0D-05 until final iterations.
 Initial convergence to 1.0D-05 achieved.  Increase integral accuracy.
 SCF Done:  E(RPBE1PBE) =  -3391.54680128     A.U. after   14 cycles
            NFock= 14  Conv=0.76D-08     -V/T= 2.0022

 **********************************************************************

            Population analysis using the SCF Density.

 **********************************************************************

 Orbital symmetries:
       Occupied  (A) (A) (A) (A) (A) (A) (A) (A) (A) (A) (A) (A)
                 (A) (A) (A) (A) (A) (A) (A) (A) (A) (A) (A) (A)
                 (A) (A) (A) (A) (A) (A) (A) (A) (A) (A) (A) (A)
                 (A) (A) (A) (A) (A) (A) (A) (A) (A) (A) (A) (A)
                 (A) (A) (A) (A) (A) (A) (A) (A) (A) (A) (A) (A)
                 (A) (A)
       Virtual   (A) (A) (A) (A) (A) (A) (A) (A) (A) (A) (A) (A)
                 (A) (A) (A) (A) (A) (A) (A) (A) (A) (A) (A) (A)
                 (A) (A) (A) (A) (A) (A) (A) (A) (A) (A) (A) (A)
                 (A) (A) (A) (A) (A) (A) (A) (A) (A) (A) (A) (A)
                 (A) (A) (A) (A) (A) (A) (A) (A) (A) (A) (A) (A)
                 (A) (A) (A) (A) (A) (A) (A) (A) (A) (A) (A) (A)
                 (A) (A) (A) (A) (A) (A) (A) (A) (A) (A) (A) (A)
                 (A) (A) (A) (A) (A) (A) (A) (A) (A) (A) (A) (A)
                 (A) (A) (A) (A) (A) (A) (A) (A) (A) (A) (A) (A)
                 (A) (A) (A) (A) (A) (A) (A) (A) (A) (A) (A) (A)
                 (A) (A) (A) (A) (A) (A) (A) (A) (A) (A) (A) (A)
                 (A) (A) (A) (A) (A) (A) (A) (A) (A) (A) (A) (A)
                 (A) (A) (A) (A) (A) (A) (A) (A) (A) (A) (A) (A)
                 (A) (A) (A) (A) (A) (A) (A) (A) (A) (A) (A) (A)
                 (A) (A) (A) (A) (A) (A) (A) (A) (A) (A) (A) (A)
                 (A) (A) (A)
 The electronic state is 1-A.
 Alpha  occ. eigenvalues -- -483.19598 -89.18181 -62.62968 -56.41962 -56.41610
 Alpha  occ. eigenvalues --  -56.41601 -14.34714 -14.34471 -10.29809 -10.27150
 Alpha  occ. eigenvalues --  -10.26473 -10.25928 -10.25668 -10.25392 -10.25052
 Alpha  occ. eigenvalues --  -10.24253  -8.77575  -8.15669  -6.59054  -6.57772
 Alpha  occ. eigenvalues --   -6.57748  -6.09802  -6.09690  -6.09663  -2.67608
 Alpha  occ. eigenvalues --   -2.67238  -2.67221  -2.66191  -2.66191  -1.00572
 Alpha  occ. eigenvalues --   -0.91058  -0.85430  -0.84039  -0.81080  -0.76745
 Alpha  occ. eigenvalues --   -0.75513  -0.73089  -0.64039  -0.63330  -0.60053
 Alpha  occ. eigenvalues --   -0.54524  -0.54072  -0.50933  -0.49333  -0.48860
 Alpha  occ. eigenvalues --   -0.46687  -0.45086  -0.44126  -0.43687  -0.42722
 Alpha  occ. eigenvalues --   -0.42361  -0.40883  -0.38276  -0.37080  -0.34647
 Alpha  occ. eigenvalues --   -0.33195  -0.30393  -0.29350  -0.26703  -0.26407
 Alpha  occ. eigenvalues --   -0.25664  -0.23725
 Alpha virt. eigenvalues --   -0.02949  -0.01964   0.00756   0.06093   0.06724
 Alpha virt. eigenvalues --    0.07918   0.08731   0.09494   0.09819   0.10872
 Alpha virt. eigenvalues --    0.11299   0.12875   0.13910   0.14144   0.15287
 Alpha virt. eigenvalues --    0.15799   0.16489   0.19144   0.20993   0.22685
 Alpha virt. eigenvalues --    0.26389   0.28323   0.30540   0.31721   0.33022
 Alpha virt. eigenvalues --    0.34246   0.37927   0.38460   0.40773   0.41172
 Alpha virt. eigenvalues --    0.42451   0.43757   0.44635   0.46849   0.48097
 Alpha virt. eigenvalues --    0.48466   0.48823   0.50089   0.51234   0.52057
 Alpha virt. eigenvalues --    0.52664   0.52806   0.54169   0.55622   0.56972
 Alpha virt. eigenvalues --    0.59694   0.60544   0.62259   0.62591   0.63201
 Alpha virt. eigenvalues --    0.64056   0.65131   0.65995   0.66373   0.67086
 Alpha virt. eigenvalues --    0.67638   0.68297   0.69081   0.69445   0.70820
 Alpha virt. eigenvalues --    0.71366   0.72154   0.72871   0.73151   0.74970
 Alpha virt. eigenvalues --    0.75770   0.76025   0.77379   0.78790   0.81219
 Alpha virt. eigenvalues --    0.81508   0.83128   0.84492   0.85720   0.87441
 Alpha virt. eigenvalues --    0.89153   0.90661   0.94002   0.95052   0.97211
 Alpha virt. eigenvalues --    1.00850   1.01633   1.02501   1.04271   1.06057
 Alpha virt. eigenvalues --    1.09843   1.13349   1.13813   1.14665   1.17571
 Alpha virt. eigenvalues --    1.21053   1.21745   1.23732   1.24274   1.27068
 Alpha virt. eigenvalues --    1.28017   1.29331   1.30859   1.34843   1.39647
 Alpha virt. eigenvalues --    1.42632   1.46216   1.47493   1.50097   1.51055
 Alpha virt. eigenvalues --    1.53027   1.54221   1.65233   1.66013   1.69201
 Alpha virt. eigenvalues --    1.72164   1.73561   1.74120   1.74903   1.75454
 Alpha virt. eigenvalues --    1.77390   1.78150   1.78837   1.81219   1.82036
 Alpha virt. eigenvalues --    1.82974   1.84488   1.86557   1.88185   1.89822
 Alpha virt. eigenvalues --    1.92242   1.94517   1.97483   1.98464   2.01287
 Alpha virt. eigenvalues --    2.01865   2.05024   2.09013   2.11452   2.14218
 Alpha virt. eigenvalues --    2.14630   2.15623   2.16835   2.17894   2.22388
 Alpha virt. eigenvalues --    2.23243   2.26866   2.29969   2.30715   2.31808
 Alpha virt. eigenvalues --    2.32952   2.34367   2.39182   2.43107   2.43914
 Alpha virt. eigenvalues --    2.45409   2.48173   2.54945   2.57062   2.57687
 Alpha virt. eigenvalues --    2.58710   2.59355   2.61134   2.64357   2.65628
 Alpha virt. eigenvalues --    2.66083   2.74576   2.76362   2.81086   2.84314
 Alpha virt. eigenvalues --    2.87056   2.88159   2.90026   2.90427   2.95819
 Alpha virt. eigenvalues --    2.96609   2.98743   3.06285   3.11517   3.24357
 Alpha virt. eigenvalues --    3.27868   3.31737   3.45211   3.48808   3.53315
 Alpha virt. eigenvalues --    3.60940   3.65453   3.85494
          Condensed to atoms (all electrons):
               1          2          3          4          5          6
     1  N    6.931654   0.333688  -0.055659   0.006420   0.000167  -0.000001
     2  S    0.333688  14.642928   0.225067  -0.051221  -0.008260   0.000163
     3  C   -0.055659   0.225067   5.338943   0.215056  -0.108631   0.013087
     4  C    0.006420  -0.051221   0.215056   5.531714   0.231225   0.101531
     5  C    0.000167  -0.008260  -0.108631   0.231225   5.152738   0.258378
     6  C   -0.000001   0.000163   0.013087   0.101531   0.258378   5.055208
     7  C    0.000000   0.000097  -0.001518  -0.161322   0.109026   0.266490
     8  C   -0.000001  -0.000331   0.015815   0.115943  -0.168124   0.112783
     9  Br   0.000000   0.000001  -0.000187   0.004291   0.000742   0.003417
    10  C   -0.000007  -0.001513  -0.103027   0.284630   0.068521  -0.135767
    11  C   -0.094989   0.246645  -0.125020   0.006018   0.001893   0.000142
    12  N   -0.040794   0.327909  -0.093032  -0.018694   0.009930  -0.000983
    13  H    0.325981  -0.009771  -0.005501  -0.000087  -0.000008   0.000000
    14  H    0.001143  -0.007526   0.318102   0.009015  -0.005074   0.000614
    15  H    0.009832  -0.011611   0.334721  -0.008054   0.010598  -0.000377
    16  H    0.000084  -0.002304  -0.014511  -0.068564   0.455721  -0.064966
    17  H   -0.000000   0.000003  -0.000344   0.016283  -0.072192   0.458975
    18  H    0.000000   0.000000   0.000037  -0.001472   0.013485  -0.057213
    19  H   -0.000065   0.000064  -0.015000  -0.060313   0.014535  -0.001809
    20  H    0.005476  -0.009391   0.001026   0.002969  -0.001212   0.000810
    21  H    0.006812  -0.010085   0.003699  -0.001050   0.000045  -0.000072
    22  H    0.008361  -0.003858   0.007757  -0.000486  -0.000244  -0.000020
    23  H   -0.000977  -0.010213   0.009584  -0.000018  -0.000764  -0.000035
               7          8          9         10         11         12
     1  N    0.000000  -0.000001   0.000000  -0.000007  -0.094989  -0.040794
     2  S    0.000097  -0.000331   0.000001  -0.001513   0.246645   0.327909
     3  C   -0.001518   0.015815  -0.000187  -0.103027  -0.125020  -0.093032
     4  C   -0.161322   0.115943   0.004291   0.284630   0.006018  -0.018694
     5  C    0.109026  -0.168124   0.000742   0.068521   0.001893   0.009930
     6  C    0.266490   0.112783   0.003417  -0.135767   0.000142  -0.000983
     7  C    5.105909   0.259767  -0.062335   0.072417  -0.000095   0.000062
     8  C    0.259767   5.324630   0.232502   0.286131  -0.000526  -0.000023
     9  Br  -0.062335   0.232502  34.926314  -0.067712  -0.000014  -0.000000
    10  C    0.072417   0.286131  -0.067712   5.116834   0.001493   0.000745
    11  C   -0.000095  -0.000526  -0.000014   0.001493   4.985053  -0.043017
    12  N    0.000062  -0.000023  -0.000000   0.000745  -0.043017   6.922129
    13  H   -0.000000  -0.000000  -0.000000   0.000003   0.009233  -0.000588
    14  H    0.000086  -0.000554   0.000003   0.005092   0.007627   0.008329
    15  H    0.000027   0.000849  -0.000047  -0.011206   0.002854   0.006004
    16  H    0.014207  -0.002022   0.000015   0.014927   0.001103   0.028904
    17  H   -0.076343   0.016389  -0.000195  -0.002168  -0.000010  -0.000034
    18  H    0.441954  -0.065477  -0.000352   0.014173  -0.000000   0.000000
    19  H    0.014225  -0.058423   0.000782   0.437147   0.000125  -0.000000
    20  H    0.000414  -0.000335   0.000025  -0.003927   0.364321   0.002856
    21  H    0.000025  -0.000072   0.000004   0.002182   0.353904   0.003808
    22  H    0.000002   0.000026   0.000000  -0.000069   0.362697  -0.000266
    23  H    0.000000  -0.000001   0.000000  -0.000005  -0.006045   0.327740
              13         14         15         16         17         18
     1  N    0.325981   0.001143   0.009832   0.000084  -0.000000   0.000000
     2  S   -0.009771  -0.007526  -0.011611  -0.002304   0.000003   0.000000
     3  C   -0.005501   0.318102   0.334721  -0.014511  -0.000344   0.000037
     4  C   -0.000087   0.009015  -0.008054  -0.068564   0.016283  -0.001472
     5  C   -0.000008  -0.005074   0.010598   0.455721  -0.072192   0.013485
     6  C    0.000000   0.000614  -0.000377  -0.064966   0.458975  -0.057213
     7  C   -0.000000   0.000086   0.000027   0.014207  -0.076343   0.441954
     8  C   -0.000000  -0.000554   0.000849  -0.002022   0.016389  -0.065477
     9  Br  -0.000000   0.000003  -0.000047   0.000015  -0.000195  -0.000352
    10  C    0.000003   0.005092  -0.011206   0.014927  -0.002168   0.014173
    11  C    0.009233   0.007627   0.002854   0.001103  -0.000010  -0.000000
    12  N   -0.000588   0.008329   0.006004   0.028904  -0.000034   0.000000
    13  H    0.557406   0.001864  -0.000208   0.000012   0.000000  -0.000000
    14  H    0.001864   0.580107  -0.010827   0.003777  -0.000005  -0.000001
    15  H   -0.000208  -0.010827   0.607841   0.000255   0.000008  -0.000001
    16  H    0.000012   0.003777   0.000255   0.611967  -0.011704  -0.000199
    17  H    0.000000  -0.000005   0.000008  -0.011704   0.658963  -0.012415
    18  H   -0.000000  -0.000001  -0.000001  -0.000199  -0.012415   0.646874
    19  H    0.000002   0.000212   0.004992  -0.000180   0.000032  -0.000284
    20  H   -0.000397  -0.000372  -0.000075   0.000052   0.000014  -0.000001
    21  H   -0.000803  -0.000377   0.000986  -0.000091   0.000001  -0.000000
    22  H   -0.000465  -0.000269  -0.000345  -0.000043   0.000000  -0.000000
    23  H    0.001276  -0.000545  -0.000449  -0.000454   0.000002  -0.000000
              19         20         21         22         23
     1  N   -0.000065   0.005476   0.006812   0.008361  -0.000977
     2  S    0.000064  -0.009391  -0.010085  -0.003858  -0.010213
     3  C   -0.015000   0.001026   0.003699   0.007757   0.009584
     4  C   -0.060313   0.002969  -0.001050  -0.000486  -0.000018
     5  C    0.014535  -0.001212   0.000045  -0.000244  -0.000764
     6  C   -0.001809   0.000810  -0.000072  -0.000020  -0.000035
     7  C    0.014225   0.000414   0.000025   0.000002   0.000000
     8  C   -0.058423  -0.000335  -0.000072   0.000026  -0.000001
     9  Br   0.000782   0.000025   0.000004   0.000000   0.000000
    10  C    0.437147  -0.003927   0.002182  -0.000069  -0.000005
    11  C    0.000125   0.364321   0.353904   0.362697  -0.006045
    12  N   -0.000000   0.002856   0.003808  -0.000266   0.327740
    13  H    0.000002  -0.000397  -0.000803  -0.000465   0.001276
    14  H    0.000212  -0.000372  -0.000377  -0.000269  -0.000545
    15  H    0.004992  -0.000075   0.000986  -0.000345  -0.000449
    16  H   -0.000180   0.000052  -0.000091  -0.000043  -0.000454
    17  H    0.000032   0.000014   0.000001   0.000000   0.000002
    18  H   -0.000284  -0.000001  -0.000000  -0.000000  -0.000000
    19  H    0.655526  -0.000044   0.000572  -0.000010   0.000001
    20  H   -0.000044   0.559987  -0.013166  -0.008830  -0.000042
    21  H    0.000572  -0.013166   0.579604  -0.006271  -0.000073
    22  H   -0.000010  -0.008830  -0.006271   0.551126   0.001791
    23  H    0.000001  -0.000042  -0.000073   0.001791   0.555031
 Mulliken charges:
               1
     1  N   -0.437124
     2  S    0.349521
     3  C    0.039537
     4  C   -0.153811
     5  C    0.037507
     6  C   -0.010358
     7  C    0.016904
     8  C   -0.068946
     9  Br  -0.037254
    10  C    0.021105
    11  C   -0.073393
    12  N   -0.440987
    13  H    0.122049
    14  H    0.089578
    15  H    0.064233
    16  H    0.034014
    17  H    0.024742
    18  H    0.020891
    19  H    0.007914
    20  H    0.099844
    21  H    0.080419
    22  H    0.089416
    23  H    0.124198
 Sum of Mulliken charges =  -0.00000
 Mulliken charges with hydrogens summed into heavy atoms:
               1
     1  N   -0.315075
     2  S    0.349521
     3  C    0.193348
     4  C   -0.153811
     5  C    0.071522
     6  C    0.014384
     7  C    0.037795
     8  C   -0.068946
     9  Br  -0.037254
    10  C    0.029019
    11  C    0.196286
    12  N   -0.316789
 Electronic spatial extent (au):  <R**2>=           4149.9368
 Charge=             -0.0000 electrons
 Dipole moment (field-independent basis, Debye):
    X=             -0.3461    Y=              0.7025    Z=              0.2335  Tot=              0.8172
 Quadrupole moment (field-independent basis, Debye-Ang):
   XX=            -94.4759   YY=            -92.1799   ZZ=            -87.9742
   XY=             -1.9962   XZ=              1.2080   YZ=              1.2910
 Traceless Quadrupole moment (field-independent basis, Debye-Ang):
   XX=             -2.9325   YY=             -0.6366   ZZ=              3.5691
   XY=             -1.9962   XZ=              1.2080   YZ=              1.2910
 Octapole moment (field-independent basis, Debye-Ang**2):
  XXX=             68.5154  YYY=             -7.2743  ZZZ=              4.8824  XYY=             58.6111
  XXY=             15.3095  XXZ=              4.9080  XZZ=             12.0868  YZZ=            -12.7096
  YYZ=              7.0217  XYZ=              3.9248
 Hexadecapole moment (field-independent basis, Debye-Ang**3):
 XXXX=          -3466.2318 YYYY=           -805.4497 ZZZZ=           -316.9271 XXXY=           -187.3809
 XXXZ=             23.0776 YYYX=           -101.2251 YYYZ=             16.3130 ZZZX=             -1.8041
 ZZZY=             -3.2511 XXYY=           -829.8050 XXZZ=           -623.6271 YYZZ=           -191.4267
 XXYZ=             21.2212 YYXZ=              4.1121 ZZXY=            -19.3992
 N-N= 1.085222877048D+03 E-N=-1.024192215945D+04  KE= 3.384202415766D+03
   1 Symmetry operations used in ECPInt.
 ECPInt:  NShTT=    6441 NPrTT=   25202 LenC2=    6125 LenP2D=   17630.
 LDataN:  DoStor=T MaxTD1= 5 Len=  102
 Calling FoFJK, ICntrl=      2127 FMM=F ISym2X=0 I1Cent= 0 IOpClX= 0 NMat=1 NMatS=1 NMatT=0.
 ***** Axes restored to original set *****
 -------------------------------------------------------------------
 Center     Atomic                   Forces (Hartrees/Bohr)
 Number     Number              X              Y              Z
 -------------------------------------------------------------------
      1        7           0.006741852   -0.017850738    0.004966184
      2       16          -0.002952424   -0.005838848   -0.000578942
      3        6          -0.001776357   -0.000975290    0.016034578
      4        6           0.001960426    0.002495649   -0.003209003
      5        6           0.001290435    0.002199424   -0.000813555
      6        6          -0.000145181   -0.001621250   -0.001126453
      7        6           0.001135149   -0.000409150    0.000479199
      8        6           0.013415480   -0.008447111   -0.000542024
      9       35          -0.005354424    0.003540744    0.000424607
     10        6          -0.000605028    0.000431768   -0.001004349
     11        6          -0.007003164    0.009327156   -0.009970628
     12        7           0.011465853    0.012932359   -0.008376171
     13        1          -0.005338860    0.010557236   -0.005493461
     14        1          -0.007119527    0.003777396   -0.003209162
     15        1          -0.000708709   -0.006933595   -0.002816863
     16        1          -0.007866226    0.004664779    0.001190743
     17        1          -0.000204628    0.008375056    0.004569327
     18        1           0.007615572    0.002725822    0.003659975
     19        1           0.000199877   -0.007630691   -0.004222210
     20        1           0.006735781    0.005839802    0.002386341
     21        1           0.004585746   -0.008536534   -0.005386218
     22        1          -0.008666739   -0.001892298    0.005320804
     23        1          -0.007404904   -0.006731686    0.007717280
 -------------------------------------------------------------------
 Cartesian Forces:  Max     0.017850738 RMS     0.006293412

 GradGradGradGradGradGradGradGradGradGradGradGradGradGradGradGradGradGrad
 Berny optimization.
 FormGI is forming the generalized inverse of G from B-inverse, IUseBI=4.
 Internal  Forces:  Max     0.017227013 RMS     0.004857606
 Search for a local minimum.
 Step number   1 out of a maximum of  125
 All quantities printed in internal units (Hartrees-Bohrs-Radians)
 Mixed Optimization -- RFO/linear search
 Second derivative matrix not updated -- first step.
 ITU=  0
     Eigenvalues ---    0.00230   0.00230   0.01010   0.01724   0.02209
     Eigenvalues ---    0.02251   0.02262   0.02286   0.02291   0.02300
     Eigenvalues ---    0.02305   0.02311   0.03467   0.03478   0.04531
     Eigenvalues ---    0.05786   0.05869   0.06116   0.06460   0.07443
     Eigenvalues ---    0.08217   0.08809   0.12543   0.14704   0.15992
     Eigenvalues ---    0.16000   0.16000   0.16000   0.16000   0.16000
     Eigenvalues ---    0.16000   0.16000   0.16000   0.17828   0.18931
     Eigenvalues ---    0.21863   0.22000   0.22066   0.23474   0.23500
     Eigenvalues ---    0.24174   0.24983   0.25000   0.34389   0.35118
     Eigenvalues ---    0.35127   0.35622   0.35644   0.35793   0.35997
     Eigenvalues ---    0.36088   0.36136   0.36222   0.43261   0.43555
     Eigenvalues ---    0.46528   0.46554   0.47327   0.47686   0.48385
     Eigenvalues ---    0.48598   0.65921   0.66152
 RFO step:  Lambda=-9.83763820D-03 EMin= 2.30000000D-03
 Linear search not attempted -- first point.
 Iteration  1 RMS(Cart)=  0.08535668 RMS(Int)=  0.00151680
 Iteration  2 RMS(Cart)=  0.00275848 RMS(Int)=  0.00026530
 Iteration  3 RMS(Cart)=  0.00000455 RMS(Int)=  0.00026529
 Iteration  4 RMS(Cart)=  0.00000000 RMS(Int)=  0.00026529
 Variable       Old X    -DE/DX   Delta X   Delta X   Delta X     New X
                                 (Linear)    (Quad)   (Total)
    R1        2.90080   0.00415   0.00000   0.00618   0.00618   2.90698
    R2        1.90240   0.01071   0.00000   0.02255   0.02255   1.92496
    R3        3.51624  -0.00497   0.00000  -0.02174  -0.02174   3.49450
    R4        3.45056  -0.00963   0.00000  -0.03829  -0.03829   3.41227
    R5        2.90241   0.00426   0.00000   0.00637   0.00637   2.90878
    R6        2.79978   0.01168   0.00000   0.03303   0.03303   2.83281
    R7        2.05484   0.00780   0.00000   0.02161   0.02161   2.07644
    R8        2.05469   0.00713   0.00000   0.01976   0.01976   2.07444
    R9        2.63195   0.00976   0.00000   0.02049   0.02049   2.65244
   R10        2.62845   0.00929   0.00000   0.01924   0.01924   2.64769
   R11        2.61247   0.00929   0.00000   0.01883   0.01884   2.63130
   R12        2.03736   0.00921   0.00000   0.02476   0.02476   2.06212
   R13        2.61883   0.00986   0.00000   0.02015   0.02015   2.63898
   R14        2.03945   0.00954   0.00000   0.02573   0.02573   2.06518
   R15        2.61409   0.00803   0.00000   0.01616   0.01615   2.63024
   R16        2.03869   0.00887   0.00000   0.02391   0.02391   2.06260
   R17        3.60710  -0.00643   0.00000  -0.03419  -0.03419   3.57291
   R18        2.61379   0.00910   0.00000   0.01826   0.01826   2.63205
   R19        2.04086   0.00872   0.00000   0.02359   0.02359   2.06445
   R20        2.04641   0.00915   0.00000   0.02497   0.02497   2.07138
   R21        2.04407   0.01101   0.00000   0.02995   0.02995   2.07402
   R22        2.04677   0.00952   0.00000   0.02600   0.02600   2.07276
   R23        1.90212   0.01066   0.00000   0.02243   0.02243   1.92455
    A1        2.00162  -0.01327   0.00000  -0.07813  -0.07813   1.92350
    A2        1.97404  -0.00038   0.00000  -0.00317  -0.00316   1.97088
    A3        1.76061  -0.00106   0.00000  -0.00486  -0.00488   1.75573
    A4        2.16660   0.00227   0.00000   0.01953   0.01954   2.18614
    A5        1.75239   0.00095   0.00000  -0.00123  -0.00127   1.75112
    A6        1.76943  -0.00151   0.00000  -0.01083  -0.01083   1.75860
    A7        2.00486  -0.00043   0.00000  -0.00322  -0.00327   2.00159
    A8        1.93536   0.01723   0.00000   0.07832   0.07823   2.01358
    A9        1.81287  -0.00721   0.00000  -0.03404  -0.03533   1.77754
   A10        1.84771  -0.00734   0.00000  -0.04116  -0.04146   1.80625
   A11        1.95361  -0.00144   0.00000   0.01302   0.01326   1.96687
   A12        1.97446  -0.00366   0.00000  -0.01127  -0.01043   1.96404
   A13        1.93019   0.00219   0.00000  -0.00812  -0.00931   1.92088
   A14        2.09653   0.00497   0.00000   0.01931   0.01928   2.11581
   A15        2.10538  -0.00430   0.00000  -0.01640  -0.01644   2.08895
   A16        2.08071  -0.00065   0.00000  -0.00243  -0.00247   2.07825
   A17        2.10168  -0.00094   0.00000  -0.00384  -0.00385   2.09783
   A18        2.07177   0.00068   0.00000   0.00309   0.00308   2.07485
   A19        2.10927   0.00025   0.00000   0.00054   0.00053   2.10980
   A20        2.10531   0.00120   0.00000   0.00546   0.00545   2.11076
   A21        2.09452  -0.00082   0.00000  -0.00402  -0.00402   2.09049
   A22        2.08336  -0.00038   0.00000  -0.00144  -0.00143   2.08193
   A23        2.07027  -0.00045   0.00000  -0.00213  -0.00215   2.06812
   A24        2.11178   0.00049   0.00000   0.00264   0.00265   2.11443
   A25        2.10113  -0.00004   0.00000  -0.00051  -0.00050   2.10062
   A26        2.08460   0.00011   0.00000   0.00066   0.00067   2.08527
   A27        2.12198  -0.00050   0.00000  -0.00238  -0.00240   2.11958
   A28        2.07660   0.00039   0.00000   0.00174   0.00174   2.07834
   A29        2.08641   0.00135   0.00000   0.00538   0.00536   2.09177
   A30        2.10263  -0.00060   0.00000  -0.00226  -0.00226   2.10037
   A31        2.09413  -0.00074   0.00000  -0.00308  -0.00309   2.09104
   A32        1.90309  -0.00087   0.00000  -0.00464  -0.00480   1.89830
   A33        1.87637   0.00299   0.00000   0.01966   0.01971   1.89609
   A34        1.87284  -0.00629   0.00000  -0.03953  -0.03959   1.83324
   A35        1.95332  -0.00034   0.00000   0.00307   0.00303   1.95634
   A36        1.93763   0.00288   0.00000   0.01277   0.01246   1.95009
   A37        1.91773   0.00134   0.00000   0.00684   0.00703   1.92476
   A38        1.99233  -0.01147   0.00000  -0.06752  -0.06752   1.92480
    D1       -1.54899   0.00182   0.00000   0.03227   0.03227  -1.51671
    D2        2.87763   0.00139   0.00000   0.03713   0.03715   2.91478
    D3        0.60231   0.00126   0.00000   0.03079   0.03078   0.63309
    D4       -2.72524   0.00135   0.00000   0.01320   0.01324  -2.71201
    D5        1.45655  -0.00149   0.00000  -0.02221  -0.02154   1.43501
    D6       -0.57742   0.00230   0.00000   0.01910   0.01842  -0.55900
    D7       -0.86346   0.00051   0.00000   0.00607   0.00608  -0.85738
    D8       -2.96485  -0.00233   0.00000  -0.02935  -0.02869  -2.99355
    D9        1.28436   0.00146   0.00000   0.01196   0.01127   1.29562
   D10        1.20017  -0.00011   0.00000  -0.00121  -0.00118   1.19899
   D11       -0.90122  -0.00296   0.00000  -0.03662  -0.03596  -0.93717
   D12       -2.93519   0.00083   0.00000   0.00469   0.00400  -2.93119
   D13        3.13522  -0.00031   0.00000  -0.00811  -0.00817   3.12704
   D14        1.01417  -0.00118   0.00000  -0.02089  -0.02094   0.99323
   D15       -1.04788  -0.00101   0.00000  -0.01843  -0.01828  -1.06615
   D16        1.10711   0.00012   0.00000  -0.00292  -0.00300   1.10411
   D17       -1.01394  -0.00076   0.00000  -0.01570  -0.01577  -1.02970
   D18       -3.07598  -0.00058   0.00000  -0.01324  -0.01310  -3.08909
   D19       -0.77494   0.00149   0.00000   0.01135   0.01126  -0.76368
   D20       -2.89599   0.00061   0.00000  -0.00143  -0.00151  -2.89749
   D21        1.32515   0.00079   0.00000   0.00103   0.00116   1.32631
   D22        0.65011   0.00195   0.00000   0.04326   0.04330   0.69341
   D23        2.88974   0.00166   0.00000   0.04309   0.04305   2.93279
   D24       -1.52178   0.00178   0.00000   0.03458   0.03458  -1.48720
   D25       -1.19858  -0.00079   0.00000  -0.03031  -0.03066  -1.22924
   D26        1.90686  -0.00038   0.00000  -0.01472  -0.01505   1.89181
   D27        0.81701   0.00019   0.00000  -0.01536  -0.01479   0.80222
   D28       -2.36074   0.00060   0.00000   0.00024   0.00082  -2.35992
   D29        3.01180  -0.00096   0.00000  -0.02477  -0.02501   2.98679
   D30       -0.16595  -0.00055   0.00000  -0.00917  -0.00940  -0.17535
   D31        3.10618  -0.00001   0.00000   0.00328   0.00344   3.10961
   D32       -0.00282   0.00025   0.00000   0.01091   0.01104   0.00822
   D33        0.00023  -0.00034   0.00000  -0.01180  -0.01178  -0.01155
   D34       -3.10877  -0.00008   0.00000  -0.00416  -0.00418  -3.11295
   D35       -3.11015  -0.00003   0.00000   0.00022   0.00040  -3.10975
   D36        0.03795  -0.00028   0.00000  -0.00816  -0.00802   0.02992
   D37       -0.00439   0.00049   0.00000   0.01612   0.01612   0.01174
   D38       -3.13948   0.00024   0.00000   0.00774   0.00770  -3.13178
   D39        0.00394  -0.00003   0.00000   0.00017   0.00021   0.00415
   D40       -3.13814   0.00007   0.00000   0.00252   0.00252  -3.13562
   D41        3.11223  -0.00028   0.00000  -0.00758  -0.00750   3.10473
   D42       -0.02985  -0.00019   0.00000  -0.00523  -0.00519  -0.03504
   D43       -0.00384   0.00023   0.00000   0.00696   0.00695   0.00311
   D44        3.13859   0.00008   0.00000   0.00205   0.00203   3.14062
   D45        3.13824   0.00013   0.00000   0.00463   0.00465  -3.14030
   D46       -0.00252  -0.00002   0.00000  -0.00028  -0.00027  -0.00279
   D47       -3.13742  -0.00022   0.00000  -0.00675  -0.00674   3.13902
   D48       -0.00040  -0.00007   0.00000  -0.00247  -0.00249  -0.00289
   D49        0.00333  -0.00007   0.00000  -0.00187  -0.00186   0.00147
   D50        3.14036   0.00008   0.00000   0.00242   0.00239  -3.14043
   D51        0.00452  -0.00030   0.00000  -0.00914  -0.00911  -0.00459
   D52        3.13965  -0.00004   0.00000  -0.00080  -0.00074   3.13891
   D53        3.14157  -0.00015   0.00000  -0.00488  -0.00488   3.13669
   D54       -0.00649   0.00010   0.00000   0.00346   0.00350  -0.00300
         Item               Value     Threshold  Converged?
 Maximum Force            0.017227     0.000450     NO 
 RMS     Force            0.004858     0.000300     NO 
 Maximum Displacement     0.285076     0.001800     NO 
 RMS     Displacement     0.085076     0.001200     NO 
 Predicted change in Energy=-5.166790D-03
 GradGradGradGradGradGradGradGradGradGradGradGradGradGradGradGradGradGrad

                          Input orientation:                          
 ---------------------------------------------------------------------
 Center     Atomic      Atomic             Coordinates (Angstroms)
 Number     Number       Type             X           Y           Z
 ---------------------------------------------------------------------
      1          7           0       -4.253843   -1.463391   -0.370666
      2         16           0       -3.273668   -0.410036    0.173483
      3          6           0       -2.036242    0.140734   -1.085485
      4          6           0       -0.752938    0.681751   -0.530864
      5          6           0       -0.709990    1.920009    0.128678
      6          6           0        0.486278    2.384583    0.669015
      7          6           0        1.660584    1.636348    0.562609
      8          6           0        1.611075    0.413627   -0.100559
      9         35           0        3.185528   -0.620287   -0.264485
     10          6           0        0.424580   -0.068432   -0.648096
     11          6           0       -2.228755   -1.440790    1.225262
     12          7           0       -3.674740    0.941020    0.792449
     13          1           0       -5.046767   -1.007687   -0.819261
     14          1           0       -2.606022    0.893705   -1.647409
     15          1           0       -1.883555   -0.753954   -1.702957
     16          1           0       -1.634129    2.489144    0.241956
     17          1           0        0.510686    3.347098    1.186007
     18          1           0        2.600355    1.997623    0.984086
     19          1           0        0.416719   -1.030668   -1.165307
     20          1           0       -1.455120   -0.810872    1.679345
     21          1           0       -1.799866   -2.244734    0.613469
     22          1           0       -2.907372   -1.857702    1.979427
     23          1           0       -4.501591    0.830174    1.376596
 ---------------------------------------------------------------------
                    Distance matrix (angstroms):
                    1          2          3          4          5
     1  N    0.000000
     2  S    1.538310   0.000000
     3  C    2.828769   1.849208   0.000000
     4  C    4.108969   2.835874   1.499057   0.000000
     5  C    4.925001   3.464616   2.529616   1.403611   0.000000
     6  C    6.193269   4.710907   3.804765   2.423841   1.392426
     7  C    6.742390   5.355927   4.315043   2.816386   2.426599
     8  C    6.163880   4.961274   3.787806   2.417770   2.776522
     9  Br   7.487745   6.477441   5.340419   4.156654   4.667198
    10  C    4.889839   3.803778   2.508128   1.401095   2.417545
    11  C    2.578464   1.805696   2.806748   3.125251   3.847612
    12  N    2.733019   1.539263   2.617589   3.217966   3.191983
    13  H    1.018643   2.118162   3.233111   4.623239   5.317671
    14  H    3.146632   2.336908   1.098806   2.173825   2.793335
    15  H    2.810083   2.360450   1.097749   2.171024   3.447059
    16  H    4.781291   3.331369   2.727421   2.154163   1.091229
    17  H    6.947285   5.427945   4.682658   3.412985   2.155128
    18  H    7.797050   6.399847   5.406403   3.907834   3.419961
    19  H    4.757399   3.974481   2.719480   2.168638   3.413262
    20  H    3.530039   2.394871   2.981198   2.757899   3.227615
    21  H    2.756994   2.394117   2.938158   3.312079   4.332197
    22  H    2.737042   2.343362   3.761157   4.170368   4.746036
    23  H    2.893915   2.119763   3.551776   4.208662   4.137787
                    6          7          8          9         10
     6  C    0.000000
     7  C    1.396486   0.000000
     8  C    2.396263   1.391865   0.000000
     9  Br   4.145674   2.846390   1.890702   0.000000
    10  C    2.784936   2.428947   1.392820   2.841572   0.000000
    11  C    4.723801   5.003484   4.465531   5.675124   3.526050
    12  N    4.406039   5.385350   5.386599   7.114638   4.460784
    13  H    6.658607   7.340916   6.845694   8.260056   5.554020
    14  H    4.141359   4.862060   4.517425   6.143834   3.332999
    15  H    4.592687   4.838104   4.017880   5.270927   2.628718
    16  H    2.165511   3.418364   3.867355   5.757963   3.401716
    17  H    1.092845   2.153499   3.386939   4.999885   3.877782
    18  H    2.172171   1.091481   2.159669   2.958853   3.415640
    19  H    3.877307   3.412604   2.155496   2.940441   1.092459
    20  H    3.873077   4.116260   3.750868   5.034919   3.082447
    21  H    5.163343   5.200009   4.383063   5.316370   3.357976
    22  H    5.588472   5.923005   5.468240   6.609823   4.605136
    23  H    5.272162   6.267766   6.302395   7.993046   5.401299
                   11         12         13         14         15
    11  C    0.000000
    12  N    2.819791   0.000000
    13  H    3.508397   2.877070   0.000000
    14  H    3.720812   2.664077   3.202867   0.000000
    15  H    3.027438   3.508324   3.294118   1.799952   0.000000
    16  H    4.094491   2.619890   5.000011   2.657010   3.789801
    17  H    5.516335   4.843747   7.339655   4.874551   5.558519
    18  H    5.933056   6.366314   8.412041   5.937151   5.907353
    19  H    3.589088   4.945746   5.474482   3.615604   2.378423
    20  H    1.096129   2.963516   4.379692   3.911196   3.409805
    21  H    1.097525   3.700840   3.758373   3.951108   2.755950
    22  H    1.096860   3.135381   3.623837   4.562345   3.978243
    23  H    3.216514   1.018428   2.914917   3.569569   4.341339
                   16         17         18         19         20
    16  H    0.000000
    17  H    2.495505   0.000000
    18  H    4.327032   2.495711   0.000000
    19  H    4.309924   4.970145   4.307981   0.000000
    20  H    3.603920   4.625634   4.981758   3.412351   0.000000
    21  H    4.751325   6.077420   6.123471   3.090510   1.819588
    22  H    4.851291   6.277147   6.796271   4.650045   1.815196
    23  H    3.501704   5.611965   7.207957   5.840700   3.473568
                   21         22         23
    21  H    0.000000
    22  H    1.800612   0.000000
    23  H    4.163740   3.182706   0.000000
 Stoichiometry    C8H11BrN2S
 Framework group  C1[X(C8H11BrN2S)]
 Deg. of freedom    63
 Full point group                 C1      NOp   1
 Largest Abelian subgroup         C1      NOp   1
 Largest concise Abelian subgroup C1      NOp   1
                         Standard orientation:                         
 ---------------------------------------------------------------------
 Center     Atomic      Atomic             Coordinates (Angstroms)
 Number     Number       Type             X           Y           Z
 ---------------------------------------------------------------------
      1          7           0       -4.070260   -1.479854   -0.327384
      2         16           0       -3.094744   -0.360232    0.074130
      3          6           0       -1.780679   -0.061443   -1.192175
      4          6           0       -0.515354    0.551708   -0.672394
      5          6           0       -0.477095    1.887277   -0.242378
      6          6           0        0.700247    2.423915    0.272148
      7          6           0        1.860226    1.652009    0.365867
      8          6           0        1.815978    0.331170   -0.070840
      9         35           0        3.371591   -0.737788    0.039391
     10          6           0        0.648348   -0.224097   -0.588787
     11          6           0       -2.130944   -1.200915    1.348839
     12          7           0       -3.494963    1.085386    0.419590
     13          1           0       -4.827634   -1.100515   -0.893177
     14          1           0       -2.302256    0.586858   -1.909836
     15          1           0       -1.617576   -1.054293   -1.631150
     16          1           0       -1.391967    2.480648   -0.283603
     17          1           0        0.720800    3.462973    0.610153
     18          1           0        2.785196    2.069419    0.767775
     19          1           0        0.644332   -1.263157   -0.926138
     20          1           0       -1.367094   -0.511018    1.725765
     21          1           0       -1.690214   -2.107427    0.914610
     22          1           0       -2.857658   -1.466364    2.126351
     23          1           0       -4.353490    1.092715    0.967379
 ---------------------------------------------------------------------
 Rotational constants (GHZ):           1.3601261           0.2608332           0.2339380
 Standard basis: def2SVP (5D, 7F)
 There are   259 symmetry adapted cartesian basis functions of A   symmetry.
 There are   245 symmetry adapted basis functions of A   symmetry.
   245 basis functions,   444 primitive gaussians,   259 cartesian basis functions
    62 alpha electrons       62 beta electrons
       nuclear repulsion energy      1077.4071107642 Hartrees.
 NAtoms=   23 NActive=   23 NUniq=   23 SFac= 1.00D+00 NAtFMM=   60 NAOKFM=F Big=F
 Integral buffers will be    131072 words long.
 Raffenetti 2 integral format.
 Two-electron integral symmetry is turned on.
 Nuclear repulsion after empirical dispersion term =     1077.3793562371 Hartrees.
 One-electron integrals computed using PRISM.
   1 Symmetry operations used in ECPInt.
 ECPInt:  NShTT=    6441 NPrTT=   25202 LenC2=    6108 LenP2D=   17511.
 LDataN:  DoStor=T MaxTD1= 4 Len=   56
 NBasis=   245 RedAO= T EigKep=  2.77D-04  NBF=   245
 NBsUse=   245 1.00D-06 EigRej= -1.00D+00 NBFU=   245
 Initial guess from the checkpoint file:  "SDI2997_2.chk"
 B after Tr=    -0.000000    0.000000   -0.000000
         Rot=    0.999975   -0.004320    0.001795    0.005233 Ang=  -0.80 deg.
 ExpMin= 1.22D-01 ExpMax= 1.13D+05 ExpMxC= 1.70D+04 IAcc=3 IRadAn=         5 AccDes= 0.00D+00
 Harris functional with IExCor= 1009 and IRadAn=       5 diagonalized for initial guess.
 HarFok:  IExCor= 1009 AccDes= 0.00D+00 IRadAn=         5 IDoV= 1 UseB2=F ITyADJ=14
 ICtDFT=  3500011 ScaDFX=  1.000000  1.000000  1.000000  1.000000
 FoFCou: FMM=F IPFlag=           0 FMFlag=      100000 FMFlg1=           0
         NFxFlg=           0 DoJE=T BraDBF=F KetDBF=T FulRan=T
         wScrn=  0.000000 ICntrl=       500 IOpCl=  0 I1Cent=   200000004 NGrid=           0
         NMat0=    1 NMatS0=      1 NMatT0=    0 NMatD0=    1 NMtDS0=    0 NMtDT0=    0
 Petite list used in FoFCou.
 Requested convergence on RMS density matrix=1.00D-08 within 128 cycles.
 Requested convergence on MAX density matrix=1.00D-06.
 Requested convergence on             energy=1.00D-06.
 No special actions if energy rises.
 Integral accuracy reduced to 1.0D-05 until final iterations.
 Initial convergence to 1.0D-05 achieved.  Increase integral accuracy.
 SCF Done:  E(RPBE1PBE) =  -3391.55206555     A.U. after   13 cycles
            NFock= 13  Conv=0.40D-08     -V/T= 2.0023
   1 Symmetry operations used in ECPInt.
 ECPInt:  NShTT=    6441 NPrTT=   25202 LenC2=    6108 LenP2D=   17511.
 LDataN:  DoStor=T MaxTD1= 5 Len=  102
 Calling FoFJK, ICntrl=      2127 FMM=F ISym2X=0 I1Cent= 0 IOpClX= 0 NMat=1 NMatS=1 NMatT=0.
 ***** Axes restored to original set *****
 -------------------------------------------------------------------
 Center     Atomic                   Forces (Hartrees/Bohr)
 Number     Number              X              Y              Z
 -------------------------------------------------------------------
      1        7          -0.004693693   -0.007783562   -0.000136583
      2       16           0.012166723   -0.002039078   -0.001182587
      3        6           0.000210540    0.000238199    0.005227046
      4        6          -0.000523894    0.000702152   -0.000812331
      5        6          -0.000132346   -0.001814630    0.000030302
      6        6           0.000143562   -0.000794683   -0.000495836
      7        6          -0.002069747    0.001074299   -0.000227805
      8        6           0.001940316   -0.001386341   -0.000374134
      9       35          -0.000390613    0.000254427    0.000024293
     10        6          -0.002158854    0.000746300    0.000464675
     11        6          -0.002150401    0.001424814   -0.002090496
     12        7          -0.000931387    0.009510102   -0.000929343
     13        1          -0.000167878    0.003295278   -0.002671694
     14        1          -0.000472181   -0.000194329   -0.000638100
     15        1           0.000184278   -0.000000965   -0.000633857
     16        1          -0.000295822   -0.000086999    0.000203381
     17        1          -0.000096380   -0.000166134   -0.000154613
     18        1          -0.000331020   -0.000161249   -0.000082269
     19        1           0.000079933    0.000191123    0.000156161
     20        1           0.000085048    0.000092368   -0.000270178
     21        1           0.000127081   -0.000332908    0.001073674
     22        1           0.000121917   -0.000229776    0.000252237
     23        1          -0.000645184   -0.002538409    0.003268056
 -------------------------------------------------------------------
 Cartesian Forces:  Max     0.012166723 RMS     0.002490619

 GradGradGradGradGradGradGradGradGradGradGradGradGradGradGradGradGradGrad
 Berny optimization.
 Using GEDIIS/GDIIS optimizer.
 FormGI is forming the generalized inverse of G from B-inverse, IUseBI=4.
 Internal  Forces:  Max     0.007471112 RMS     0.001489863
 Search for a local minimum.
 Step number   2 out of a maximum of  125
 All quantities printed in internal units (Hartrees-Bohrs-Radians)
 Mixed Optimization -- RFO/linear search
 Update second derivatives using D2CorX and points    1    2
 DE= -5.26D-03 DEPred=-5.17D-03 R= 1.02D+00
 TightC=F SS=  1.41D+00  RLast= 2.29D-01 DXNew= 5.0454D-01 6.8818D-01
 Trust test= 1.02D+00 RLast= 2.29D-01 DXMaxT set to 5.05D-01
 ITU=  1  0
 Use linear search instead of GDIIS.
     Eigenvalues ---    0.00229   0.00230   0.01018   0.01729   0.02212
     Eigenvalues ---    0.02252   0.02263   0.02287   0.02291   0.02300
     Eigenvalues ---    0.02305   0.02311   0.03262   0.03474   0.04136
     Eigenvalues ---    0.05635   0.05850   0.06292   0.06363   0.07615
     Eigenvalues ---    0.08290   0.09467   0.12939   0.14018   0.14733
     Eigenvalues ---    0.15988   0.16000   0.16000   0.16000   0.16000
     Eigenvalues ---    0.16000   0.16000   0.16126   0.17826   0.18849
     Eigenvalues ---    0.21218   0.22002   0.23046   0.23486   0.23675
     Eigenvalues ---    0.24019   0.25000   0.25386   0.34482   0.35123
     Eigenvalues ---    0.35222   0.35630   0.35697   0.35894   0.36035
     Eigenvalues ---    0.36114   0.36194   0.37507   0.43406   0.43788
     Eigenvalues ---    0.45645   0.46541   0.47328   0.48249   0.48383
     Eigenvalues ---    0.50082   0.66031   0.67151
 RFO step:  Lambda=-1.60750461D-03 EMin= 2.29191099D-03
 Quartic linear search produced a step of  0.09272.
 Iteration  1 RMS(Cart)=  0.06670170 RMS(Int)=  0.00169563
 Iteration  2 RMS(Cart)=  0.00234721 RMS(Int)=  0.00002929
 Iteration  3 RMS(Cart)=  0.00000362 RMS(Int)=  0.00002914
 Iteration  4 RMS(Cart)=  0.00000000 RMS(Int)=  0.00002914
 Variable       Old X    -DE/DX   Delta X   Delta X   Delta X     New X
                                 (Linear)    (Quad)   (Total)
    R1        2.90698   0.00716   0.00057   0.01214   0.01272   2.91970
    R2        1.92496   0.00278   0.00209   0.00785   0.00994   1.93489
    R3        3.49450  -0.00486  -0.00202  -0.02535  -0.02737   3.46713
    R4        3.41227  -0.00220  -0.00355  -0.01212  -0.01567   3.39660
    R5        2.90878   0.00747   0.00059   0.01270   0.01329   2.92208
    R6        2.83281  -0.00427   0.00306  -0.01150  -0.00843   2.82437
    R7        2.07644   0.00044   0.00200   0.00265   0.00465   2.08109
    R8        2.07444   0.00038   0.00183   0.00236   0.00419   2.07864
    R9        2.65244  -0.00258   0.00190  -0.00496  -0.00307   2.64937
   R10        2.64769  -0.00167   0.00178  -0.00272  -0.00094   2.64675
   R11        2.63130  -0.00154   0.00175  -0.00248  -0.00074   2.63057
   R12        2.06212   0.00023   0.00230   0.00216   0.00445   2.06658
   R13        2.63898  -0.00117   0.00187  -0.00142   0.00045   2.63943
   R14        2.06518  -0.00022   0.00239   0.00087   0.00326   2.06844
   R15        2.63024   0.00043   0.00150   0.00212   0.00363   2.63387
   R16        2.06260  -0.00037   0.00222   0.00032   0.00254   2.06514
   R17        3.57291  -0.00047  -0.00317  -0.00484  -0.00801   3.56490
   R18        2.63205  -0.00006   0.00169   0.00113   0.00283   2.63488
   R19        2.06445  -0.00024   0.00219   0.00068   0.00287   2.06732
   R20        2.07138   0.00000   0.00232   0.00150   0.00381   2.07520
   R21        2.07402  -0.00030   0.00278   0.00087   0.00364   2.07767
   R22        2.07276   0.00019   0.00241   0.00212   0.00453   2.07729
   R23        1.92455   0.00267   0.00208   0.00758   0.00966   1.93421
    A1        1.92350  -0.00444  -0.00724  -0.03453  -0.04177   1.88172
    A2        1.97088  -0.00037  -0.00029  -0.00243  -0.00282   1.96806
    A3        1.75573   0.00075  -0.00045   0.01031   0.00986   1.76558
    A4        2.18614  -0.00026   0.00181  -0.00566  -0.00388   2.18227
    A5        1.75112   0.00112  -0.00012   0.01086   0.01073   1.76185
    A6        1.75860  -0.00033  -0.00100  -0.00560  -0.00661   1.75199
    A7        2.00159  -0.00062  -0.00030  -0.00408  -0.00436   1.99723
    A8        2.01358  -0.00144   0.00725  -0.00178   0.00543   2.01901
    A9        1.77754  -0.00004  -0.00328  -0.00866  -0.01205   1.76549
   A10        1.80625   0.00114  -0.00384   0.00955   0.00562   1.81186
   A11        1.96687   0.00040   0.00123  -0.00176  -0.00050   1.96638
   A12        1.96404   0.00040  -0.00097   0.00691   0.00596   1.97000
   A13        1.92088  -0.00047  -0.00086  -0.00511  -0.00607   1.91481
   A14        2.11581  -0.00179   0.00179  -0.00645  -0.00467   2.11114
   A15        2.08895   0.00042  -0.00152   0.00097  -0.00056   2.08838
   A16        2.07825   0.00137  -0.00023   0.00527   0.00500   2.08325
   A17        2.09783  -0.00037  -0.00036  -0.00281  -0.00319   2.09464
   A18        2.07485   0.00007   0.00029   0.00074   0.00104   2.07588
   A19        2.10980   0.00030   0.00005   0.00212   0.00218   2.11198
   A20        2.11076  -0.00006   0.00051  -0.00024   0.00025   2.11101
   A21        2.09049  -0.00008  -0.00037  -0.00066  -0.00102   2.08947
   A22        2.08193   0.00013  -0.00013   0.00090   0.00077   2.08270
   A23        2.06812   0.00072  -0.00020   0.00395   0.00373   2.07186
   A24        2.11443  -0.00035   0.00025  -0.00182  -0.00158   2.11285
   A25        2.10062  -0.00037  -0.00005  -0.00210  -0.00215   2.09847
   A26        2.08527   0.00075   0.00006   0.00293   0.00300   2.08827
   A27        2.11958  -0.00147  -0.00022  -0.00577  -0.00600   2.11358
   A28        2.07834   0.00072   0.00016   0.00284   0.00300   2.08134
   A29        2.09177  -0.00018   0.00050  -0.00022   0.00026   2.09203
   A30        2.10037   0.00018  -0.00021   0.00074   0.00053   2.10090
   A31        2.09104   0.00000  -0.00029  -0.00050  -0.00079   2.09025
   A32        1.89830  -0.00059  -0.00044  -0.00451  -0.00498   1.89332
   A33        1.89609   0.00162   0.00183   0.01261   0.01445   1.91053
   A34        1.83324   0.00030  -0.00367  -0.00060  -0.00428   1.82896
   A35        1.95634  -0.00045   0.00028  -0.00232  -0.00204   1.95430
   A36        1.95009  -0.00002   0.00116  -0.00060   0.00050   1.95059
   A37        1.92476  -0.00074   0.00065  -0.00399  -0.00331   1.92145
   A38        1.92480  -0.00343  -0.00626  -0.02710  -0.03336   1.89145
    D1       -1.51671   0.00224   0.00299   0.05307   0.05605  -1.46067
    D2        2.91478   0.00072   0.00344   0.03646   0.03991   2.95469
    D3        0.63309   0.00106   0.00285   0.03613   0.03898   0.67207
    D4       -2.71201  -0.00125   0.00123  -0.09276  -0.09153  -2.80353
    D5        1.43501  -0.00092  -0.00200  -0.08359  -0.08551   1.34950
    D6       -0.55900  -0.00079   0.00171  -0.07819  -0.07652  -0.63552
    D7       -0.85738   0.00003   0.00056  -0.07651  -0.07596  -0.93334
    D8       -2.99355   0.00036  -0.00266  -0.06734  -0.06994  -3.06349
    D9        1.29562   0.00049   0.00104  -0.06194  -0.06095   1.23468
   D10        1.19899  -0.00038  -0.00011  -0.07919  -0.07933   1.11967
   D11       -0.93717  -0.00005  -0.00333  -0.07002  -0.07331  -1.01048
   D12       -2.93119   0.00008   0.00037  -0.06462  -0.06432  -2.99550
   D13        3.12704   0.00007  -0.00076  -0.03001  -0.03075   3.09629
   D14        0.99323  -0.00001  -0.00194  -0.03216  -0.03408   0.95915
   D15       -1.06615  -0.00009  -0.00169  -0.03331  -0.03495  -1.10111
   D16        1.10411  -0.00009  -0.00028  -0.03369  -0.03401   1.07010
   D17       -1.02970  -0.00017  -0.00146  -0.03584  -0.03734  -1.06704
   D18       -3.08909  -0.00025  -0.00121  -0.03699  -0.03822  -3.12730
   D19       -0.76368  -0.00011   0.00104  -0.03172  -0.03069  -0.79437
   D20       -2.89749  -0.00018  -0.00014  -0.03387  -0.03401  -2.93151
   D21        1.32631  -0.00026   0.00011  -0.03502  -0.03489   1.29142
   D22        0.69341   0.00205   0.00402   0.05719   0.06121   0.75462
   D23        2.93279   0.00095   0.00399   0.04322   0.04720   2.97999
   D24       -1.48720   0.00185   0.00321   0.05133   0.05454  -1.43265
   D25       -1.22924   0.00090  -0.00284   0.04216   0.03929  -1.18995
   D26        1.89181   0.00069  -0.00140   0.03006   0.02866   1.92047
   D27        0.80222   0.00013  -0.00137   0.02826   0.02693   0.82916
   D28       -2.35992  -0.00008   0.00008   0.01616   0.01631  -2.34361
   D29        2.98679   0.00014  -0.00232   0.02551   0.02314   3.00994
   D30       -0.17535  -0.00007  -0.00087   0.01342   0.01252  -0.16284
   D31        3.10961   0.00011   0.00032   0.00364   0.00397   3.11358
   D32        0.00822   0.00007   0.00102   0.00208   0.00312   0.01133
   D33       -0.01155   0.00033  -0.00109   0.01571   0.01463   0.00308
   D34       -3.11295   0.00029  -0.00039   0.01415   0.01378  -3.09917
   D35       -3.10975  -0.00009   0.00004  -0.00362  -0.00355  -3.11330
   D36        0.02992   0.00006  -0.00074   0.00337   0.00265   0.03257
   D37        0.01174  -0.00033   0.00149  -0.01559  -0.01412  -0.00238
   D38       -3.13178  -0.00018   0.00071  -0.00860  -0.00792  -3.13970
   D39        0.00415  -0.00011   0.00002  -0.00565  -0.00561  -0.00146
   D40       -3.13562  -0.00010   0.00023  -0.00471  -0.00447  -3.14009
   D41        3.10473  -0.00008  -0.00070  -0.00410  -0.00478   3.09995
   D42       -0.03504  -0.00006  -0.00048  -0.00316  -0.00363  -0.03867
   D43        0.00311  -0.00011   0.00064  -0.00461  -0.00396  -0.00085
   D44        3.14062   0.00003   0.00019   0.00169   0.00187  -3.14070
   D45       -3.14030  -0.00012   0.00043  -0.00554  -0.00510   3.13778
   D46       -0.00279   0.00002  -0.00003   0.00075   0.00073  -0.00206
   D47        3.13902   0.00010  -0.00063   0.00438   0.00375  -3.14042
   D48       -0.00289   0.00010  -0.00023   0.00469   0.00445   0.00156
   D49        0.00147  -0.00004  -0.00017  -0.00186  -0.00203  -0.00056
   D50       -3.14043  -0.00004   0.00022  -0.00156  -0.00134   3.14142
   D51       -0.00459   0.00013  -0.00085   0.00551   0.00465   0.00006
   D52        3.13891  -0.00003  -0.00007  -0.00144  -0.00151   3.13740
   D53        3.13669   0.00013  -0.00045   0.00581   0.00535  -3.14115
   D54       -0.00300  -0.00003   0.00032  -0.00114  -0.00082  -0.00381
         Item               Value     Threshold  Converged?
 Maximum Force            0.007471     0.000450     NO 
 RMS     Force            0.001490     0.000300     NO 
 Maximum Displacement     0.303122     0.001800     NO 
 RMS     Displacement     0.066536     0.001200     NO 
 Predicted change in Energy=-8.966072D-04
 GradGradGradGradGradGradGradGradGradGradGradGradGradGradGradGradGradGrad

                          Input orientation:                          
 ---------------------------------------------------------------------
 Center     Atomic      Atomic             Coordinates (Angstroms)
 Number     Number       Type             X           Y           Z
 ---------------------------------------------------------------------
      1          7           0       -4.304570   -1.396070   -0.385669
      2         16           0       -3.257601   -0.409938    0.178730
      3          6           0       -2.015093    0.098744   -1.071726
      4          6           0       -0.743917    0.666457   -0.528012
      5          6           0       -0.729067    1.907541    0.123954
      6          6           0        0.459964    2.402373    0.652261
      7          6           0        1.649619    1.678344    0.545745
      8          6           0        1.626552    0.444069   -0.101299
      9         35           0        3.217720   -0.557032   -0.258556
     10          6           0        0.444737   -0.066279   -0.637004
     11          6           0       -2.273509   -1.501738    1.213230
     12          7           0       -3.582826    0.958505    0.821090
     13          1           0       -5.032103   -0.847282   -0.852466
[...]
 Alpha virt. eigenvalues --    1.62099   1.62878   1.63403   1.63645   1.65051
 Alpha virt. eigenvalues --    1.65282   1.66880   1.67784   1.68060   1.68708
 Alpha virt. eigenvalues --    1.69249   1.70927   1.71344   1.72489   1.73424
 Alpha virt. eigenvalues --    1.74416   1.75148   1.76006   1.79317   1.80811
 Alpha virt. eigenvalues --    1.81969   1.83439   1.86301   1.87206   1.88217
 Alpha virt. eigenvalues --    1.88990   1.91222   1.91743   1.93202   1.95063
 Alpha virt. eigenvalues --    1.95604   1.97208   1.99346   1.99919   2.01079
 Alpha virt. eigenvalues --    2.02680   2.03015   2.03617   2.05958   2.07664
 Alpha virt. eigenvalues --    2.08374   2.09920   2.12722   2.13141   2.13541
 Alpha virt. eigenvalues --    2.14982   2.16401   2.18325   2.19140   2.20168
 Alpha virt. eigenvalues --    2.22951   2.24810   2.27051   2.27551   2.28290
 Alpha virt. eigenvalues --    2.32771   2.34161   2.35666   2.37756   2.38607
 Alpha virt. eigenvalues --    2.39916   2.42120   2.43665   2.44853   2.46345
 Alpha virt. eigenvalues --    2.48325   2.49128   2.51631   2.52616   2.54319
 Alpha virt. eigenvalues --    2.57144   2.57785   2.59268   2.59871   2.61597
 Alpha virt. eigenvalues --    2.63953   2.64460   2.65571   2.65989   2.66395
 Alpha virt. eigenvalues --    2.69093   2.70369   2.71436   2.72174   2.72752
 Alpha virt. eigenvalues --    2.73214   2.75896   2.76825   2.77725   2.78583
 Alpha virt. eigenvalues --    2.80208   2.81630   2.82232   2.83521   2.85023
 Alpha virt. eigenvalues --    2.85804   2.86737   2.88816   2.90767   2.92374
 Alpha virt. eigenvalues --    2.96616   2.98495   2.99518   3.00025   3.02739
 Alpha virt. eigenvalues --    3.03891   3.05480   3.08666   3.09828   3.11037
 Alpha virt. eigenvalues --    3.12389   3.13284   3.14383   3.15723   3.17376
 Alpha virt. eigenvalues --    3.18615   3.21153   3.21317   3.22410   3.23512
 Alpha virt. eigenvalues --    3.23919   3.24815   3.27833   3.29027   3.30398
 Alpha virt. eigenvalues --    3.30858   3.33177   3.35349   3.36972   3.38156
 Alpha virt. eigenvalues --    3.38715   3.40396   3.41313   3.43549   3.44869
 Alpha virt. eigenvalues --    3.45224   3.46300   3.47850   3.49009   3.51571
 Alpha virt. eigenvalues --    3.52874   3.53281   3.56188   3.58459   3.58815
 Alpha virt. eigenvalues --    3.60641   3.61902   3.64024   3.64539   3.71047
 Alpha virt. eigenvalues --    3.71581   3.73137   3.75044   3.78750   3.79458
 Alpha virt. eigenvalues --    3.82546   3.83438   3.86995   3.91069   3.94432
 Alpha virt. eigenvalues --    3.97568   3.98216   4.02869   4.03091   4.05496
 Alpha virt. eigenvalues --    4.06738   4.07163   4.09651   4.11977   4.13324
 Alpha virt. eigenvalues --    4.15974   4.17285   4.18034   4.19192   4.19322
 Alpha virt. eigenvalues --    4.21390   4.21933   4.23306   4.24128   4.25199
 Alpha virt. eigenvalues --    4.26530   4.27750   4.29964   4.30445   4.32445
 Alpha virt. eigenvalues --    4.34866   4.36752   4.38413   4.41857   4.44432
 Alpha virt. eigenvalues --    4.46390   4.47706   4.50935   4.56812   4.58459
 Alpha virt. eigenvalues --    4.59216   4.64702   4.65705   4.66916   4.69434
 Alpha virt. eigenvalues --    4.69973   4.73000   4.75323   4.76872   4.77869
 Alpha virt. eigenvalues --    4.84248   4.89946   4.91724   5.00638   5.02292
 Alpha virt. eigenvalues --    5.07833   5.10333   5.13336   5.16221   5.19072
 Alpha virt. eigenvalues --    5.19855   5.21854   5.23875   5.36641   5.42258
 Alpha virt. eigenvalues --    5.43194   5.55013   5.57926   5.60863   7.79304
 Alpha virt. eigenvalues --    9.41423   9.47080   9.59558  21.54157  22.09541
 Alpha virt. eigenvalues --   22.33573  22.53168  22.69961  22.73073  22.79790
 Alpha virt. eigenvalues --   22.91478  23.23896  31.85957  31.91483
          Condensed to atoms (all electrons):
               1          2          3          4          5          6
     1  N    6.916263   0.515155  -0.073258   0.012526   0.001200  -0.000122
     2  S    0.515155  14.138250   0.232905  -0.009112   0.006681  -0.001946
     3  C   -0.073258   0.232905   5.597716  -0.034958  -0.073653   0.002336
     4  C    0.012526  -0.009112  -0.034958   5.611462   0.287264   0.103001
     5  C    0.001200   0.006681  -0.073653   0.287264   5.117413   0.368399
     6  C   -0.000122  -0.001946   0.002336   0.103001   0.368399   5.030338
     7  C    0.000028   0.000948   0.005894  -0.167429   0.083122   0.340884
     8  C   -0.000084  -0.000687   0.000465   0.132118  -0.129740   0.102170
     9  Br  -0.000000   0.000011  -0.001443   0.018498  -0.000564   0.017199
    10  C    0.000761   0.003677  -0.035035   0.167591   0.082086  -0.161501
    11  C   -0.081277   0.269206  -0.073670  -0.007561   0.008779  -0.000071
    12  N   -0.077768   0.487511  -0.082092  -0.037651   0.013002  -0.006375
    13  H    0.309057  -0.019522  -0.007274   0.000107   0.000164   0.000012
    14  H    0.002510  -0.016588   0.341477  -0.001543  -0.003774   0.001634
    15  H    0.013822  -0.019374   0.387821  -0.044925   0.007979  -0.000524
    16  H    0.000492   0.002074  -0.001071  -0.054802   0.424974  -0.051184
    17  H   -0.000001  -0.000062  -0.000588   0.011299  -0.049570   0.428060
    18  H    0.000000   0.000005   0.000155  -0.003794   0.011108  -0.061250
    19  H    0.000051  -0.000381  -0.001275  -0.085905   0.015458  -0.005081
    20  H    0.005507  -0.017604   0.003129   0.001416  -0.000480  -0.000446
    21  H    0.002469  -0.009837   0.004332  -0.002686  -0.000434  -0.000127
    22  H    0.006258  -0.012866   0.008413  -0.000079  -0.000628   0.000033
    23  H   -0.002075  -0.020233   0.013556   0.001088  -0.001337   0.000144
               7          8          9         10         11         12
     1  N    0.000028  -0.000084  -0.000000   0.000761  -0.081277  -0.077768
     2  S    0.000948  -0.000687   0.000011   0.003677   0.269206   0.487511
     3  C    0.005894   0.000465  -0.001443  -0.035035  -0.073670  -0.082092
     4  C   -0.167429   0.132118   0.018498   0.167591  -0.007561  -0.037651
     5  C    0.083122  -0.129740  -0.000564   0.082086   0.008779   0.013002
     6  C    0.340884   0.102170   0.017199  -0.161501  -0.000071  -0.006375
     7  C    5.131186   0.364888  -0.070660   0.074005   0.000423   0.001273
     8  C    0.364888   4.876149   0.314387   0.312675  -0.001668  -0.000745
     9  Br  -0.070660   0.314387  34.890453  -0.073437   0.000007  -0.000000
    10  C    0.074005   0.312675  -0.073437   5.420697   0.001962   0.005530
    11  C    0.000423  -0.001668   0.000007   0.001962   5.155428  -0.047009
    12  N    0.001273  -0.000745  -0.000000   0.005530  -0.047009   6.960501
    13  H   -0.000000  -0.000002   0.000000   0.000017   0.013638  -0.001891
    14  H   -0.000008  -0.000908   0.000011   0.001836   0.009623   0.005320
    15  H    0.000099   0.001821  -0.000027  -0.002421  -0.000799   0.006982
    16  H    0.011333  -0.003834   0.000040   0.014324   0.001258   0.021246
    17  H   -0.054769   0.010115  -0.000476  -0.001361  -0.000018  -0.000255
    18  H    0.437984  -0.060356  -0.004672   0.016339   0.000002   0.000005
    19  H    0.016588  -0.056361  -0.002820   0.447067   0.000599   0.000015
    20  H    0.000643   0.000315   0.000037  -0.006938   0.377129   0.000312
    21  H    0.000062  -0.000002   0.000009   0.002929   0.365728   0.005068
    22  H   -0.000037   0.000078   0.000001  -0.000121   0.371307   0.000259
    23  H   -0.000038   0.000037   0.000000  -0.000284  -0.009332   0.312520
              13         14         15         16         17         18
     1  N    0.309057   0.002510   0.013822   0.000492  -0.000001   0.000000
     2  S   -0.019522  -0.016588  -0.019374   0.002074  -0.000062   0.000005
     3  C   -0.007274   0.341477   0.387821  -0.001071  -0.000588   0.000155
     4  C    0.000107  -0.001543  -0.044925  -0.054802   0.011299  -0.003794
     5  C    0.000164  -0.003774   0.007979   0.424974  -0.049570   0.011108
     6  C    0.000012   0.001634  -0.000524  -0.051184   0.428060  -0.061250
     7  C   -0.000000  -0.000008   0.000099   0.011333  -0.054769   0.437984
     8  C   -0.000002  -0.000908   0.001821  -0.003834   0.010115  -0.060356
     9  Br   0.000000   0.000011  -0.000027   0.000040  -0.000476  -0.004672
    10  C    0.000017   0.001836  -0.002421   0.014324  -0.001361   0.016339
    11  C    0.013638   0.009623  -0.000799   0.001258  -0.000018   0.000002
    12  N   -0.001891   0.005320   0.006982   0.021246  -0.000255   0.000005
    13  H    0.490582   0.003165  -0.001049   0.000049   0.000000  -0.000000
    14  H    0.003165   0.522900  -0.013116   0.001581  -0.000002  -0.000002
    15  H   -0.001049  -0.013116   0.502379   0.000063   0.000010  -0.000001
    16  H    0.000049   0.001581   0.000063   0.482057  -0.007000  -0.000109
    17  H    0.000000  -0.000002   0.000010  -0.007000   0.544937  -0.007643
    18  H   -0.000000  -0.000002  -0.000001  -0.000109  -0.007643   0.534911
    19  H    0.000007   0.000543   0.001714  -0.000122   0.000078  -0.000082
    20  H   -0.000547  -0.000563   0.001058   0.000013  -0.000002  -0.000002
    21  H   -0.000912  -0.000441  -0.002202  -0.000093   0.000001  -0.000000
    22  H   -0.000681  -0.000292  -0.000280  -0.000058   0.000001  -0.000000
    23  H   -0.000398  -0.000897  -0.000577  -0.001053   0.000009  -0.000000
              19         20         21         22         23
     1  N    0.000051   0.005507   0.002469   0.006258  -0.002075
     2  S   -0.000381  -0.017604  -0.009837  -0.012866  -0.020233
     3  C   -0.001275   0.003129   0.004332   0.008413   0.013556
     4  C   -0.085905   0.001416  -0.002686  -0.000079   0.001088
     5  C    0.015458  -0.000480  -0.000434  -0.000628  -0.001337
     6  C   -0.005081  -0.000446  -0.000127   0.000033   0.000144
     7  C    0.016588   0.000643   0.000062  -0.000037  -0.000038
     8  C   -0.056361   0.000315  -0.000002   0.000078   0.000037
     9  Br  -0.002820   0.000037   0.000009   0.000001   0.000000
    10  C    0.447067  -0.006938   0.002929  -0.000121  -0.000284
    11  C    0.000599   0.377129   0.365728   0.371307  -0.009332
    12  N    0.000015   0.000312   0.005068   0.000259   0.312520
    13  H    0.000007  -0.000547  -0.000912  -0.000681  -0.000398
    14  H    0.000543  -0.000563  -0.000441  -0.000292  -0.000897
    15  H    0.001714   0.001058  -0.002202  -0.000280  -0.000577
    16  H   -0.000122   0.000013  -0.000093  -0.000058  -0.001053
    17  H    0.000078  -0.000002   0.000001   0.000001   0.000009
    18  H   -0.000082  -0.000002  -0.000000  -0.000000  -0.000000
    19  H    0.539492  -0.000229   0.000464  -0.000034  -0.000005
    20  H   -0.000229   0.494821  -0.018403  -0.012686   0.000122
    21  H    0.000464  -0.018403   0.512570  -0.009749   0.000142
    22  H   -0.000034  -0.012686  -0.009749   0.490625   0.002574
    23  H   -0.000005   0.000122   0.000142   0.002574   0.491546
 Mulliken charges:
               1
     1  N   -0.551517
     2  S    0.471790
     3  C   -0.213881
     4  C    0.104075
     5  C   -0.167448
     6  C   -0.105584
     7  C   -0.176417
     8  C    0.139169
     9  Br  -0.086554
    10  C   -0.270397
    11  C   -0.353684
    12  N   -0.565757
    13  H    0.215479
    14  H    0.147533
    15  H    0.161547
    16  H    0.159824
    17  H    0.127237
    18  H    0.137403
    19  H    0.130218
    20  H    0.173397
    21  H    0.151110
    22  H    0.157965
    23  H    0.214491
 Sum of Mulliken charges =  -0.00000
 Mulliken charges with hydrogens summed into heavy atoms:
               1
     1  N   -0.336037
     2  S    0.471790
     3  C    0.095199
     4  C    0.104075
     5  C   -0.007624
     6  C    0.021653
     7  C   -0.039015
     8  C    0.139169
     9  Br  -0.086554
    10  C   -0.140180
    11  C    0.128788
    12  N   -0.351266
 Electronic spatial extent (au):  <R**2>=           4272.9620
 Charge=             -0.0000 electrons
 Dipole moment (field-independent basis, Debye):
    X=              0.4045    Y=              0.6498    Z=              0.4534  Tot=              0.8897
 Quadrupole moment (field-independent basis, Debye-Ang):
   XX=           -100.5443   YY=            -92.2563   ZZ=            -87.9463
   XY=             -1.2113   XZ=              0.2619   YZ=              0.9672
 Traceless Quadrupole moment (field-independent basis, Debye-Ang):
   XX=             -6.9620   YY=              1.3260   ZZ=              5.6360
   XY=             -1.2113   XZ=              0.2619   YZ=              0.9672
 Octapole moment (field-independent basis, Debye-Ang**2):
  XXX=            105.9996  YYY=             -7.7044  ZZZ=              4.0585  XYY=             61.4680
  XXY=             17.7204  XXZ=              7.4254  XZZ=              8.5415  YZZ=            -13.5250
  YYZ=              8.3343  XYZ=              4.8163
 Hexadecapole moment (field-independent basis, Debye-Ang**3):
 XXXX=          -3878.5214 YYYY=           -822.2322 ZZZZ=           -315.7959 XXXY=           -202.4713
 XXXZ=             16.9140 YYYX=            -98.1427 YYYZ=             14.6724 ZZZX=             -1.5743
 ZZZY=             -3.9889 XXYY=           -878.1765 XXZZ=           -637.4312 YYZZ=           -198.4260
 XXYZ=             19.0890 YYXZ=             -0.5290 ZZXY=            -19.2152
 N-N= 1.077078914980D+03 E-N=-1.022915577701D+04  KE= 3.386304531033D+03
 Breneman (CHELPG) radii used.
 Read replacement radii for each type of atom:
 Rad(35) =   1.850000000000D+00
 Atom Element Radius
    1     7    1.70
    2    16    2.00
    3     6    1.50
    4     6    1.50
    5     6    1.50
    6     6    1.50
    7     6    1.50
    8     6    1.50
    9    35    1.85
   10     6    1.50
   11     6    1.50
   12     7    1.70
   13     1    1.45
   14     1    1.45
   15     1    1.45
   16     1    1.45
   17     1    1.45
   18     1    1.45
   19     1    1.45
   20     1    1.45
   21     1    1.45
   22     1    1.45
   23     1    1.45
 Generate Potential Derived Charges using the Breneman model, NDens= 1.
 Grid spacing= 0.300 Box extension= 2.800
 NStep X,Y,Z=   47     39     34   Total possible points=       62322
 Number of Points to Fit=   14988

 **********************************************************************

            Electrostatic Properties Using The SCF Density.

 **********************************************************************

       Atomic Center    1 is at  -4.119914 -1.442865 -0.343094
       Atomic Center    2 is at  -3.098317 -0.351663  0.064530
       Atomic Center    3 is at  -1.764328 -0.127144 -1.165243
       Atomic Center    4 is at  -0.510532  0.507573 -0.654725
       Atomic Center    5 is at  -0.492803  1.845135 -0.238221
       Atomic Center    6 is at   0.681875  2.404229  0.254612
       Atomic Center    7 is at   1.852677  1.651191  0.343523
       Atomic Center    8 is at   1.827651  0.321812 -0.070312
       Atomic Center    9 is at   3.396921 -0.722308  0.041821
       Atomic Center   10 is at   0.659974 -0.253898 -0.567076
       Atomic Center   11 is at  -2.227305 -1.181032  1.397335
       Atomic Center   12 is at  -3.463396  1.128323  0.355411
       Atomic Center   13 is at  -4.759657 -1.022570 -1.023407
       Atomic Center   14 is at  -2.267135  0.480332 -1.932630
       Atomic Center   15 is at  -1.593150 -1.137910 -1.559832
       Atomic Center   16 is at  -1.420402  2.419041 -0.273545
       Atomic Center   17 is at   0.691420  3.447369  0.579303
       Atomic Center   18 is at   2.774699  2.088622  0.729683
       Atomic Center   19 is at   0.664878 -1.297552 -0.889032
       Atomic Center   20 is at  -1.413606 -0.529781  1.738000
       Atomic Center   21 is at  -1.857181 -2.151937  1.045326
       Atomic Center   22 is at  -2.976732 -1.330516  2.184920
       Atomic Center   23 is at  -4.242395  1.136875  1.019397
   14988 points will be used for fitting atomic charges
 Fitting point charges to electrostatic potential
 Charges from ESP fit, RMS=   0.00424 RRMS=   0.32531:
 ESP charges:
               1
     1  N   -0.814876
     2  S    0.855469
     3  C   -0.334944
     4  C    0.262653
     5  C   -0.219601
     6  C   -0.067806
     7  C   -0.091735
     8  C    0.084532
     9  Br  -0.094322
    10  C   -0.198742
    11  C   -0.264819
    12  N   -0.792143
    13  H    0.331296
    14  H    0.119692
    15  H    0.138367
    16  H    0.158074
    17  H    0.104760
    18  H    0.085509
    19  H    0.097900
    20  H    0.074740
    21  H    0.126635
    22  H    0.120806
    23  H    0.318555
 Sum of ESP charges =  -0.00000
 ESP charges with hydrogens summed into heavy atoms:
               1
     1  N   -0.483580
     2  S    0.855469
     3  C   -0.076885
     4  C    0.262653
     5  C   -0.061527
     6  C    0.036954
     7  C   -0.006226
     8  C    0.084532
     9  Br  -0.094322
    10  C   -0.100842
    11  C    0.057361
    12  N   -0.473588
 Charge=  -0.00000 Dipole=     0.5840     0.6800     0.3143 Tot=     0.9499
 -----------------------------------------------------------------

              Electrostatic Properties (Atomic Units)

 -----------------------------------------------------------------
    Center     Electric         -------- Electric Field --------
               Potential          X             Y             Z
 -----------------------------------------------------------------
    1 Atom    -18.423211
    2 Atom    -59.073283
    3 Atom    -14.719634
    4 Atom    -14.727852
    5 Atom    -14.752587
    6 Atom    -14.745207
    7 Atom    -14.742625
    8 Atom    -14.694494
    9 Atom   -175.797815
   10 Atom    -14.740134
   11 Atom    -14.732131
   12 Atom    -18.421783
   13 Atom     -1.048366
   14 Atom     -1.070017
   15 Atom     -1.074074
   16 Atom     -1.097434
   17 Atom     -1.088636
   18 Atom     -1.082730
   19 Atom     -1.077856
   20 Atom     -1.074666
   21 Atom     -1.072185
   22 Atom     -1.070829
   23 Atom     -1.046692
 -----------------------------------------------------------------
 Unable to Open any file for archive entry.
 1\1\GINC-NOTCH311\SP\RPBE1PBE\def2TZVP\C8H11Br1N2S1\U1414944\07-Jun-20
 25\0\\#N Guess=Read Geom=Check Integral(Ultrafine) Density Pop=(ChelpG
 ,ReadRadii) NMR pbe1pbe EmpiricalDispersion=GD3BJ def2TZVP\\SDI2997_2\
 \0,1\N,0,-4.2856814125,-1.4302930891,-0.3938606199\S,0,-3.262466801,-0
 .4091693412,0.1637035061\C,0,-2.0176256833,0.1026206138,-1.0735185139\
 C,0,-0.7464130995,0.6640227817,-0.5218449375\C,0,-0.7292265401,1.89059
 17674,0.1549839692\C,0,0.4634743814,2.3788254804,0.6788461581\C,0,1.65
 31060237,1.663332583,0.5424890709\C,0,1.6286457049,0.443992363,-0.1296
 319666\Br,0,3.2234180924,-0.5476637872,-0.3263195432\C,0,0.4430175646,
 -0.0594834079,-0.6611244511\C,0,-2.2881349744,-1.459196783,1.245831240
 9\N,0,-3.6384499959,0.969099457,0.7697294891\H,0,-4.9776305569,-0.9039
 060421,-0.9350346345\H,0,-2.5826399596,0.8343809964,-1.6701845217\H,0,
 -1.8517557448,-0.8019975861,-1.6741877746\H,0,-1.668948376,2.428179070
 9,0.292743374\H,0,0.4725980306,3.3352849309,1.2068209232\H,0,2.5892600
 175,2.0453087891,0.9527340151\H,0,0.4484993333,-1.0165064091,-1.187403
 7433\H,0,-1.4675271012,-0.8624119687,1.6614488196\H,0,-1.9218197101,-2
 .326601648,0.6828199893\H,0,-2.980602026,-1.7889881531,2.0306900187\H,
 0,-4.3718923799,0.8178419769,1.4675637892\\Version=ES64L-G16RevC.01\St
 ate=1-A\HF=-3392.4958381\RMSD=2.430e-09\Dipole=0.1651933,0.2198888,0.2
 165044\Quadrupole=-5.0712035,0.7629566,4.3082468,-1.1185266,0.5796175,
 0.098872\PG=C01 [X(C8H11Br1N2S1)]\\@
 The archive entry for this job was punched.


 WHEN ALL ELSE FAILS, TRY THE BOSS'S SUGGESTION.
 Job cpu time:       0 days  0 hours 30 minutes 55.6 seconds.
 Elapsed time:       0 days  0 hours  2 minutes  5.8 seconds.
 File lengths (MBytes):  RWF=    137 Int=      0 D2E=      0 Chk=     21 Scr=      2
 Normal termination of Gaussian 16 at Sat Jun  7 02:40:34 2025.
