 Entering Gaussian System, Link 0=g16
 Input=SDI2997_3.com
 Output=SDI2997_3.log
 Initial command:
 /uufs/chpc.utah.edu/sys/installdir/gaussian16/C01/AVX/g16/l1.exe "/scratch/general/vast/u1414944/4689621-notchpeak.peaks/Gau-1095131.inp" -scrdir="/scratch/general/vast/u1414944/4689621-notchpeak.peaks/"
 Entering Link 1 = /uufs/chpc.utah.edu/sys/installdir/gaussian16/C01/AVX/g16/l1.exe PID=   1095132.
  
 Copyright (c) 1988-2019, Gaussian, Inc.  All Rights Reserved.
  
 This is part of the Gaussian(R) 16 program.  It is based on
 the Gaussian(R) 09 system (copyright 2009, Gaussian, Inc.),
 the Gaussian(R) 03 system (copyright 2003, Gaussian, Inc.),
 the Gaussian(R) 98 system (copyright 1998, Gaussian, Inc.),
 the Gaussian(R) 94 system (copyright 1995, Gaussian, Inc.),
 the Gaussian 92(TM) system (copyright 1992, Gaussian, Inc.),
 the Gaussian 90(TM) system (copyright 1990, Gaussian, Inc.),
 the Gaussian 88(TM) system (copyright 1988, Gaussian, Inc.),
 the Gaussian 86(TM) system (copyright 1986, Carnegie Mellon
 University), and the Gaussian 82(TM) system (copyright 1983,
 Carnegie Mellon University). Gaussian is a federally registered
 trademark of Gaussian, Inc.
  
 This software contains proprietary and confidential information,
 including trade secrets, belonging to Gaussian, Inc.
  
 This software is provided under written license and may be
 used, copied, transmitted, or stored only in accord with that
 written license.
  
 The following legend is applicable only to US Government
 contracts under FAR:
  
                    RESTRICTED RIGHTS LEGEND
  
 Use, reproduction and disclosure by the US Government is
 subject to restrictions as set forth in subparagraphs (a)
 and (c) of the Commercial Computer Software - Restricted
 Rights clause in FAR 52.227-19.
  
 Gaussian, Inc.
 340 Quinnipiac St., Bldg. 40, Wallingford CT 06492
  
  
 ---------------------------------------------------------------
 Warning -- This program may not be used in any manner that
 competes with the business of Gaussian, Inc. or will provide
 assistance to any competitor of Gaussian, Inc.  The licensee
 of this program is prohibited from giving any competitor of
 Gaussian, Inc. access to this program.  By using this program,
 the user acknowledges that Gaussian, Inc. is engaged in the
 business of creating and licensing software in the field of
 computational chemistry and represents and warrants to the
 licensee that it is not a competitor of Gaussian, Inc. and that
 it will not use this program in any manner prohibited above.
 ---------------------------------------------------------------
  

 Cite this work as:
 Gaussian 16, Revision C.01,
 M. J. Frisch, G. W. Trucks, H. B. Schlegel, G. E. Scuseria, 
 M. A. Robb, J. R. Cheeseman, G. Scalmani, V. Barone, 
 G. A. Petersson, H. Nakatsuji, X. Li, M. Caricato, A. V. Marenich, 
 J. Bloino, B. G. Janesko, R. Gomperts, B. Mennucci, H. P. Hratchian, 
 J. V. Ortiz, A. F. Izmaylov, J. L. Sonnenberg, D. Williams-Young, 
 F. Ding, F. Lipparini, F. Egidi, J. Goings, B. Peng, A. Petrone, 
 T. Henderson, D. Ranasinghe, V. G. Zakrzewski, J. Gao, N. Rega, 
 G. Zheng, W. Liang, M. Hada, M. Ehara, K. Toyota, R. Fukuda, 
 J. Hasegawa, M. Ishida, T. Nakajima, Y. Honda, O. Kitao, H. Nakai, 
 T. Vreven, K. Throssell, J. A. Montgomery, Jr., J. E. Peralta, 
 F. Ogliaro, M. J. Bearpark, J. J. Heyd, E. N. Brothers, K. N. Kudin, 
 V. N. Staroverov, T. A. Keith, R. Kobayashi, J. Normand, 
 K. Raghavachari, A. P. Rendell, J. C. Burant, S. S. Iyengar, 
 J. Tomasi, M. Cossi, J. M. Millam, M. Klene, C. Adamo, R. Cammi, 
 J. W. Ochterski, R. L. Martin, K. Morokuma, O. Farkas, 
 J. B. Foresman, and D. J. Fox, Gaussian, Inc., Wallingford CT, 2019.
 
 ******************************************
 Gaussian 16:  ES64L-G16RevC.01  3-Jul-2019
                 7-Jun-2025 
 ******************************************
 %NProcShared=16
 Will use up to   16 processors via shared memory.
 %Mem=40GB
 %chk=SDI2997_3.chk
 ----------------------------------------------------------------------
 #N OPT FREQ=NORAMAN Integral(Ultrafine) pbe1pbe EmpiricalDispersion=GD
 3BJ def2SVP
 ----------------------------------------------------------------------
 1/18=20,19=15,26=4,38=1/1,3;
 2/9=110,12=2,17=6,18=5,40=1/2;
 3/5=43,7=101,11=2,25=1,30=1,71=1,74=-13,75=-5,124=41/1,2,3;
 4//1;
 5/5=2,38=5/2;
 6/7=2,8=2,9=2,10=2,28=1/1;
 7//1,2,3,16;
 1/18=20,19=15,26=4/3(2);
 2/9=110/2;
 99//99;
 2/9=110/2;
 3/5=43,7=101,11=2,25=1,30=1,71=1,74=-13,75=-5,124=41/1,2,3;
 4/5=5,16=3,69=1/1;
 5/5=2,38=5/2;
 7//1,2,3,16;
 1/18=20,19=15,26=4/3(-5);
 2/9=110/2;
 6/7=2,8=2,9=2,10=2,19=2,28=1/1;
 99/9=1/99;
 ---------
 SDI2997_3
 ---------
 Symbolic Z-matrix:
 Charge =  0 Multiplicity = 1
 N                    -4.4294   -0.7609   -0.32861 
 S                    -2.9035   -0.70435  -0.16986 
 C                    -2.26195   1.02162   0.09457 
 C                    -0.84185   1.12799  -0.31558 
 C                    -0.46505   1.86101  -1.43697 
 C                     0.86241   1.9207   -1.82497 
 C                     1.83402   1.24576  -1.10734 
 C                     1.44996   0.51284   0.00409 
 Br                    2.77527  -0.42896   0.99724 
 C                     0.13165   0.44794   0.41057 
 C                    -2.36873  -0.99295  -1.89252 
 N                    -2.11595  -1.48355   0.89238 
 H                    -4.93707  -0.87027   0.53382 
 H                    -2.39133   1.18627   1.16172 
 H                    -2.91808   1.67545  -0.47481 
 H                    -1.21421   2.39275  -2.00516 
 H                     1.14548   2.49615  -2.69326 
 H                     2.8705    1.28597  -1.40365 
 H                    -0.16335  -0.14772   1.26005 
 H                    -1.28785  -0.94926  -1.94108 
 H                    -2.83037  -0.23092  -2.50577 
 H                    -2.7315   -1.97117  -2.18345 
 H                    -2.46544  -2.40952   1.07433 
 

 GradGradGradGradGradGradGradGradGradGradGradGradGradGradGradGradGradGrad
 Berny optimization.
 Initialization pass.
                           ----------------------------
                           !    Initial Parameters    !
                           ! (Angstroms and Degrees)  !
 --------------------------                            --------------------------
 ! Name  Definition              Value          Derivative Info.                !
 --------------------------------------------------------------------------------
 ! R1    R(1,2)                  1.5352         estimate D2E/DX2                !
 ! R2    R(1,13)                 1.0067         estimate D2E/DX2                !
 ! R3    R(2,3)                  1.8602         estimate D2E/DX2                !
 ! R4    R(2,11)                 1.8267         estimate D2E/DX2                !
 ! R5    R(2,12)                 1.5348         estimate D2E/DX2                !
 ! R6    R(3,4)                  1.482          estimate D2E/DX2                !
 ! R7    R(3,14)                 1.0875         estimate D2E/DX2                !
 ! R8    R(3,15)                 1.0873         estimate D2E/DX2                !
 ! R9    R(4,5)                  1.3917         estimate D2E/DX2                !
 ! R10   R(4,10)                 1.3919         estimate D2E/DX2                !
 ! R11   R(5,6)                  1.3843         estimate D2E/DX2                !
 ! R12   R(5,16)                 1.0802         estimate D2E/DX2                !
 ! R13   R(6,7)                  1.3837         estimate D2E/DX2                !
 ! R14   R(6,17)                 1.0794         estimate D2E/DX2                !
 ! R15   R(7,8)                  1.3856         estimate D2E/DX2                !
 ! R16   R(7,18)                 1.0788         estimate D2E/DX2                !
 ! R17   R(8,9)                  1.9052         estimate D2E/DX2                !
 ! R18   R(8,10)                 1.3811         estimate D2E/DX2                !
 ! R19   R(10,19)                1.0786         estimate D2E/DX2                !
 ! R20   R(11,20)                1.0829         estimate D2E/DX2                !
 ! R21   R(11,21)                1.0816         estimate D2E/DX2                !
 ! R22   R(11,22)                1.0831         estimate D2E/DX2                !
 ! R23   R(12,23)                1.0063         estimate D2E/DX2                !
 ! A1    A(2,1,13)             114.6232         estimate D2E/DX2                !
 ! A2    A(1,2,3)              113.0585         estimate D2E/DX2                !
 ! A3    A(1,2,11)             100.8153         estimate D2E/DX2                !
 ! A4    A(1,2,12)             124.2556         estimate D2E/DX2                !
 ! A5    A(3,2,11)             100.3508         estimate D2E/DX2                !
 ! A6    A(3,2,12)             101.2847         estimate D2E/DX2                !
 ! A7    A(11,2,12)            114.9763         estimate D2E/DX2                !
 ! A8    A(2,3,4)              110.9612         estimate D2E/DX2                !
 ! A9    A(2,3,14)             103.8239         estimate D2E/DX2                !
 ! A10   A(2,3,15)             105.9845         estimate D2E/DX2                !
 ! A11   A(4,3,14)             112.0072         estimate D2E/DX2                !
 ! A12   A(4,3,15)             112.9647         estimate D2E/DX2                !
 ! A13   A(14,3,15)            110.5503         estimate D2E/DX2                !
 ! A14   A(3,4,5)              121.35           estimate D2E/DX2                !
 ! A15   A(3,4,10)             119.3891         estimate D2E/DX2                !
 ! A16   A(5,4,10)             119.2312         estimate D2E/DX2                !
 ! A17   A(4,5,6)              120.5438         estimate D2E/DX2                !
 ! A18   A(4,5,16)             119.6925         estimate D2E/DX2                !
 ! A19   A(6,5,16)             119.7626         estimate D2E/DX2                !
 ! A20   A(5,6,7)              120.4618         estimate D2E/DX2                !
 ! A21   A(5,6,17)             119.9943         estimate D2E/DX2                !
 ! A22   A(7,6,17)             119.544          estimate D2E/DX2                !
 ! A23   A(6,7,8)              118.6461         estimate D2E/DX2                !
 ! A24   A(6,7,18)             120.9337         estimate D2E/DX2                !
 ! A25   A(8,7,18)             120.4203         estimate D2E/DX2                !
 ! A26   A(7,8,9)              119.1304         estimate D2E/DX2                !
 ! A27   A(7,8,10)             121.7025         estimate D2E/DX2                !
 ! A28   A(9,8,10)             119.1671         estimate D2E/DX2                !
 ! A29   A(4,10,8)             119.4129         estimate D2E/DX2                !
 ! A30   A(4,10,19)            119.3            estimate D2E/DX2                !
 ! A31   A(8,10,19)            121.2521         estimate D2E/DX2                !
 ! A32   A(2,11,20)            109.156          estimate D2E/DX2                !
 ! A33   A(2,11,21)            107.3635         estimate D2E/DX2                !
 ! A34   A(2,11,22)            107.3339         estimate D2E/DX2                !
 ! A35   A(20,11,21)           111.8497         estimate D2E/DX2                !
 ! A36   A(20,11,22)           111.0211         estimate D2E/DX2                !
 ! A37   A(21,11,22)           109.9412         estimate D2E/DX2                !
 ! A38   A(2,12,23)            114.4608         estimate D2E/DX2                !
 ! D1    D(13,1,2,3)           -89.2975         estimate D2E/DX2                !
 ! D2    D(13,1,2,11)          164.4346         estimate D2E/DX2                !
 ! D3    D(13,1,2,12)           33.8781         estimate D2E/DX2                !
 ! D4    D(1,2,3,4)           -156.2369         estimate D2E/DX2                !
 ! D5    D(1,2,3,14)            83.2647         estimate D2E/DX2                !
 ! D6    D(1,2,3,15)           -33.2563         estimate D2E/DX2                !
 ! D7    D(11,2,3,4)           -49.6744         estimate D2E/DX2                !
 ! D8    D(11,2,3,14)         -170.1728         estimate D2E/DX2                !
 ! D9    D(11,2,3,15)           73.3061         estimate D2E/DX2                !
 ! D10   D(12,2,3,4)            68.6287         estimate D2E/DX2                !
 ! D11   D(12,2,3,14)          -51.8697         estimate D2E/DX2                !
 ! D12   D(12,2,3,15)         -168.3907         estimate D2E/DX2                !
 ! D13   D(1,2,11,20)          178.2581         estimate D2E/DX2                !
 ! D14   D(1,2,11,21)           56.8308         estimate D2E/DX2                !
 ! D15   D(1,2,11,22)          -61.329          estimate D2E/DX2                !
 ! D16   D(3,2,11,20)           62.1388         estimate D2E/DX2                !
 ! D17   D(3,2,11,21)          -59.2886         estimate D2E/DX2                !
 ! D18   D(3,2,11,22)         -177.4484         estimate D2E/DX2                !
 ! D19   D(12,2,11,20)         -45.5906         estimate D2E/DX2                !
 ! D20   D(12,2,11,21)        -167.0179         estimate D2E/DX2                !
 ! D21   D(12,2,11,22)          74.8222         estimate D2E/DX2                !
 ! D22   D(1,2,12,23)           37.9246         estimate D2E/DX2                !
 ! D23   D(3,2,12,23)          166.1754         estimate D2E/DX2                !
 ! D24   D(11,2,12,23)         -86.6631         estimate D2E/DX2                !
 ! D25   D(2,3,4,5)            110.663          estimate D2E/DX2                !
 ! D26   D(2,3,4,10)           -67.3377         estimate D2E/DX2                !
 ! D27   D(14,3,4,5)          -133.8178         estimate D2E/DX2                !
 ! D28   D(14,3,4,10)           48.1815         estimate D2E/DX2                !
 ! D29   D(15,3,4,5)            -8.193          estimate D2E/DX2                !
 ! D30   D(15,3,4,10)          173.8064         estimate D2E/DX2                !
 ! D31   D(3,4,5,6)           -178.3151         estimate D2E/DX2                !
 ! D32   D(3,4,5,16)             2.0824         estimate D2E/DX2                !
 ! D33   D(10,4,5,6)            -0.3114         estimate D2E/DX2                !
 ! D34   D(10,4,5,16)         -179.9139         estimate D2E/DX2                !
 ! D35   D(3,4,10,8)           177.9879         estimate D2E/DX2                !
 ! D36   D(3,4,10,19)            0.1096         estimate D2E/DX2                !
 ! D37   D(5,4,10,8)            -0.0555         estimate D2E/DX2                !
 ! D38   D(5,4,10,19)         -177.9338         estimate D2E/DX2                !
 ! D39   D(4,5,6,7)              0.3649         estimate D2E/DX2                !
 ! D40   D(4,5,6,17)          -179.6796         estimate D2E/DX2                !
 ! D41   D(16,5,6,7)           179.9671         estimate D2E/DX2                !
 ! D42   D(16,5,6,17)           -0.0774         estimate D2E/DX2                !
 ! D43   D(5,6,7,8)             -0.0468         estimate D2E/DX2                !
 ! D44   D(5,6,7,18)           179.9182         estimate D2E/DX2                !
 ! D45   D(17,6,7,8)           179.9976         estimate D2E/DX2                !
 ! D46   D(17,6,7,18)           -0.0375         estimate D2E/DX2                !
 ! D47   D(6,7,8,9)            179.697          estimate D2E/DX2                !
 ! D48   D(6,7,8,10)            -0.3277         estimate D2E/DX2                !
 ! D49   D(18,7,8,9)            -0.2681         estimate D2E/DX2                !
 ! D50   D(18,7,8,10)          179.7072         estimate D2E/DX2                !
 ! D51   D(7,8,10,4)             0.3792         estimate D2E/DX2                !
 ! D52   D(7,8,10,19)          178.2149         estimate D2E/DX2                !
 ! D53   D(9,8,10,4)          -179.6455         estimate D2E/DX2                !
 ! D54   D(9,8,10,19)           -1.8099         estimate D2E/DX2                !
 --------------------------------------------------------------------------------
 Trust Radius=3.00D-01 FncErr=1.00D-07 GrdErr=1.00D-06 EigMax=2.50D+02 EigMin=1.00D-04
 Number of steps in this run=    125 maximum allowed number of steps=    138.
 GradGradGradGradGradGradGradGradGradGradGradGradGradGradGradGradGradGrad

                          Input orientation:                          
 ---------------------------------------------------------------------
 Center     Atomic      Atomic             Coordinates (Angstroms)
 Number     Number       Type             X           Y           Z
 ---------------------------------------------------------------------
      1          7           0       -4.429396   -0.760902   -0.328615
      2         16           0       -2.903505   -0.704353   -0.169860
      3          6           0       -2.261948    1.021617    0.094573
      4          6           0       -0.841854    1.127988   -0.315581
      5          6           0       -0.465050    1.861007   -1.436974
      6          6           0        0.862413    1.920703   -1.824971
      7          6           0        1.834016    1.245764   -1.107344
      8          6           0        1.449959    0.512837    0.004093
      9         35           0        2.775265   -0.428961    0.997241
     10          6           0        0.131646    0.447935    0.410571
     11          6           0       -2.368730   -0.992950   -1.892519
     12          7           0       -2.115951   -1.483547    0.892380
     13          1           0       -4.937073   -0.870267    0.533824
     14          1           0       -2.391331    1.186273    1.161716
     15          1           0       -2.918079    1.675449   -0.474814
     16          1           0       -1.214208    2.392750   -2.005162
     17          1           0        1.145476    2.496148   -2.693263
     18          1           0        2.870505    1.285965   -1.403647
     19          1           0       -0.163350   -0.147718    1.260047
     20          1           0       -1.287847   -0.949257   -1.941084
     21          1           0       -2.830369   -0.230919   -2.505774
     22          1           0       -2.731495   -1.971166   -2.183448
     23          1           0       -2.465440   -2.409516    1.074333
 ---------------------------------------------------------------------
                    Distance matrix (angstroms):
                    1          2          3          4          5
     1  N    0.000000
     2  S    1.535169   0.000000
     3  C    2.838008   1.860239   0.000000
     4  C    4.054446   2.762085   1.481961   0.000000
     5  C    4.880461   3.759349   2.505804   1.391696   0.000000
     6  C    6.118278   4.879800   3.775531   2.410639   1.384292
     7  C    6.622949   5.208256   4.274548   2.793034   2.402682
     8  C    6.024942   4.523766   3.747706   2.394371   2.749818
     9  Br   7.333159   5.803998   5.319070   4.151042   4.654998
    10  C    4.776063   3.298000   2.481583   1.391931   2.401300
    11  C    2.597304   1.826698   2.831681   3.052289   3.460721
    12  N    2.713867   1.534842   2.633184   3.146841   4.397432
    13  H    1.006726   2.158263   3.305822   4.635227   5.598472
    14  H    3.188461   2.368519   1.087495   2.141654   3.304393
    15  H    2.870759   2.399305   1.087293   2.153086   2.641503
    16  H    4.805598   3.976695   2.717840   2.143118   1.080197
    17  H    6.875982   5.744999   4.642931   3.387434   2.139033
    18  H    7.657278   6.230793   5.353187   3.871750   3.384924
    19  H    4.593363   3.140529   2.670166   2.137849   3.376377
    20  H    3.536222   2.409888   2.996184   2.675092   2.971314
    21  H    2.752779   2.384530   2.941726   3.255421   3.333650
    22  H    2.790701   2.385149   3.790330   4.082208   4.514371
    23  H    2.922895   2.155806   3.574075   4.133017   5.342807
                    6          7          8          9         10
     6  C    0.000000
     7  C    1.383669   0.000000
     8  C    2.381758   1.385631   0.000000
     9  Br   4.140628   2.849550   1.905194   0.000000
    10  C    2.775016   2.416332   1.381082   2.846376   0.000000
    11  C    4.351348   4.826118   4.521828   5.927014   3.692188
    12  N    5.276700   5.200988   4.182143   5.004712   3.002408
    13  H    6.854741   7.281391   6.556506   7.738841   5.238774
    14  H    4.477336   4.796428   4.068061   5.415695   2.734003
    15  H    4.021840   4.813224   4.545413   6.245771   3.404632
    16  H    2.137207   3.378361   3.830009   5.735188   3.380739
    17  H    1.079441   2.133702   3.361839   4.983202   3.854454
    18  H    2.147752   1.078759   2.144156   2.952000   3.390432
    19  H    3.853296   3.396440   2.148609   2.963718   1.078626
    20  H    3.588004   3.906311   3.662924   5.041165   3.081783
    21  H    4.327772   5.088485   5.017351   6.613129   4.211821
    22  H    5.309550   5.687752   5.332932   6.543668   4.558350
    23  H    6.183152   6.050298   5.001591   5.602993   3.917966
                   11         12         13         14         15
    11  C    0.000000
    12  N    2.839058   0.000000
    13  H    3.535333   2.909193   0.000000
    14  H    3.752050   2.697465   3.332328   0.000000
    15  H    3.071161   3.534386   3.402111   1.787453   0.000000
    16  H    3.578908   4.922862   5.563583   3.587523   2.399930
    17  H    5.016437   6.271500   7.664479   5.393110   4.701866
    18  H    5.734286   6.148713   8.328349   5.854736   5.875554
    19  H    3.939136   2.394215   4.882408   2.598672   3.731248
    20  H    1.082856   2.999957   4.410018   3.924989   3.420042
    21  H    1.081611   3.691466   3.753149   3.956220   2.786886
    22  H    1.083117   3.174490   3.668803   4.612510   4.031382
    23  H    3.289107   1.006314   2.961487   3.597614   4.392229
                   16         17         18         19         20
    16  H    0.000000
    17  H    2.460139   0.000000
    18  H    4.274538   2.470502   0.000000
    19  H    4.268474   4.932719   4.284272   0.000000
    20  H    3.343433   4.284583   4.751520   3.486287   0.000000
    21  H    3.121895   4.824871   6.001298   4.615335   1.792836
    22  H    4.623603   5.936978   6.526821   4.666689   1.785262
    23  H    5.840431   7.162334   6.947609   3.232621   3.551312
                   21         22         23
    21  H    0.000000
    22  H    1.772605   0.000000
    23  H    4.206736   3.297889   0.000000
 Stoichiometry    C8H11BrN2S
 Framework group  C1[X(C8H11BrN2S)]
 Deg. of freedom    63
 Full point group                 C1      NOp   1
 Largest Abelian subgroup         C1      NOp   1
 Largest concise Abelian subgroup C1      NOp   1
                         Standard orientation:                         
 ---------------------------------------------------------------------
 Center     Atomic      Atomic             Coordinates (Angstroms)
 Number     Number       Type             X           Y           Z
 ---------------------------------------------------------------------
      1          7           0        4.287447   -0.612291   -0.071660
      2         16           0        2.757508   -0.606040    0.054794
      3          6           0        1.930181    0.528280   -1.165591
      4          6           0        0.594394    0.946848   -0.679092
      5          6           0        0.345880    2.257890   -0.283834
      6          6           0       -0.898482    2.622723    0.200648
      7          6           0       -1.912130    1.686820    0.306209
      8          6           0       -1.654846    0.382165   -0.083218
      9         35           0       -3.038001   -0.919693    0.064465
     10          6           0       -0.422082    0.001537   -0.575970
     11          6           0        2.544651    0.355609    1.593219
     12          7           0        1.876511   -1.858143   -0.053943
     13          1           0        4.652194   -1.293272   -0.717200
     14          1           0        1.865023   -0.068612   -2.072300
     15          1           0        2.611226    1.363991   -1.306913
     16          1           0        1.128925    2.997864   -0.361976
     17          1           0       -1.083064    3.643303    0.499880
     18          1           0       -2.884270    1.962482    0.683932
     19          1           0       -0.220855   -1.022022   -0.850325
     20          1           0        1.487374    0.470347    1.797124
     21          1           0        3.032386    1.309939    1.447435
     22          1           0        3.036194   -0.192973    2.387313
     23          1           0        2.271679   -2.683351    0.365035
 ---------------------------------------------------------------------
 Rotational constants (GHZ):           1.1367301           0.3088829           0.2627874
 Standard basis: def2SVP (5D, 7F)
 There are   259 symmetry adapted cartesian basis functions of A   symmetry.
 There are   245 symmetry adapted basis functions of A   symmetry.
   245 basis functions,   444 primitive gaussians,   259 cartesian basis functions
    62 alpha electrons       62 beta electrons
       nuclear repulsion energy      1096.7438054426 Hartrees.
 NAtoms=   23 NActive=   23 NUniq=   23 SFac= 1.00D+00 NAtFMM=   60 NAOKFM=F Big=F
 Integral buffers will be    131072 words long.
 Raffenetti 2 integral format.
 Two-electron integral symmetry is turned on.
 Nuclear repulsion after empirical dispersion term =     1096.7155386195 Hartrees.
 One-electron integrals computed using PRISM.
   1 Symmetry operations used in ECPInt.
 ECPInt:  NShTT=    6441 NPrTT=   25202 LenC2=    6146 LenP2D=   17656.
 LDataN:  DoStor=T MaxTD1= 4 Len=   56
 NBasis=   245 RedAO= T EigKep=  2.58D-04  NBF=   245
 NBsUse=   245 1.00D-06 EigRej= -1.00D+00 NBFU=   245
 ExpMin= 1.22D-01 ExpMax= 1.13D+05 ExpMxC= 1.70D+04 IAcc=3 IRadAn=         5 AccDes= 0.00D+00
 Harris functional with IExCor= 1009 and IRadAn=       5 diagonalized for initial guess.
 HarFok:  IExCor= 1009 AccDes= 0.00D+00 IRadAn=         5 IDoV= 1 UseB2=F ITyADJ=14
 ICtDFT=  3500011 ScaDFX=  1.000000  1.000000  1.000000  1.000000
 FoFCou: FMM=F IPFlag=           0 FMFlag=      100000 FMFlg1=           0
         NFxFlg=           0 DoJE=T BraDBF=F KetDBF=T FulRan=T
         wScrn=  0.000000 ICntrl=       500 IOpCl=  0 I1Cent=   200000004 NGrid=           0
         NMat0=    1 NMatS0=      1 NMatT0=    0 NMatD0=    1 NMtDS0=    0 NMtDT0=    0
 Petite list used in FoFCou.
 Requested convergence on RMS density matrix=1.00D-08 within 128 cycles.
 Requested convergence on MAX density matrix=1.00D-06.
 Requested convergence on             energy=1.00D-06.
 No special actions if energy rises.
 Integral accuracy reduced to 1.0D-05 until final iterations.
 Initial convergence to 1.0D-05 achieved.  Increase integral accuracy.
 SCF Done:  E(RPBE1PBE) =  -3391.54666713     A.U. after   14 cycles
            NFock= 14  Conv=0.78D-08     -V/T= 2.0022

 **********************************************************************

            Population analysis using the SCF Density.

 **********************************************************************

 Orbital symmetries:
       Occupied  (A) (A) (A) (A) (A) (A) (A) (A) (A) (A) (A) (A)
                 (A) (A) (A) (A) (A) (A) (A) (A) (A) (A) (A) (A)
                 (A) (A) (A) (A) (A) (A) (A) (A) (A) (A) (A) (A)
                 (A) (A) (A) (A) (A) (A) (A) (A) (A) (A) (A) (A)
                 (A) (A) (A) (A) (A) (A) (A) (A) (A) (A) (A) (A)
                 (A) (A)
       Virtual   (A) (A) (A) (A) (A) (A) (A) (A) (A) (A) (A) (A)
                 (A) (A) (A) (A) (A) (A) (A) (A) (A) (A) (A) (A)
                 (A) (A) (A) (A) (A) (A) (A) (A) (A) (A) (A) (A)
                 (A) (A) (A) (A) (A) (A) (A) (A) (A) (A) (A) (A)
                 (A) (A) (A) (A) (A) (A) (A) (A) (A) (A) (A) (A)
                 (A) (A) (A) (A) (A) (A) (A) (A) (A) (A) (A) (A)
                 (A) (A) (A) (A) (A) (A) (A) (A) (A) (A) (A) (A)
                 (A) (A) (A) (A) (A) (A) (A) (A) (A) (A) (A) (A)
                 (A) (A) (A) (A) (A) (A) (A) (A) (A) (A) (A) (A)
                 (A) (A) (A) (A) (A) (A) (A) (A) (A) (A) (A) (A)
                 (A) (A) (A) (A) (A) (A) (A) (A) (A) (A) (A) (A)
                 (A) (A) (A) (A) (A) (A) (A) (A) (A) (A) (A) (A)
                 (A) (A) (A) (A) (A) (A) (A) (A) (A) (A) (A) (A)
                 (A) (A) (A) (A) (A) (A) (A) (A) (A) (A) (A) (A)
                 (A) (A) (A) (A) (A) (A) (A) (A) (A) (A) (A) (A)
                 (A) (A) (A)
 The electronic state is 1-A.
 Alpha  occ. eigenvalues -- -483.19106 -89.18172 -62.62478 -56.41471 -56.41121
 Alpha  occ. eigenvalues --  -56.41109 -14.34715 -14.34451 -10.29479 -10.27116
 Alpha  occ. eigenvalues --  -10.26422 -10.25925 -10.25335 -10.25260 -10.25136
 Alpha  occ. eigenvalues --  -10.24643  -8.77088  -8.15658  -6.58567  -6.57290
 Alpha  occ. eigenvalues --   -6.57255  -6.09791  -6.09680  -6.09651  -2.67122
 Alpha  occ. eigenvalues --   -2.66756  -2.66730  -2.65703  -2.65703  -1.00572
 Alpha  occ. eigenvalues --   -0.90926  -0.85411  -0.83927  -0.80996  -0.76753
 Alpha  occ. eigenvalues --   -0.75151  -0.73201  -0.64269  -0.62697  -0.60294
 Alpha  occ. eigenvalues --   -0.54403  -0.54230  -0.50878  -0.49375  -0.48751
 Alpha  occ. eigenvalues --   -0.46346  -0.44976  -0.44137  -0.43826  -0.42787
 Alpha  occ. eigenvalues --   -0.42339  -0.40729  -0.38336  -0.36926  -0.34595
 Alpha  occ. eigenvalues --   -0.33152  -0.29842  -0.29080  -0.26932  -0.26217
 Alpha  occ. eigenvalues --   -0.25390  -0.23806
 Alpha virt. eigenvalues --   -0.02897  -0.01882   0.01478   0.05738   0.06687
 Alpha virt. eigenvalues --    0.07917   0.08226   0.09564   0.09997   0.10941
 Alpha virt. eigenvalues --    0.11623   0.12884   0.13668   0.13997   0.15555
 Alpha virt. eigenvalues --    0.15904   0.16620   0.18866   0.21117   0.22988
 Alpha virt. eigenvalues --    0.26276   0.28832   0.30404   0.31694   0.33573
 Alpha virt. eigenvalues --    0.33982   0.38088   0.38712   0.40831   0.41302
 Alpha virt. eigenvalues --    0.43130   0.43390   0.44461   0.46993   0.48109
 Alpha virt. eigenvalues --    0.48498   0.48727   0.49705   0.50796   0.52508
 Alpha virt. eigenvalues --    0.52693   0.53523   0.54716   0.55804   0.57391
 Alpha virt. eigenvalues --    0.60302   0.60620   0.61839   0.62537   0.63495
 Alpha virt. eigenvalues --    0.64283   0.65069   0.65737   0.66269   0.67243
 Alpha virt. eigenvalues --    0.68216   0.68591   0.69499   0.69863   0.70201
 Alpha virt. eigenvalues --    0.71656   0.72211   0.72772   0.73048   0.75013
 Alpha virt. eigenvalues --    0.75177   0.76313   0.77137   0.79010   0.81176
 Alpha virt. eigenvalues --    0.81306   0.83565   0.84442   0.86511   0.87364
 Alpha virt. eigenvalues --    0.89232   0.90219   0.94107   0.95958   0.97185
 Alpha virt. eigenvalues --    0.98580   1.00023   1.02974   1.05367   1.08259
 Alpha virt. eigenvalues --    1.09880   1.12453   1.14276   1.15523   1.18928
 Alpha virt. eigenvalues --    1.20402   1.22642   1.23515   1.24114   1.26791
 Alpha virt. eigenvalues --    1.27926   1.28711   1.33065   1.33796   1.39643
 Alpha virt. eigenvalues --    1.43573   1.45975   1.49153   1.50107   1.50597
 Alpha virt. eigenvalues --    1.53314   1.54129   1.65181   1.66025   1.68480
 Alpha virt. eigenvalues --    1.71632   1.73189   1.74363   1.75060   1.75091
 Alpha virt. eigenvalues --    1.77416   1.78431   1.79052   1.81023   1.82851
 Alpha virt. eigenvalues --    1.83587   1.84451   1.85524   1.88126   1.89439
 Alpha virt. eigenvalues --    1.92027   1.96642   1.97131   1.99114   2.00498
 Alpha virt. eigenvalues --    2.02178   2.03127   2.09088   2.11127   2.13861
 Alpha virt. eigenvalues --    2.14955   2.15653   2.16994   2.18528   2.22150
 Alpha virt. eigenvalues --    2.22549   2.27692   2.29205   2.31162   2.31476
 Alpha virt. eigenvalues --    2.33849   2.35310   2.39740   2.43090   2.43616
 Alpha virt. eigenvalues --    2.45067   2.48138   2.54897   2.56956   2.57638
 Alpha virt. eigenvalues --    2.58762   2.59394   2.61226   2.63338   2.65800
 Alpha virt. eigenvalues --    2.66333   2.74454   2.76127   2.81207   2.84589
 Alpha virt. eigenvalues --    2.86976   2.89761   2.90508   2.90560   2.95656
 Alpha virt. eigenvalues --    2.96174   2.98815   3.05083   3.12107   3.24307
 Alpha virt. eigenvalues --    3.27939   3.31788   3.45730   3.49388   3.53810
 Alpha virt. eigenvalues --    3.60823   3.66077   3.86103
          Condensed to atoms (all electrons):
               1          2          3          4          5          6
     1  N    6.932875   0.333409  -0.055909   0.006298  -0.000004  -0.000001
     2  S    0.333409  14.642494   0.225313  -0.048398  -0.001624  -0.000230
     3  C   -0.055909   0.225313   5.342194   0.212870  -0.094454   0.014365
     4  C    0.006298  -0.048398   0.212870   5.544492   0.242566   0.096852
     5  C   -0.000004  -0.001624  -0.094454   0.242566   5.175922   0.283863
     6  C   -0.000001  -0.000230   0.014365   0.096852   0.283863   5.012456
     7  C    0.000000   0.000079  -0.001678  -0.163080   0.105295   0.287744
     8  C   -0.000001   0.000331   0.014542   0.125436  -0.178982   0.111853
     9  Br  -0.000000   0.000001  -0.000196   0.003883   0.000700   0.003893
    10  C    0.000208  -0.010158  -0.117610   0.263921   0.071043  -0.129712
    11  C   -0.095195   0.246019  -0.126227   0.006936   0.000553  -0.000518
    12  N   -0.040588   0.327370  -0.091666  -0.022880   0.000711  -0.000043
    13  H    0.325980  -0.009674  -0.005407  -0.000080   0.000003  -0.000000
    14  H    0.001199  -0.007902   0.319170   0.009160   0.004100  -0.000464
    15  H    0.009742  -0.011456   0.333383  -0.007751  -0.011717   0.000505
    16  H   -0.000052   0.000104  -0.015187  -0.073982   0.450116  -0.063366
    17  H   -0.000000   0.000001  -0.000351   0.016717  -0.072621   0.456190
    18  H    0.000000   0.000000   0.000037  -0.001527   0.013858  -0.058233
    19  H    0.000098  -0.002712  -0.014708  -0.057499   0.014085  -0.002044
    20  H    0.005444  -0.009329   0.001514   0.002970  -0.003446   0.000061
    21  H    0.007046  -0.010107   0.003529  -0.000839   0.002080  -0.000032
    22  H    0.008126  -0.003922   0.007729  -0.000481  -0.000043   0.000026
    23  H   -0.001050  -0.010265   0.009465   0.000119  -0.000001  -0.000001
               7          8          9         10         11         12
     1  N    0.000000  -0.000001  -0.000000   0.000208  -0.095195  -0.040588
     2  S    0.000079   0.000331   0.000001  -0.010158   0.246019   0.327370
     3  C   -0.001678   0.014542  -0.000196  -0.117610  -0.126227  -0.091666
     4  C   -0.163080   0.125436   0.003883   0.263921   0.006936  -0.022880
     5  C    0.105295  -0.178982   0.000700   0.071043   0.000553   0.000711
     6  C    0.287744   0.111853   0.003893  -0.129712  -0.000518  -0.000043
     7  C    5.092727   0.249080  -0.066377   0.078380  -0.000090   0.000092
     8  C    0.249080   5.379192   0.239823   0.238233   0.000236  -0.001009
     9  Br  -0.066377   0.239823  34.919593  -0.070149   0.000001  -0.000033
    10  C    0.078380   0.238233  -0.070149   5.133235   0.001905   0.011024
    11  C   -0.000090   0.000236   0.000001   0.001905   4.986499  -0.042417
    12  N    0.000092  -0.001009  -0.000033   0.011024  -0.042417   6.915941
    13  H   -0.000000   0.000001   0.000000  -0.000013   0.009237  -0.000585
    14  H    0.000098   0.000891  -0.000014  -0.005333   0.007650   0.008190
    15  H    0.000074  -0.000474   0.000004   0.011780   0.002963   0.006004
    16  H    0.014915  -0.001775   0.000020   0.015605   0.000111   0.000001
    17  H   -0.073913   0.016145  -0.000203  -0.002119  -0.000017   0.000000
    18  H    0.442000  -0.064901   0.000115   0.014025  -0.000001   0.000001
    19  H    0.013613  -0.061323   0.001043   0.442767   0.001241   0.032801
    20  H    0.000491   0.000659  -0.000012  -0.001955   0.364359   0.002527
    21  H    0.000015  -0.000076   0.000000   0.000070   0.353461   0.003820
    22  H   -0.000001  -0.000026   0.000000  -0.000260   0.362948  -0.000267
    23  H   -0.000001  -0.000059  -0.000001  -0.000806  -0.006127   0.328725
              13         14         15         16         17         18
     1  N    0.325980   0.001199   0.009742  -0.000052  -0.000000   0.000000
     2  S   -0.009674  -0.007902  -0.011456   0.000104   0.000001   0.000000
     3  C   -0.005407   0.319170   0.333383  -0.015187  -0.000351   0.000037
     4  C   -0.000080   0.009160  -0.007751  -0.073982   0.016717  -0.001527
     5  C    0.000003   0.004100  -0.011717   0.450116  -0.072621   0.013858
     6  C   -0.000000  -0.000464   0.000505  -0.063366   0.456190  -0.058233
     7  C   -0.000000   0.000098   0.000074   0.014915  -0.073913   0.442000
     8  C    0.000001   0.000891  -0.000474  -0.001775   0.016145  -0.064901
     9  Br   0.000000  -0.000014   0.000004   0.000020  -0.000203   0.000115
    10  C   -0.000013  -0.005333   0.011780   0.015605  -0.002119   0.014025
    11  C    0.009237   0.007650   0.002963   0.000111  -0.000017  -0.000001
    12  N   -0.000585   0.008190   0.006004   0.000001   0.000000   0.000001
    13  H    0.557125   0.001849  -0.000209   0.000001  -0.000000  -0.000000
    14  H    0.001849   0.579122  -0.010729   0.000218   0.000006  -0.000001
    15  H   -0.000209  -0.010729   0.609042   0.005614  -0.000012  -0.000001
    16  H    0.000001   0.000218   0.005614   0.674513  -0.012676  -0.000257
    17  H   -0.000000   0.000006  -0.000012  -0.012676   0.663291  -0.012554
    18  H   -0.000000  -0.000001  -0.000001  -0.000257  -0.012554   0.647304
    19  H    0.000014   0.003480   0.000331  -0.000174   0.000019  -0.000215
    20  H   -0.000393  -0.000368  -0.000119  -0.000044   0.000019  -0.000001
    21  H   -0.000818  -0.000374   0.001012   0.000480   0.000006  -0.000000
    22  H   -0.000460  -0.000267  -0.000342  -0.000011   0.000001  -0.000000
    23  H    0.001262  -0.000540  -0.000444   0.000000   0.000000  -0.000000
              19         20         21         22         23
     1  N    0.000098   0.005444   0.007046   0.008126  -0.001050
     2  S   -0.002712  -0.009329  -0.010107  -0.003922  -0.010265
     3  C   -0.014708   0.001514   0.003529   0.007729   0.009465
     4  C   -0.057499   0.002970  -0.000839  -0.000481   0.000119
     5  C    0.014085  -0.003446   0.002080  -0.000043  -0.000001
     6  C   -0.002044   0.000061  -0.000032   0.000026  -0.000001
     7  C    0.013613   0.000491   0.000015  -0.000001  -0.000001
     8  C   -0.061323   0.000659  -0.000076  -0.000026  -0.000059
     9  Br   0.001043  -0.000012   0.000000   0.000000  -0.000001
    10  C    0.442767  -0.001955   0.000070  -0.000260  -0.000806
    11  C    0.001241   0.364359   0.353461   0.362948  -0.006127
    12  N    0.032801   0.002527   0.003820  -0.000267   0.328725
    13  H    0.000014  -0.000393  -0.000818  -0.000460   0.001262
    14  H    0.003480  -0.000368  -0.000374  -0.000267  -0.000540
    15  H    0.000331  -0.000119   0.001012  -0.000342  -0.000444
    16  H   -0.000174  -0.000044   0.000480  -0.000011   0.000000
    17  H    0.000019   0.000019   0.000006   0.000001   0.000000
    18  H   -0.000215  -0.000001  -0.000000  -0.000000  -0.000000
    19  H    0.593654   0.000074  -0.000100  -0.000053  -0.000552
    20  H    0.000074   0.559866  -0.013465  -0.008671  -0.000033
    21  H   -0.000100  -0.013465   0.582314  -0.006402  -0.000070
    22  H   -0.000053  -0.008671  -0.006402   0.551372   0.001812
    23  H   -0.000552  -0.000033  -0.000070   0.001812   0.553075
 Mulliken charges:
               1
     1  N   -0.437625
     2  S    0.350655
     3  C    0.039282
     4  C   -0.155700
     5  C   -0.002003
     6  C   -0.013162
     7  C    0.020541
     8  C   -0.067797
     9  Br  -0.032091
    10  C    0.055919
    11  C   -0.073525
    12  N   -0.437720
    13  H    0.122167
    14  H    0.090858
    15  H    0.062801
    16  H    0.005825
    17  H    0.022073
    18  H    0.020351
    19  H    0.036162
    20  H    0.099854
    21  H    0.078450
    22  H    0.089193
    23  H    0.125492
 Sum of Mulliken charges =  -0.00000
 Mulliken charges with hydrogens summed into heavy atoms:
               1
     1  N   -0.315458
     2  S    0.350655
     3  C    0.192941
     4  C   -0.155700
     5  C    0.003822
     6  C    0.008911
     7  C    0.040892
     8  C   -0.067797
     9  Br  -0.032091
    10  C    0.092080
    11  C    0.193973
    12  N   -0.312228
 Electronic spatial extent (au):  <R**2>=           3857.1263
 Charge=             -0.0000 electrons
 Dipole moment (field-independent basis, Debye):
    X=              0.6509    Y=              1.8956    Z=              0.3901  Tot=              2.0418
 Quadrupole moment (field-independent basis, Debye-Ang):
   XX=            -99.1750   YY=            -83.7423   ZZ=            -88.4385
   XY=             -2.9634   XZ=             -2.6671   YZ=              0.9256
 Traceless Quadrupole moment (field-independent basis, Debye-Ang):
   XX=             -8.7231   YY=              6.7096   ZZ=              2.0134
   XY=             -2.9634   XZ=             -2.6671   YZ=              0.9256
 Octapole moment (field-independent basis, Debye-Ang**2):
  XXX=           -136.5974  YYY=            -28.6670  ZZZ=              5.2839  XYY=            -16.4277
  XXY=            -21.7861  XXZ=             -6.4402  XZZ=            -11.0566  YZZ=            -16.8973
  YYZ=              8.5625  XYZ=             -2.4381
 Hexadecapole moment (field-independent basis, Debye-Ang**3):
 XXXX=          -3554.2793 YYYY=           -901.3824 ZZZZ=           -318.8301 XXXY=             13.4677
 XXXZ=            -93.2731 YYYX=             43.7855 YYYZ=              1.5541 ZZZX=             -0.5367
 ZZZY=             -0.3951 XXYY=           -614.9358 XXZZ=           -562.5669 YYZZ=           -229.7246
 XXYZ=             23.5310 YYXZ=            -10.0349 ZZXY=             20.2998
 N-N= 1.096715538620D+03 E-N=-1.026510466750D+04  KE= 3.384205816850D+03
   1 Symmetry operations used in ECPInt.
 ECPInt:  NShTT=    6441 NPrTT=   25202 LenC2=    6146 LenP2D=   17656.
 LDataN:  DoStor=T MaxTD1= 5 Len=  102
 Calling FoFJK, ICntrl=      2127 FMM=F ISym2X=0 I1Cent= 0 IOpClX= 0 NMat=1 NMatS=1 NMatT=0.
 ***** Axes restored to original set *****
 -------------------------------------------------------------------
 Center     Atomic                   Forces (Hartrees/Bohr)
 Number     Number              X              Y              Z
 -------------------------------------------------------------------
      1        7          -0.003994857    0.000035146   -0.019115503
      2       16          -0.005990752    0.000010701   -0.003806699
      3        6           0.004256317   -0.014557436   -0.005359759
      4        6           0.001211908    0.004391415    0.000963806
      5        6          -0.000970472    0.000150758    0.001302073
      6        6          -0.000353604   -0.000370735    0.000074543
      7        6           0.000911542   -0.000318494   -0.000388310
      8        6           0.009639491   -0.006639015    0.007157371
      9       35          -0.003814535    0.002867396   -0.002866390
     10        6           0.002889024    0.001164171    0.001580414
     11        6          -0.003079583    0.004586351    0.014368370
     12        7           0.012403845    0.012166538    0.007853088
     13        1           0.000446069    0.001367847    0.012945230
     14        1          -0.004008362   -0.001016580    0.007604604
     15        1          -0.005744024    0.002395404   -0.004276258
     16        1          -0.006683204    0.004521474   -0.004817682
     17        1           0.002473829    0.005066383   -0.007509970
     18        1           0.008605436    0.000200732   -0.002326581
     19        1          -0.001941739   -0.005191044    0.006585930
     20        1           0.009224304    0.001043792    0.000612163
     21        1          -0.004249357    0.007288868   -0.007214802
     22        1          -0.005057906   -0.008940373    0.000966137
     23        1          -0.006173370   -0.010223297   -0.004331774
 -------------------------------------------------------------------
 Cartesian Forces:  Max     0.019115503 RMS     0.006205958

 GradGradGradGradGradGradGradGradGradGradGradGradGradGradGradGradGradGrad
 Berny optimization.
 FormGI is forming the generalized inverse of G from B-inverse, IUseBI=4.
 Internal  Forces:  Max     0.018019758 RMS     0.004913596
 Search for a local minimum.
 Step number   1 out of a maximum of  125
 All quantities printed in internal units (Hartrees-Bohrs-Radians)
 Mixed Optimization -- RFO/linear search
 Second derivative matrix not updated -- first step.
 ITU=  0
     Eigenvalues ---    0.00230   0.00230   0.01005   0.01722   0.02210
     Eigenvalues ---    0.02246   0.02269   0.02286   0.02291   0.02301
     Eigenvalues ---    0.02301   0.02314   0.03477   0.03481   0.04520
     Eigenvalues ---    0.05781   0.05864   0.06121   0.06444   0.07454
     Eigenvalues ---    0.08236   0.08821   0.12553   0.14684   0.15989
     Eigenvalues ---    0.16000   0.16000   0.16000   0.16000   0.16000
     Eigenvalues ---    0.16000   0.16000   0.16000   0.17999   0.18933
     Eigenvalues ---    0.21893   0.22000   0.22066   0.23475   0.23501
     Eigenvalues ---    0.24121   0.24984   0.25000   0.34346   0.35104
     Eigenvalues ---    0.35127   0.35620   0.35651   0.35800   0.35970
     Eigenvalues ---    0.36062   0.36145   0.36161   0.43266   0.43558
     Eigenvalues ---    0.46525   0.46595   0.47318   0.47691   0.48306
     Eigenvalues ---    0.48695   0.66116   0.66206
 RFO step:  Lambda=-1.00479980D-02 EMin= 2.30000000D-03
 Linear search not attempted -- first point.
 Iteration  1 RMS(Cart)=  0.09336922 RMS(Int)=  0.00175846
 Iteration  2 RMS(Cart)=  0.00317999 RMS(Int)=  0.00028714
 Iteration  3 RMS(Cart)=  0.00000610 RMS(Int)=  0.00028712
 Iteration  4 RMS(Cart)=  0.00000000 RMS(Int)=  0.00028712
 Variable       Old X    -DE/DX   Delta X   Delta X   Delta X     New X
                                 (Linear)    (Quad)   (Total)
    R1        2.90105   0.00411   0.00000   0.00613   0.00613   2.90718
    R2        1.90244   0.01071   0.00000   0.02254   0.02254   1.92498
    R3        3.51534  -0.00490   0.00000  -0.02139  -0.02139   3.49395
    R4        3.45196  -0.00978   0.00000  -0.03894  -0.03894   3.41302
    R5        2.90043   0.00464   0.00000   0.00691   0.00691   2.90734
    R6        2.80050   0.01195   0.00000   0.03381   0.03381   2.83431
    R7        2.05507   0.00779   0.00000   0.02156   0.02156   2.07663
    R8        2.05469   0.00715   0.00000   0.01978   0.01978   2.07446
    R9        2.62992   0.00815   0.00000   0.01692   0.01692   2.64684
   R10        2.63037   0.01122   0.00000   0.02344   0.02344   2.65381
   R11        2.61593   0.00927   0.00000   0.01867   0.01866   2.63460
   R12        2.04128   0.00939   0.00000   0.02541   0.02541   2.06668
   R13        2.61476   0.00913   0.00000   0.01841   0.01840   2.63316
   R14        2.03985   0.00939   0.00000   0.02533   0.02533   2.06518
   R15        2.61846   0.00880   0.00000   0.01799   0.01799   2.63646
   R16        2.03856   0.00891   0.00000   0.02400   0.02400   2.06256
   R17        3.60029  -0.00556   0.00000  -0.02928  -0.02928   3.57102
   R18        2.60987   0.00916   0.00000   0.01847   0.01847   2.62834
   R19        2.03831   0.00859   0.00000   0.02310   0.02310   2.06141
   R20        2.04630   0.00922   0.00000   0.02516   0.02516   2.07146
   R21        2.04395   0.01104   0.00000   0.03000   0.03000   2.07395
   R22        2.04679   0.00951   0.00000   0.02596   0.02596   2.07276
   R23        1.90166   0.01077   0.00000   0.02262   0.02262   1.92428
    A1        2.00055  -0.01318   0.00000  -0.07748  -0.07748   1.92307
    A2        1.97324  -0.00037   0.00000  -0.00289  -0.00288   1.97037
    A3        1.75956  -0.00094   0.00000  -0.00417  -0.00418   1.75538
    A4        2.16867   0.00207   0.00000   0.01745   0.01746   2.18613
    A5        1.75145   0.00097   0.00000  -0.00030  -0.00033   1.75112
    A6        1.76775  -0.00136   0.00000  -0.00969  -0.00969   1.75806
    A7        2.00672  -0.00049   0.00000  -0.00364  -0.00367   2.00304
    A8        1.93664   0.01802   0.00000   0.08190   0.08177   2.01841
    A9        1.81207  -0.00736   0.00000  -0.03326  -0.03473   1.77734
   A10        1.84978  -0.00771   0.00000  -0.04376  -0.04400   1.80578
   A11        1.95489  -0.00154   0.00000   0.01394   0.01407   1.96897
   A12        1.97161  -0.00394   0.00000  -0.01351  -0.01254   1.95907
   A13        1.92947   0.00230   0.00000  -0.00845  -0.00969   1.91977
   A14        2.11796  -0.00526   0.00000  -0.02008  -0.02013   2.09782
   A15        2.08373   0.00605   0.00000   0.02344   0.02339   2.10713
   A16        2.08098  -0.00077   0.00000  -0.00282  -0.00286   2.07812
   A17        2.10389   0.00074   0.00000   0.00280   0.00279   2.10667
   A18        2.08903  -0.00060   0.00000  -0.00276  -0.00276   2.08626
   A19        2.09025  -0.00013   0.00000   0.00000  -0.00000   2.09025
   A20        2.10245   0.00013   0.00000   0.00014   0.00013   2.10258
   A21        2.09430  -0.00006   0.00000  -0.00006  -0.00005   2.09424
   A22        2.08644  -0.00007   0.00000  -0.00009  -0.00008   2.08635
   A23        2.07076  -0.00039   0.00000  -0.00172  -0.00174   2.06903
   A24        2.11069   0.00038   0.00000   0.00196   0.00196   2.11265
   A25        2.10173   0.00001   0.00000  -0.00024  -0.00023   2.10150
   A26        2.07922  -0.00036   0.00000  -0.00153  -0.00152   2.07769
   A27        2.12411   0.00052   0.00000   0.00229   0.00229   2.12639
   A28        2.07986  -0.00016   0.00000  -0.00076  -0.00076   2.07910
   A29        2.08415  -0.00022   0.00000  -0.00063  -0.00064   2.08351
   A30        2.08218   0.00060   0.00000   0.00309   0.00307   2.08525
   A31        2.11625  -0.00039   0.00000  -0.00270  -0.00270   2.11355
   A32        1.90513  -0.00103   0.00000  -0.00549  -0.00565   1.89948
   A33        1.87385   0.00290   0.00000   0.01928   0.01933   1.89318
   A34        1.87333  -0.00619   0.00000  -0.03917  -0.03925   1.83408
   A35        1.95215  -0.00014   0.00000   0.00481   0.00477   1.95691
   A36        1.93768   0.00286   0.00000   0.01230   0.01197   1.94965
   A37        1.91884   0.00130   0.00000   0.00643   0.00661   1.92544
   A38        1.99772  -0.01136   0.00000  -0.06679  -0.06679   1.93093
    D1       -1.55854   0.00186   0.00000   0.03295   0.03296  -1.52558
    D2        2.86993   0.00134   0.00000   0.03631   0.03632   2.90625
    D3        0.59128   0.00132   0.00000   0.03152   0.03151   0.62279
    D4       -2.72685   0.00142   0.00000   0.01992   0.01999  -2.70686
    D5        1.45324  -0.00162   0.00000  -0.01889  -0.01821   1.43503
    D6       -0.58043   0.00229   0.00000   0.02361   0.02288  -0.55756
    D7       -0.86698   0.00073   0.00000   0.01413   0.01419  -0.85279
    D8       -2.97008  -0.00231   0.00000  -0.02468  -0.02401  -2.99409
    D9        1.27943   0.00160   0.00000   0.01782   0.01708   1.29651
   D10        1.19780   0.00010   0.00000   0.00710   0.00716   1.20496
   D11       -0.90530  -0.00294   0.00000  -0.03171  -0.03104  -0.93633
   D12       -2.93897   0.00096   0.00000   0.01079   0.01005  -2.92892
   D13        3.11119  -0.00013   0.00000  -0.00323  -0.00330   3.10789
   D14        0.99188  -0.00111   0.00000  -0.01739  -0.01744   0.97444
   D15       -1.07039  -0.00090   0.00000  -0.01453  -0.01437  -1.08476
   D16        1.08453   0.00025   0.00000   0.00116   0.00108   1.08560
   D17       -1.03478  -0.00072   0.00000  -0.01300  -0.01306  -1.04784
   D18       -3.09706  -0.00052   0.00000  -0.01013  -0.00999  -3.10705
   D19       -0.79571   0.00146   0.00000   0.01375   0.01366  -0.78205
   D20       -2.91501   0.00048   0.00000  -0.00041  -0.00048  -2.91549
   D21        1.30589   0.00068   0.00000   0.00246   0.00259   1.30849
   D22        0.66191   0.00194   0.00000   0.04281   0.04284   0.70475
   D23        2.90031   0.00164   0.00000   0.04251   0.04248   2.94279
   D24       -1.51256   0.00184   0.00000   0.03556   0.03556  -1.47699
   D25        1.93143  -0.00053   0.00000  -0.01804  -0.01843   1.91300
   D26       -1.17526  -0.00102   0.00000  -0.03622  -0.03663  -1.21189
   D27       -2.33556   0.00074   0.00000   0.00090   0.00155  -2.33401
   D28        0.84093   0.00025   0.00000  -0.01728  -0.01665   0.82428
   D29       -0.14299  -0.00057   0.00000  -0.01002  -0.01025  -0.15324
   D30        3.03349  -0.00106   0.00000  -0.02820  -0.02845   3.00505
   D31       -3.11219  -0.00015   0.00000  -0.00328  -0.00306  -3.11524
   D32        0.03634  -0.00035   0.00000  -0.00999  -0.00980   0.02654
   D33       -0.00543   0.00047   0.00000   0.01539   0.01536   0.00993
   D34       -3.14009   0.00027   0.00000   0.00868   0.00861  -3.13148
   D35        3.10648   0.00005   0.00000   0.00579   0.00600   3.11247
   D36        0.00191   0.00031   0.00000   0.01324   0.01342   0.01533
   D37       -0.00097  -0.00033   0.00000  -0.01164  -0.01164  -0.01261
   D38       -3.10553  -0.00007   0.00000  -0.00419  -0.00422  -3.10975
   D39        0.00637  -0.00026   0.00000  -0.00800  -0.00797  -0.00160
   D40       -3.13600  -0.00015   0.00000  -0.00489  -0.00490  -3.14090
   D41        3.14102  -0.00006   0.00000  -0.00129  -0.00122   3.13980
   D42       -0.00135   0.00005   0.00000   0.00181   0.00185   0.00050
   D43       -0.00082  -0.00009   0.00000  -0.00310  -0.00313  -0.00395
   D44        3.14016   0.00007   0.00000   0.00204   0.00202  -3.14100
   D45        3.14155  -0.00020   0.00000  -0.00620  -0.00619   3.13536
   D46       -0.00065  -0.00004   0.00000  -0.00105  -0.00103  -0.00169
   D47        3.13630   0.00018   0.00000   0.00598   0.00600  -3.14088
   D48       -0.00572   0.00023   0.00000   0.00683   0.00681   0.00109
   D49       -0.00468   0.00002   0.00000   0.00086   0.00088  -0.00380
   D50        3.13648   0.00007   0.00000   0.00171   0.00169   3.13817
   D51        0.00662  -0.00002   0.00000   0.00060   0.00064   0.00726
   D52        3.11044  -0.00026   0.00000  -0.00687  -0.00678   3.10366
   D53       -3.13541   0.00003   0.00000   0.00145   0.00144  -3.13396
   D54       -0.03159  -0.00021   0.00000  -0.00602  -0.00597  -0.03756
         Item               Value     Threshold  Converged?
 Maximum Force            0.018020     0.000450     NO 
 RMS     Force            0.004914     0.000300     NO 
 Maximum Displacement     0.336442     0.001800     NO 
 RMS     Displacement     0.093320     0.001200     NO 
 Predicted change in Energy=-5.283691D-03
 GradGradGradGradGradGradGradGradGradGradGradGradGradGradGradGradGradGrad

                          Input orientation:                          
 ---------------------------------------------------------------------
 Center     Atomic      Atomic             Coordinates (Angstroms)
 Number     Number       Type             X           Y           Z
 ---------------------------------------------------------------------
      1          7           0       -4.495329   -0.689397   -0.359742
      2         16           0       -2.967635   -0.728693   -0.182753
      3          6           0       -2.230784    0.946414    0.081002
      4          6           0       -0.789866    1.090596   -0.309549
      5          6           0       -0.436642    1.852482   -1.430521
      6          6           0        0.896627    1.967962   -1.821372
      7          6           0        1.902304    1.327332   -1.100406
      8          6           0        1.544572    0.575456    0.019040
      9         35           0        2.897303   -0.298308    1.007787
     10          6           0        0.220632    0.451081    0.426710
     11          6           0       -2.445216   -1.048504   -1.881801
     12          7           0       -2.218105   -1.542833    0.886059
     13          1           0       -4.955618   -0.736786    0.547753
     14          1           0       -2.398176    1.099489    1.156242
     15          1           0       -2.886833    1.608432   -0.499002
     16          1           0       -1.216497    2.361573   -2.003851
     17          1           0        1.159199    2.565982   -2.697580
     18          1           0        2.949107    1.411789   -1.397646
     19          1           0       -0.049369   -0.168292    1.283116
     20          1           0       -1.349818   -1.069415   -1.917185
     21          1           0       -2.864748   -0.266574   -2.527598
     22          1           0       -2.877977   -2.024142   -2.134665
     23          1           0       -2.643477   -2.460763    1.001687
 ---------------------------------------------------------------------
                    Distance matrix (angstroms):
                    1          2          3          4          5
     1  N    0.000000
     2  S    1.538414   0.000000
     3  C    2.828125   1.848918   0.000000
     4  C    4.111125   2.840522   1.499855   0.000000
     5  C    4.907204   3.824306   2.514878   1.400648   0.000000
     6  C    6.186364   4.988942   3.800433   2.428917   1.394169
     7  C    6.748740   5.365225   4.315466   2.815898   2.419800
     8  C    6.182534   4.701227   3.794043   2.413077   2.767170
     9  Br   7.528219   6.000009   5.357755   4.154472   4.656870
    10  C    4.915229   3.453745   2.524739   1.404337   2.417693
    11  C    2.578484   1.806091   2.806827   3.128564   3.557211
    12  N    2.732420   1.538499   2.616224   3.225569   4.479768
    13  H    1.018656   2.117966   3.236625   4.629016   5.571268
    14  H    3.145849   2.336544   1.098905   2.176071   3.332561
    15  H    2.808321   2.359808   1.097758   2.168252   2.632626
    16  H    4.770980   3.991569   2.716260   2.160568   1.093642
    17  H    6.930849   5.848932   4.672848   3.417354   2.158988
    18  H    7.804604   6.408234   5.406870   3.907306   3.414467
    19  H    4.768342   3.313472   2.728776   2.160953   3.405486
    20  H    3.530479   2.396181   2.971939   2.750216   3.099713
    21  H    2.745391   2.392162   2.945853   3.326678   3.404362
    22  H    2.747312   2.344395   3.761947   4.170473   4.635100
    23  H    2.901823   2.123215   3.553425   4.215135   5.421240
                    6          7          8          9         10
     6  C    0.000000
     7  C    1.393408   0.000000
     8  C    2.397086   1.395152   0.000000
     9  Br   4.140389   2.842043   1.889700   0.000000
    10  C    2.794954   2.434732   1.390856   2.839683   0.000000
    11  C    4.502293   5.015587   4.708381   6.120051   3.832065
    12  N    5.418249   5.400154   4.404158   5.266028   3.183415
    13  H    6.868566   7.349022   6.652367   7.878595   5.312179
    14  H    4.525059   4.861945   4.136798   5.478866   2.794782
    15  H    4.023990   4.834929   4.579602   6.273938   3.442781
    16  H    2.157202   3.407754   3.860802   5.750502   3.409243
    17  H    1.092846   2.153468   3.389798   4.995489   3.887789
    18  H    2.168305   1.091458   2.163139   2.951817   3.419914
    19  H    3.885400   3.424485   2.166032   2.962361   1.090851
    20  H    3.779068   4.121629   3.851241   5.214221   3.205006
    21  H    4.431688   5.225151   5.161054   6.760266   4.331574
    22  H    5.502971   5.929010   5.563748   6.797600   4.721096
    23  H    6.333688   6.279537   5.265356   5.947814   4.124628
                   11         12         13         14         15
    11  C    0.000000
    12  N    2.820813   0.000000
    13  H    3.507424   2.873699   0.000000
    14  H    3.720994   2.662196   3.206661   0.000000
    15  H    3.027617   3.506574   3.297820   1.799345   0.000000
    16  H    3.626744   4.959756   5.485576   3.602140   2.371036
    17  H    5.169315   6.413346   7.670167   5.445867   4.703299
    18  H    5.948628   6.375357   8.419361   5.934081   5.907996
    19  H    4.065902   2.598160   4.993519   2.672127   3.792611
    20  H    1.096170   2.972579   4.380452   3.905017   3.397723
    21  H    1.097486   3.701356   3.748416   3.956577   2.762488
    22  H    1.096855   3.129195   3.628946   4.562603   3.983851
    23  H    3.216875   1.018286   2.919615   3.572037   4.343919
                   16         17         18         19         20
    16  H    0.000000
    17  H    2.483339   0.000000
    18  H    4.315301   2.495147   0.000000
    19  H    4.308892   4.978236   4.321342   0.000000
    20  H    3.434671   4.485565   4.990696   3.570030   0.000000
    21  H    3.146141   4.923863   6.155859   4.738941   1.819938
    22  H    4.691708   6.138803   6.804684   4.808995   1.814958
    23  H    5.858707   7.308426   7.213214   3.473330   3.482703
                   21         22         23
    21  H    0.000000
    22  H    1.801004   0.000000
    23  H    4.161644   3.175269   0.000000
 Stoichiometry    C8H11BrN2S
 Framework group  C1[X(C8H11BrN2S)]
 Deg. of freedom    63
 Full point group                 C1      NOp   1
 Largest Abelian subgroup         C1      NOp   1
 Largest concise Abelian subgroup C1      NOp   1
                         Standard orientation:                         
 ---------------------------------------------------------------------
 Center     Atomic      Atomic             Coordinates (Angstroms)
 Number     Number       Type             X           Y           Z
 ---------------------------------------------------------------------
      1          7           0        4.393683   -0.473530   -0.152527
      2         16           0        2.872352   -0.581609    0.048942
      3          6           0        1.914729    0.488089   -1.116048
      4          6           0        0.549794    0.897630   -0.648296
      5          6           0        0.298681    2.227163   -0.286217
      6          6           0       -0.957418    2.612965    0.179700
      7          6           0       -1.986694    1.680375    0.291289
      8          6           0       -1.732065    0.359102   -0.077292
      9         35           0       -3.118245   -0.917052    0.067291
     10          6           0       -0.486825   -0.044395   -0.547450
     11          6           0        2.673989    0.351285    1.582671
     12          7           0        2.057362   -1.884531   -0.022908
     13          1           0        4.702337   -1.136761   -0.861411
     14          1           0        1.885992   -0.134104   -2.021389
     15          1           0        2.575974    1.350032   -1.273789
     16          1           0        1.097742    2.969054   -0.370789
     17          1           0       -1.140733    3.653660    0.458378
     18          1           0       -2.973762    1.972186    0.654362
     19          1           0       -0.290550   -1.087513   -0.799120
     20          1           0        1.608756    0.389306    1.838448
     21          1           0        3.100398    1.352212    1.438463
     22          1           0        3.251430   -0.204458    2.331539
     23          1           0        2.560897   -2.647919    0.424973
 ---------------------------------------------------------------------
 Rotational constants (GHZ):           1.1621664           0.2912932           0.2504299
 Standard basis: def2SVP (5D, 7F)
 There are   259 symmetry adapted cartesian basis functions of A   symmetry.
 There are   245 symmetry adapted basis functions of A   symmetry.
   245 basis functions,   444 primitive gaussians,   259 cartesian basis functions
    62 alpha electrons       62 beta electrons
       nuclear repulsion energy      1085.2760544326 Hartrees.
 NAtoms=   23 NActive=   23 NUniq=   23 SFac= 1.00D+00 NAtFMM=   60 NAOKFM=F Big=F
 Integral buffers will be    131072 words long.
 Raffenetti 2 integral format.
 Two-electron integral symmetry is turned on.
 Nuclear repulsion after empirical dispersion term =     1085.2482789209 Hartrees.
 One-electron integrals computed using PRISM.
   1 Symmetry operations used in ECPInt.
 ECPInt:  NShTT=    6441 NPrTT=   25202 LenC2=    6121 LenP2D=   17523.
 LDataN:  DoStor=T MaxTD1= 4 Len=   56
 NBasis=   245 RedAO= T EigKep=  2.78D-04  NBF=   245
 NBsUse=   245 1.00D-06 EigRej= -1.00D+00 NBFU=   245
 Initial guess from the checkpoint file:  "SDI2997_3.chk"
 B after Tr=    -0.000000    0.000000   -0.000000
         Rot=    0.999981    0.002258   -0.002730   -0.004981 Ang=   0.70 deg.
 ExpMin= 1.22D-01 ExpMax= 1.13D+05 ExpMxC= 1.70D+04 IAcc=3 IRadAn=         5 AccDes= 0.00D+00
 Harris functional with IExCor= 1009 and IRadAn=       5 diagonalized for initial guess.
 HarFok:  IExCor= 1009 AccDes= 0.00D+00 IRadAn=         5 IDoV= 1 UseB2=F ITyADJ=14
 ICtDFT=  3500011 ScaDFX=  1.000000  1.000000  1.000000  1.000000
 FoFCou: FMM=F IPFlag=           0 FMFlag=      100000 FMFlg1=           0
         NFxFlg=           0 DoJE=T BraDBF=F KetDBF=T FulRan=T
         wScrn=  0.000000 ICntrl=       500 IOpCl=  0 I1Cent=   200000004 NGrid=           0
         NMat0=    1 NMatS0=      1 NMatT0=    0 NMatD0=    1 NMtDS0=    0 NMtDT0=    0
 Petite list used in FoFCou.
 Requested convergence on RMS density matrix=1.00D-08 within 128 cycles.
 Requested convergence on MAX density matrix=1.00D-06.
 Requested convergence on             energy=1.00D-06.
 No special actions if energy rises.
 Integral accuracy reduced to 1.0D-05 until final iterations.
 Initial convergence to 1.0D-05 achieved.  Increase integral accuracy.
 SCF Done:  E(RPBE1PBE) =  -3391.55192273     A.U. after   12 cycles
            NFock= 12  Conv=0.81D-08     -V/T= 2.0023
   1 Symmetry operations used in ECPInt.
 ECPInt:  NShTT=    6441 NPrTT=   25202 LenC2=    6121 LenP2D=   17523.
 LDataN:  DoStor=T MaxTD1= 5 Len=  102
 Calling FoFJK, ICntrl=      2127 FMM=F ISym2X=0 I1Cent= 0 IOpClX= 0 NMat=1 NMatS=1 NMatT=0.
 ***** Axes restored to original set *****
 -------------------------------------------------------------------
 Center     Atomic                   Forces (Hartrees/Bohr)
 Number     Number              X              Y              Z
 -------------------------------------------------------------------
      1        7          -0.007993654   -0.001779095   -0.003967539
      2       16           0.006861967    0.007171592   -0.007258151
      3        6           0.002433318   -0.004353486   -0.001701456
      4        6          -0.000190149   -0.000021778    0.001596873
      5        6          -0.000338704   -0.000523714   -0.000088643
      6        6           0.000080287   -0.000357311    0.000671352
      7        6          -0.001794928    0.000975560   -0.000639124
      8        6           0.001181467   -0.000831158    0.001225417
      9       35          -0.000216270    0.000151736   -0.000087714
     10        6          -0.002967502    0.000545715   -0.002219273
     11        6          -0.001425093    0.000763199    0.002988922
     12        7           0.005082988   -0.000060060    0.008536598
     13        1           0.000876967    0.002043970    0.003633361
     14        1          -0.000640079    0.000258886    0.000303198
     15        1          -0.000140238    0.000643589    0.000147226
     16        1           0.000199908   -0.000182155    0.000166738
     17        1          -0.000148296   -0.000133071    0.000221930
     18        1          -0.000302633   -0.000216669    0.000218507
     19        1          -0.000114850   -0.000415095    0.000060175
     20        1           0.000032391    0.000200814    0.000192856
     21        1           0.000332363   -0.000859923   -0.000730738
     22        1          -0.000011858   -0.000122714   -0.000333382
     23        1          -0.000797403   -0.002898831   -0.002937135
 -------------------------------------------------------------------
 Cartesian Forces:  Max     0.008536598 RMS     0.002516241

 GradGradGradGradGradGradGradGradGradGradGradGradGradGradGradGradGradGrad
 Berny optimization.
 Using GEDIIS/GDIIS optimizer.
 FormGI is forming the generalized inverse of G from B-inverse, IUseBI=4.
 Internal  Forces:  Max     0.007543514 RMS     0.001550725
 Search for a local minimum.
 Step number   2 out of a maximum of  125
 All quantities printed in internal units (Hartrees-Bohrs-Radians)
 Mixed Optimization -- RFO/linear search
 Update second derivatives using D2CorX and points    1    2
 DE= -5.26D-03 DEPred=-5.28D-03 R= 9.95D-01
 TightC=F SS=  1.41D+00  RLast= 2.32D-01 DXNew= 5.0454D-01 6.9569D-01
 Trust test= 9.95D-01 RLast= 2.32D-01 DXMaxT set to 5.05D-01
 ITU=  1  0
 Use linear search instead of GDIIS.
     Eigenvalues ---    0.00230   0.00230   0.01016   0.01729   0.02212
     Eigenvalues ---    0.02246   0.02270   0.02286   0.02291   0.02301
     Eigenvalues ---    0.02302   0.02314   0.03274   0.03478   0.04121
     Eigenvalues ---    0.05634   0.05855   0.06291   0.06360   0.07591
     Eigenvalues ---    0.08286   0.09498   0.12961   0.13972   0.14711
     Eigenvalues ---    0.15984   0.16000   0.16000   0.16000   0.16000
     Eigenvalues ---    0.16000   0.16000   0.16111   0.18000   0.18844
     Eigenvalues ---    0.21230   0.22000   0.23073   0.23497   0.23753
     Eigenvalues ---    0.24005   0.25000   0.25687   0.34424   0.35116
     Eigenvalues ---    0.35224   0.35632   0.35703   0.35885   0.36016
     Eigenvalues ---    0.36108   0.36145   0.37670   0.43563   0.43600
     Eigenvalues ---    0.45646   0.46562   0.47324   0.48301   0.48339
     Eigenvalues ---    0.50131   0.66158   0.67194
 RFO step:  Lambda=-1.70680839D-03 EMin= 2.29720109D-03
 Quartic linear search produced a step of  0.07222.
 Iteration  1 RMS(Cart)=  0.06394915 RMS(Int)=  0.00157791
 Iteration  2 RMS(Cart)=  0.00219227 RMS(Int)=  0.00002803
 Iteration  3 RMS(Cart)=  0.00000353 RMS(Int)=  0.00002787
 Iteration  4 RMS(Cart)=  0.00000000 RMS(Int)=  0.00002787
 Variable       Old X    -DE/DX   Delta X   Delta X   Delta X     New X
                                 (Linear)    (Quad)   (Total)
    R1        2.90718   0.00711   0.00044   0.01206   0.01250   2.91968
    R2        1.92498   0.00275   0.00163   0.00842   0.01004   1.93502
    R3        3.49395  -0.00524  -0.00155  -0.02741  -0.02895   3.46499
    R4        3.41302  -0.00230  -0.00281  -0.01379  -0.01660   3.39641
    R5        2.90734   0.00754   0.00050   0.01281   0.01331   2.92065
    R6        2.83431  -0.00482   0.00244  -0.01175  -0.00931   2.82501
    R7        2.07663   0.00043   0.00156   0.00334   0.00489   2.08152
    R8        2.07446   0.00039   0.00143   0.00306   0.00449   2.07895
    R9        2.64684  -0.00145   0.00122  -0.00182  -0.00060   2.64625
   R10        2.65381  -0.00300   0.00169  -0.00471  -0.00302   2.65079
   R11        2.63460  -0.00120   0.00135  -0.00089   0.00046   2.63506
   R12        2.06668  -0.00031   0.00183   0.00146   0.00330   2.06998
   R13        2.63316  -0.00089   0.00133  -0.00010   0.00123   2.63439
   R14        2.06518  -0.00029   0.00183   0.00154   0.00337   2.06855
   R15        2.63646   0.00019   0.00130   0.00223   0.00353   2.63998
   R16        2.06256  -0.00037   0.00173   0.00118   0.00291   2.06547
   R17        3.57102  -0.00027  -0.00211  -0.00434  -0.00646   3.56456
   R18        2.62834  -0.00044   0.00133   0.00078   0.00211   2.63045
   R19        2.06141   0.00031   0.00167   0.00309   0.00476   2.06617
   R20        2.07146   0.00002   0.00182   0.00244   0.00425   2.07571
   R21        2.07395  -0.00031   0.00217   0.00191   0.00407   2.07802
   R22        2.07276   0.00019   0.00187   0.00302   0.00489   2.07765
   R23        1.92428   0.00261   0.00163   0.00811   0.00974   1.93403
    A1        1.92307  -0.00448  -0.00560  -0.03690  -0.04250   1.88057
    A2        1.97037  -0.00031  -0.00021  -0.00179  -0.00210   1.96827
    A3        1.75538   0.00072  -0.00030   0.01055   0.01024   1.76561
    A4        2.18613  -0.00008   0.00126  -0.00317  -0.00193   2.18419
    A5        1.75112   0.00120  -0.00002   0.01043   0.01039   1.76152
    A6        1.75806  -0.00057  -0.00070  -0.00817  -0.00887   1.74919
    A7        2.00304  -0.00069  -0.00027  -0.00500  -0.00523   1.99781
    A8        2.01841  -0.00220   0.00591  -0.00261   0.00324   2.02166
    A9        1.77734   0.00010  -0.00251  -0.01070  -0.01331   1.76403
   A10        1.80578   0.00145  -0.00318   0.00998   0.00673   1.81251
   A11        1.96897   0.00055   0.00102  -0.00159  -0.00057   1.96840
   A12        1.95907   0.00062  -0.00091   0.00844   0.00755   1.96662
   A13        1.91977  -0.00053  -0.00070  -0.00458  -0.00534   1.91443
   A14        2.09782   0.00075  -0.00145   0.00145  -0.00002   2.09780
   A15        2.10713  -0.00235   0.00169  -0.00765  -0.00598   2.10115
   A16        2.07812   0.00159  -0.00021   0.00601   0.00575   2.08387
   A17        2.10667  -0.00084   0.00020  -0.00397  -0.00379   2.10288
   A18        2.08626   0.00039  -0.00020   0.00164   0.00145   2.08771
   A19        2.09025   0.00045  -0.00000   0.00232   0.00233   2.09258
   A20        2.10258  -0.00019   0.00001  -0.00055  -0.00055   2.10203
   A21        2.09424   0.00001  -0.00000  -0.00029  -0.00029   2.09395
   A22        2.08635   0.00018  -0.00001   0.00084   0.00084   2.08719
   A23        2.06903   0.00071  -0.00013   0.00386   0.00372   2.07274
   A24        2.11265  -0.00013   0.00014  -0.00035  -0.00021   2.11244
   A25        2.10150  -0.00057  -0.00002  -0.00348  -0.00349   2.09800
   A26        2.07769   0.00072  -0.00011   0.00278   0.00268   2.08037
   A27        2.12639  -0.00130   0.00017  -0.00504  -0.00489   2.12151
   A28        2.07910   0.00058  -0.00005   0.00225   0.00220   2.08130
   A29        2.08351   0.00003  -0.00005  -0.00012  -0.00019   2.08332
   A30        2.08525  -0.00003   0.00022   0.00030   0.00053   2.08578
   A31        2.11355   0.00000  -0.00020  -0.00007  -0.00026   2.11329
   A32        1.89948  -0.00068  -0.00041  -0.00527  -0.00570   1.89378
   A33        1.89318   0.00172   0.00140   0.01385   0.01526   1.90844
   A34        1.83408   0.00026  -0.00283  -0.00238  -0.00523   1.82885
   A35        1.95691  -0.00043   0.00034  -0.00156  -0.00122   1.95570
   A36        1.94965   0.00001   0.00086  -0.00026   0.00055   1.95020
   A37        1.92544  -0.00077   0.00048  -0.00394  -0.00343   1.92201
   A38        1.93093  -0.00373  -0.00482  -0.03096  -0.03579   1.89514
    D1       -1.52558   0.00234   0.00238   0.05475   0.05713  -1.46845
    D2        2.90625   0.00073   0.00262   0.03832   0.04096   2.94721
    D3        0.62279   0.00104   0.00228   0.03695   0.03922   0.66201
    D4       -2.70686  -0.00129   0.00144  -0.08887  -0.08741  -2.79427
    D5        1.43503  -0.00082  -0.00132  -0.07790  -0.07916   1.35587
    D6       -0.55756  -0.00077   0.00165  -0.07250  -0.07087  -0.62843
    D7       -0.85279   0.00002   0.00102  -0.07238  -0.07135  -0.92414
    D8       -2.99409   0.00049  -0.00173  -0.06141  -0.06310  -3.05719
    D9        1.29651   0.00054   0.00123  -0.05601  -0.05481   1.24170
   D10        1.20496  -0.00051   0.00052  -0.07695  -0.07646   1.12850
   D11       -0.93633  -0.00005  -0.00224  -0.06598  -0.06821  -1.00454
   D12       -2.92892   0.00001   0.00073  -0.06058  -0.05992  -2.98884
   D13        3.10789   0.00010  -0.00024  -0.02060  -0.02082   3.08707
   D14        0.97444  -0.00002  -0.00126  -0.02398  -0.02522   0.94923
   D15       -1.08476  -0.00010  -0.00104  -0.02487  -0.02585  -1.11061
   D16        1.08560  -0.00015   0.00008  -0.02488  -0.02485   1.06075
   D17       -1.04784  -0.00026  -0.00094  -0.02827  -0.02925  -1.07709
   D18       -3.10705  -0.00034  -0.00072  -0.02915  -0.02988  -3.13693
   D19       -0.78205   0.00009   0.00099  -0.01944  -0.01847  -0.80051
   D20       -2.91549  -0.00003  -0.00003  -0.02282  -0.02286  -2.93836
   D21        1.30849  -0.00010   0.00019  -0.02371  -0.02350   1.28499
   D22        0.70475   0.00205   0.00309   0.05762   0.06072   0.76546
   D23        2.94279   0.00095   0.00307   0.04390   0.04695   2.98974
   D24       -1.47699   0.00179   0.00257   0.04983   0.05241  -1.42459
   D25        1.91300   0.00084  -0.00133   0.03585   0.03453   1.94753
   D26       -1.21189   0.00109  -0.00265   0.04943   0.04676  -1.16513
   D27       -2.33401  -0.00018   0.00011   0.01870   0.01888  -2.31514
   D28        0.82428   0.00007  -0.00120   0.03228   0.03111   0.85539
   D29       -0.15324   0.00003  -0.00074   0.01804   0.01728  -0.13596
   D30        3.00505   0.00029  -0.00205   0.03161   0.02951   3.03456
   D31       -3.11524  -0.00008  -0.00022  -0.00311  -0.00327  -3.11851
   D32        0.02654   0.00008  -0.00071   0.00378   0.00311   0.02965
   D33        0.00993  -0.00037   0.00111  -0.01659  -0.01549  -0.00556
   D34       -3.13148  -0.00021   0.00062  -0.00970  -0.00911  -3.14058
   D35        3.11247   0.00013   0.00043   0.00422   0.00468   3.11715
   D36        0.01533   0.00005   0.00097   0.00165   0.00265   0.01797
   D37       -0.01261   0.00039  -0.00084   0.01768   0.01686   0.00426
   D38       -3.10975   0.00031  -0.00030   0.01511   0.01483  -3.09492
   D39       -0.00160   0.00012  -0.00058   0.00513   0.00454   0.00294
   D40       -3.14090   0.00013  -0.00035   0.00553   0.00516  -3.13574
   D41        3.13980  -0.00004  -0.00009  -0.00178  -0.00186   3.13795
   D42        0.00050  -0.00004   0.00013  -0.00138  -0.00124  -0.00074
   D43       -0.00395   0.00012  -0.00023   0.00516   0.00491   0.00097
   D44       -3.14100  -0.00003   0.00015  -0.00108  -0.00094   3.14125
   D45        3.13536   0.00011  -0.00045   0.00476   0.00430   3.13967
   D46       -0.00169  -0.00003  -0.00007  -0.00148  -0.00155  -0.00324
   D47       -3.14088  -0.00011   0.00043  -0.00478  -0.00432   3.13798
   D48        0.00109  -0.00010   0.00049  -0.00385  -0.00335  -0.00226
   D49       -0.00380   0.00004   0.00006   0.00142   0.00149  -0.00231
   D50        3.13817   0.00005   0.00012   0.00236   0.00246   3.14063
   D51        0.00726  -0.00017   0.00005  -0.00770  -0.00762  -0.00037
   D52        3.10366  -0.00009  -0.00049  -0.00508  -0.00554   3.09812
   D53       -3.13396  -0.00015   0.00010  -0.00676  -0.00665  -3.14061
   D54       -0.03756  -0.00008  -0.00043  -0.00414  -0.00456  -0.04212
         Item               Value     Threshold  Converged?
 Maximum Force            0.007544     0.000450     NO 
 RMS     Force            0.001551     0.000300     NO 
 Maximum Displacement     0.241131     0.001800     NO 
 RMS     Displacement     0.063819     0.001200     NO 
 Predicted change in Energy=-9.319339D-04
 GradGradGradGradGradGradGradGradGradGradGradGradGradGradGradGradGradGrad

                          Input orientation:                          
 ---------------------------------------------------------------------
 Center     Atomic      Atomic             Coordinates (Angstroms)
 Number     Number       Type             X           Y           Z
 ---------------------------------------------------------------------
      1          7           0       -4.494278   -0.707956   -0.280326
      2         16           0       -2.951878   -0.723491   -0.191606
      3          6           0       -2.236920    0.950086    0.032107
      4          6           0       -0.793552    1.095424   -0.328972
      5          6           0       -0.419270    1.859522   -1.441177
      6          6           0        0.923184    1.976687   -1.799613
      7          6           0        1.911239    1.331575   -1.057336
      8          6           0        1.530032    0.567221    0.048154
      9         35           0        2.856322   -0.315758    1.057791
     10          6           0        0.194848    0.440801    0.420833
     11          6           0       -2.508395   -1.057737   -1.900966
     12          7           0       -2.128546   -1.514903    0.849783
     13          1           0       -4.861957   -0.710361    0.675354
[...]
 Alpha virt. eigenvalues --    1.65456   1.66399   1.67256   1.68187   1.69376
 Alpha virt. eigenvalues --    1.70048   1.70438   1.71886   1.73163   1.73450
 Alpha virt. eigenvalues --    1.75438   1.76474   1.77870   1.78757   1.79227
 Alpha virt. eigenvalues --    1.81456   1.83852   1.86344   1.87046   1.88594
 Alpha virt. eigenvalues --    1.88712   1.89282   1.93774   1.94668   1.95693
 Alpha virt. eigenvalues --    1.96147   1.97294   1.98116   2.00094   2.01409
 Alpha virt. eigenvalues --    2.02541   2.03712   2.04848   2.06354   2.07147
 Alpha virt. eigenvalues --    2.08689   2.10349   2.11716   2.12777   2.14035
 Alpha virt. eigenvalues --    2.16006   2.16364   2.17418   2.18011   2.19130
 Alpha virt. eigenvalues --    2.22748   2.23650   2.25977   2.27452   2.28185
 Alpha virt. eigenvalues --    2.33045   2.34294   2.35507   2.37622   2.39454
 Alpha virt. eigenvalues --    2.40543   2.43415   2.44088   2.45657   2.47149
 Alpha virt. eigenvalues --    2.48396   2.49908   2.51185   2.53437   2.54874
 Alpha virt. eigenvalues --    2.55792   2.57465   2.59051   2.60525   2.61461
 Alpha virt. eigenvalues --    2.63528   2.64344   2.65645   2.65963   2.67461
 Alpha virt. eigenvalues --    2.69013   2.69377   2.71420   2.72177   2.72894
 Alpha virt. eigenvalues --    2.73923   2.74954   2.76109   2.77222   2.78629
 Alpha virt. eigenvalues --    2.79508   2.81148   2.83203   2.84601   2.85414
 Alpha virt. eigenvalues --    2.86267   2.87396   2.89111   2.90881   2.92903
 Alpha virt. eigenvalues --    2.95626   2.97637   2.99765   3.00163   3.02460
 Alpha virt. eigenvalues --    3.02943   3.05941   3.08988   3.10239   3.10704
 Alpha virt. eigenvalues --    3.12231   3.13507   3.14109   3.15978   3.17038
 Alpha virt. eigenvalues --    3.18867   3.19203   3.21770   3.22419   3.23750
 Alpha virt. eigenvalues --    3.24018   3.24260   3.27003   3.29027   3.29596
 Alpha virt. eigenvalues --    3.30877   3.35792   3.36284   3.37461   3.38577
 Alpha virt. eigenvalues --    3.39376   3.40289   3.41266   3.43137   3.44136
 Alpha virt. eigenvalues --    3.44527   3.46860   3.48136   3.50580   3.51134
 Alpha virt. eigenvalues --    3.52029   3.54114   3.55921   3.56710   3.58933
 Alpha virt. eigenvalues --    3.61468   3.62246   3.63661   3.64924   3.70976
 Alpha virt. eigenvalues --    3.71645   3.73767   3.75017   3.79008   3.79785
 Alpha virt. eigenvalues --    3.82686   3.83424   3.87747   3.90691   3.94536
 Alpha virt. eigenvalues --    3.96664   3.98765   4.03362   4.03517   4.04494
 Alpha virt. eigenvalues --    4.06641   4.08066   4.09819   4.13197   4.13461
 Alpha virt. eigenvalues --    4.15955   4.16912   4.18350   4.19263   4.19534
 Alpha virt. eigenvalues --    4.20728   4.22625   4.23243   4.24083   4.24975
 Alpha virt. eigenvalues --    4.26577   4.28856   4.30049   4.30269   4.32374
 Alpha virt. eigenvalues --    4.35177   4.36696   4.37315   4.42190   4.44439
 Alpha virt. eigenvalues --    4.46483   4.48618   4.50943   4.54274   4.58421
 Alpha virt. eigenvalues --    4.60565   4.64273   4.65722   4.66955   4.69496
 Alpha virt. eigenvalues --    4.70325   4.73113   4.76467   4.77325   4.77980
 Alpha virt. eigenvalues --    4.83848   4.89600   4.91809   5.00425   5.02027
 Alpha virt. eigenvalues --    5.08097   5.11779   5.13865   5.16196   5.18576
 Alpha virt. eigenvalues --    5.19757   5.22316   5.23385   5.36571   5.41092
 Alpha virt. eigenvalues --    5.44247   5.55080   5.57991   5.60793   7.79799
 Alpha virt. eigenvalues --    9.41503   9.47435   9.59896  21.54313  22.09105
 Alpha virt. eigenvalues --   22.33043  22.53962  22.69445  22.72659  22.79817
 Alpha virt. eigenvalues --   22.92045  23.23731  31.85738  31.91905
          Condensed to atoms (all electrons):
               1          2          3          4          5          6
     1  N    6.918583   0.513981  -0.073724   0.012965   0.000549  -0.000075
     2  S    0.513981  14.137301   0.232470  -0.009694   0.003178  -0.001118
     3  C   -0.073724   0.232470   5.606392  -0.036804  -0.041015   0.002418
     4  C    0.012965  -0.009694  -0.036804   5.608354   0.271053   0.108640
     5  C    0.000549   0.003178  -0.041015   0.271053   5.132646   0.389663
     6  C   -0.000075  -0.001118   0.002418   0.108640   0.389663   4.984273
     7  C    0.000030   0.001149   0.005122  -0.171890   0.082576   0.354738
     8  C   -0.000132  -0.002177   0.002311   0.133981  -0.136150   0.105799
     9  Br   0.000000   0.000081  -0.001343   0.013429   0.000474   0.015731
    10  C    0.001306   0.008929  -0.076027   0.196296   0.080296  -0.157210
    11  C   -0.082455   0.271174  -0.073537  -0.008782   0.000907  -0.000977
    12  N   -0.076705   0.483773  -0.082409  -0.042737   0.005170  -0.000908
    13  H    0.309037  -0.019290  -0.007106  -0.000001   0.000001  -0.000001
    14  H    0.002513  -0.016385   0.342552  -0.000103   0.000779  -0.000705
    15  H    0.014286  -0.018716   0.383479  -0.043378  -0.004149   0.001413
    16  H    0.000050  -0.000237  -0.004578  -0.071460   0.431182  -0.046795
    17  H   -0.000000   0.000003  -0.000724   0.013808  -0.054194   0.427397
    18  H    0.000000   0.000006   0.000152  -0.003858   0.011535  -0.061708
    19  H    0.000514   0.001915   0.000441  -0.067657   0.014700  -0.005958
    20  H    0.005476  -0.017542   0.003399   0.001679  -0.005557   0.000645
    21  H    0.002610  -0.009872   0.003777  -0.001839   0.002491  -0.000078
    22  H    0.006270  -0.012983   0.008508  -0.000193   0.000028   0.000069
    23  H   -0.001972  -0.019852   0.013343   0.001447  -0.000208   0.000031
               7          8          9         10         11         12
     1  N    0.000030  -0.000132   0.000000   0.001306  -0.082455  -0.076705
     2  S    0.001149  -0.002177   0.000081   0.008929   0.271174   0.483773
     3  C    0.005122   0.002311  -0.001343  -0.076027  -0.073537  -0.082409
     4  C   -0.171890   0.133981   0.013429   0.196296  -0.008782  -0.042737
     5  C    0.082576  -0.136150   0.000474   0.080296   0.000907   0.005170
     6  C    0.354738   0.105799   0.015731  -0.157210  -0.000977  -0.000908
     7  C    5.133852   0.338550  -0.070599   0.088321   0.000384   0.001337
     8  C    0.338550   4.937669   0.323635   0.266715   0.000731  -0.007567
     9  Br  -0.070599   0.323635  34.884848  -0.076539   0.000011   0.000104
    10  C    0.088321   0.266715  -0.076539   5.427226   0.008298   0.018725
    11  C    0.000384   0.000731   0.000011   0.008298   5.154283  -0.046151
    12  N    0.001337  -0.007567   0.000104   0.018725  -0.046151   6.962611
    13  H   -0.000000   0.000018   0.000000   0.000212   0.013592  -0.001765
    14  H    0.000141   0.002243   0.000008  -0.005212   0.009530   0.005234
    15  H   -0.000031  -0.000323   0.000016   0.009499  -0.000485   0.007081
    16  H    0.010497  -0.002712   0.000069   0.015483   0.000555   0.000025
    17  H   -0.051940   0.010595  -0.000520  -0.002300  -0.000051  -0.000002
    18  H    0.439774  -0.062735  -0.002712   0.016030   0.000002   0.000006
    19  H    0.016542  -0.064942  -0.004921   0.443148   0.001345   0.021616
    20  H    0.000137  -0.000610   0.000017  -0.001511   0.377066  -0.000059
    21  H    0.000056  -0.000222   0.000000  -0.000304   0.365429   0.005069
    22  H   -0.000031   0.000018   0.000002  -0.000739   0.371942   0.000170
    23  H   -0.000035   0.000092  -0.000006  -0.001528  -0.009293   0.312628
              13         14         15         16         17         18
     1  N    0.309037   0.002513   0.014286   0.000050  -0.000000   0.000000
     2  S   -0.019290  -0.016385  -0.018716  -0.000237   0.000003   0.000006
     3  C   -0.007106   0.342552   0.383479  -0.004578  -0.000724   0.000152
     4  C   -0.000001  -0.000103  -0.043378  -0.071460   0.013808  -0.003858
     5  C    0.000001   0.000779  -0.004149   0.431182  -0.054194   0.011535
     6  C   -0.000001  -0.000705   0.001413  -0.046795   0.427397  -0.061708
     7  C   -0.000000   0.000141  -0.000031   0.010497  -0.051940   0.439774
     8  C    0.000018   0.002243  -0.000323  -0.002712   0.010595  -0.062735
     9  Br   0.000000   0.000008   0.000016   0.000069  -0.000520  -0.002712
    10  C    0.000212  -0.005212   0.009499   0.015483  -0.002300   0.016030
    11  C    0.013592   0.009530  -0.000485   0.000555  -0.000051   0.000002
    12  N   -0.001765   0.005234   0.007081   0.000025  -0.000002   0.000006
    13  H    0.489985   0.003057  -0.001036   0.000007  -0.000000  -0.000000
    14  H    0.003057   0.523223  -0.013627   0.000573   0.000004  -0.000003
    15  H   -0.001036  -0.013627   0.506249   0.002645  -0.000046  -0.000002
    16  H    0.000007   0.000573   0.002645   0.552289  -0.007786  -0.000233
    17  H   -0.000000   0.000004  -0.000046  -0.007786   0.547674  -0.007602
    18  H   -0.000000  -0.000003  -0.000002  -0.000233  -0.007602   0.534599
    19  H    0.000051   0.001350   0.000039  -0.000116   0.000030   0.000052
    20  H   -0.000543  -0.000545   0.001008  -0.000221   0.000021  -0.000006
    21  H   -0.000914  -0.000432  -0.002051   0.000436   0.000003   0.000000
    22  H   -0.000670  -0.000284  -0.000301  -0.000027   0.000001  -0.000000
    23  H   -0.000402  -0.000887  -0.000591  -0.000004   0.000000  -0.000000
              19         20         21         22         23
     1  N    0.000514   0.005476   0.002610   0.006270  -0.001972
     2  S    0.001915  -0.017542  -0.009872  -0.012983  -0.019852
     3  C    0.000441   0.003399   0.003777   0.008508   0.013343
     4  C   -0.067657   0.001679  -0.001839  -0.000193   0.001447
     5  C    0.014700  -0.005557   0.002491   0.000028  -0.000208
     6  C   -0.005958   0.000645  -0.000078   0.000069   0.000031
     7  C    0.016542   0.000137   0.000056  -0.000031  -0.000035
     8  C   -0.064942  -0.000610  -0.000222   0.000018   0.000092
     9  Br  -0.004921   0.000017   0.000000   0.000002  -0.000006
    10  C    0.443148  -0.001511  -0.000304  -0.000739  -0.001528
    11  C    0.001345   0.377066   0.365429   0.371942  -0.009293
    12  N    0.021616  -0.000059   0.005069   0.000170   0.312628
    13  H    0.000051  -0.000543  -0.000914  -0.000670  -0.000402
    14  H    0.001350  -0.000545  -0.000432  -0.000284  -0.000887
    15  H    0.000039   0.001008  -0.002051  -0.000301  -0.000591
    16  H   -0.000116  -0.000221   0.000436  -0.000027  -0.000004
    17  H    0.000030   0.000021   0.000003   0.000001   0.000000
    18  H    0.000052  -0.000006   0.000000  -0.000000  -0.000000
    19  H    0.469789  -0.000019  -0.000105  -0.000066  -0.001081
    20  H   -0.000019   0.494756  -0.018735  -0.012628   0.000135
    21  H   -0.000105  -0.018735   0.514503  -0.009914   0.000151
    22  H   -0.000066  -0.012628  -0.009914   0.490635   0.002515
    23  H   -0.001081   0.000135   0.000151   0.002515   0.490639
 Mulliken charges:
               1
     1  N   -0.553107
     2  S    0.473903
     3  C   -0.207098
     4  C    0.096743
     5  C   -0.185954
     6  C   -0.115282
     7  C   -0.178680
     8  C    0.155216
     9  Br  -0.081783
    10  C   -0.259113
    11  C   -0.353518
    12  N   -0.565247
    13  H    0.215769
    14  H    0.146975
    15  H    0.159020
    16  H    0.120359
    17  H    0.125626
    18  H    0.136701
    19  H    0.173335
    20  H    0.173638
    21  H    0.149941
    22  H    0.157677
    23  H    0.214879
 Sum of Mulliken charges =  -0.00000
 Mulliken charges with hydrogens summed into heavy atoms:
               1
     1  N   -0.337339
     2  S    0.473903
     3  C    0.098897
     4  C    0.096743
     5  C   -0.065595
     6  C    0.010344
     7  C   -0.041980
     8  C    0.155216
     9  Br  -0.081783
    10  C   -0.085779
    11  C    0.127738
    12  N   -0.350368
 Electronic spatial extent (au):  <R**2>=           3988.2006
 Charge=              0.0000 electrons
 Dipole moment (field-independent basis, Debye):
    X=              0.1403    Y=              2.4772    Z=              0.6888  Tot=              2.5750
 Quadrupole moment (field-independent basis, Debye-Ang):
   XX=           -102.3010   YY=            -85.6448   ZZ=            -88.4552
   XY=             -1.4247   XZ=             -1.4783   YZ=              0.1588
 Traceless Quadrupole moment (field-independent basis, Debye-Ang):
   XX=            -10.1673   YY=              6.4889   ZZ=              3.6785
   XY=             -1.4247   XZ=             -1.4783   YZ=              0.1588
 Octapole moment (field-independent basis, Debye-Ang**2):
  XXX=           -154.5494  YYY=            -20.0959  ZZZ=              4.3989  XYY=            -23.8929
  XXY=            -12.1996  XXZ=             -3.2950  XZZ=             -7.5893  YZZ=            -17.3751
  YYZ=             10.2644  XYZ=             -4.0861
 Hexadecapole moment (field-independent basis, Debye-Ang**3):
 XXXX=          -3868.6441 YYYY=           -919.3341 ZZZZ=           -318.0225 XXXY=             44.5775
 XXXZ=            -83.8591 YYYX=             62.4468 YYYZ=             -2.8527 ZZZX=             -0.9953
 ZZZY=             -1.8504 XXYY=           -673.2630 XXZZ=           -580.6723 YYZZ=           -233.5370
 XXYZ=             21.2125 YYXZ=             -3.4471 ZZXY=             19.8414
 N-N= 1.087594752919D+03 E-N=-1.025036267415D+04  KE= 3.386304176752D+03
 Breneman (CHELPG) radii used.
 Read replacement radii for each type of atom:
 Rad(35) =   1.850000000000D+00
 Atom Element Radius
    1     7    1.70
    2    16    2.00
    3     6    1.50
    4     6    1.50
    5     6    1.50
    6     6    1.50
    7     6    1.50
    8     6    1.50
    9    35    1.85
   10     6    1.50
   11     6    1.50
   12     7    1.70
   13     1    1.45
   14     1    1.45
   15     1    1.45
   16     1    1.45
   17     1    1.45
   18     1    1.45
   19     1    1.45
   20     1    1.45
   21     1    1.45
   22     1    1.45
   23     1    1.45
 Generate Potential Derived Charges using the Breneman model, NDens= 1.
 Grid spacing= 0.300 Box extension= 2.800
 NStep X,Y,Z=   46     41     35   Total possible points=       66010
 Number of Points to Fit=   15008

 **********************************************************************

            Electrostatic Properties Using The SCF Density.

 **********************************************************************

       Atomic Center    1 is at   4.380347 -0.504257 -0.162596
       Atomic Center    2 is at   2.845275 -0.574312  0.035024
       Atomic Center    3 is at   1.929061  0.561627 -1.064885
       Atomic Center    4 is at   0.556314  0.944865 -0.611108
       Atomic Center    5 is at   0.280843  2.269928 -0.256232
       Atomic Center    6 is at  -0.989904  2.633997  0.184210
       Atomic Center    7 is at  -2.002095  1.683179  0.279859
       Atomic Center    8 is at  -1.719719  0.362662 -0.072599
       Atomic Center    9 is at  -3.082879 -0.937182  0.057592
       Atomic Center   10 is at  -0.457538 -0.017645 -0.516395
       Atomic Center   11 is at   2.669278  0.239249  1.625800
       Atomic Center   12 is at   1.996498 -1.863028 -0.128543
       Atomic Center   13 is at   4.606232 -1.059946 -0.992627
       Atomic Center   14 is at   1.925224  0.001025 -2.011853
       Atomic Center   15 is at   2.592503  1.431619 -1.162910
       Atomic Center   16 is at   1.068650  3.024089 -0.330281
       Atomic Center   17 is at  -1.197503  3.671513  0.455966
       Atomic Center   18 is at  -3.000567  1.957644  0.623736
       Atomic Center   19 is at  -0.229153 -1.058337 -0.753188
       Atomic Center   20 is at   1.600671  0.320145  1.857859
       Atomic Center   21 is at   3.158472  1.220570  1.590834
       Atomic Center   22 is at   3.186582 -0.410569  2.343025
       Atomic Center   23 is at   2.429891 -2.603597  0.429394
   15008 points will be used for fitting atomic charges
 Fitting point charges to electrostatic potential
 Charges from ESP fit, RMS=   0.00433 RRMS=   0.29951:
 ESP charges:
               1
     1  N   -0.811849
     2  S    0.839038
     3  C   -0.286756
     4  C    0.232050
     5  C   -0.235632
     6  C   -0.066085
     7  C   -0.100335
     8  C    0.085477
     9  Br  -0.093263
    10  C   -0.153278
    11  C   -0.228134
    12  N   -0.775766
    13  H    0.329392
    14  H    0.112812
    15  H    0.116740
    16  H    0.122229
    17  H    0.105222
    18  H    0.085394
    19  H    0.122790
    20  H    0.059982
    21  H    0.114714
    22  H    0.112998
    23  H    0.312260
 Sum of ESP charges =  -0.00000
 ESP charges with hydrogens summed into heavy atoms:
               1
     1  N   -0.482457
     2  S    0.839038
     3  C   -0.057205
     4  C    0.232050
     5  C   -0.113403
     6  C    0.039138
     7  C   -0.014941
     8  C    0.085477
     9  Br  -0.093263
    10  C   -0.030488
    11  C    0.059560
    12  N   -0.463506
 Charge=  -0.00000 Dipole=    -0.0262     2.5496     0.5425 Tot=     2.6068
 -----------------------------------------------------------------

              Electrostatic Properties (Atomic Units)

 -----------------------------------------------------------------
    Center     Electric         -------- Electric Field --------
               Potential          X             Y             Z
 -----------------------------------------------------------------
    1 Atom    -18.423393
    2 Atom    -59.073427
    3 Atom    -14.719883
    4 Atom    -14.727929
    5 Atom    -14.744600
    6 Atom    -14.743057
    7 Atom    -14.742950
    8 Atom    -14.696893
    9 Atom   -175.802468
   10 Atom    -14.748772
   11 Atom    -14.732097
   12 Atom    -18.422058
   13 Atom     -1.048547
   14 Atom     -1.070248
   15 Atom     -1.074263
   16 Atom     -1.083012
   17 Atom     -1.084659
   18 Atom     -1.083284
   19 Atom     -1.092456
   20 Atom     -1.074654
   21 Atom     -1.072044
   22 Atom     -1.070861
   23 Atom     -1.047111
 -----------------------------------------------------------------
 Unable to Open any file for archive entry.
 1\1\GINC-NOTCH032\SP\RPBE1PBE\def2TZVP\C8H11Br1N2S1\U1414944\07-Jun-20
 25\0\\#N Guess=Read Geom=Check Integral(Ultrafine) Density Pop=(ChelpG
 ,ReadRadii) NMR pbe1pbe EmpiricalDispersion=GD3BJ def2TZVP\\SDI2997_3\
 \0,1\N,0,-4.5030520247,-0.6937391095,-0.3237800648\S,0,-2.9604313979,-
 0.713282998,-0.1811301215\C,0,-2.2400459415,0.9522741102,0.0346698262\
 C,0,-0.7973836415,1.0929521676,-0.3343219634\C,0,-0.4274398099,1.89448
 36084,-1.4198173492\C,0,0.9120950693,2.0185789019,-1.7825567423\C,0,1.
 9004431899,1.3440979112,-1.0712353007\C,0,1.5242874475,0.5437158564,0.
 0084054031\Br,0,2.8551188467,-0.3801462934,0.9779994043\C,0,0.19213036
 29,0.4104097705,0.3856012869\C,0,-2.4680012547,-1.1073188227,-1.862103
 2838\N,0,-2.1896683314,-1.492943278,0.9170589696\H,0,-4.8948370014,-0.
 6013999932,0.6178905453\H,0,-2.4284356853,1.1405444965,1.1024250967\H,
 0,-2.8884325305,1.6037749564,-0.5668220787\H,0,-1.1962666656,2.4298661
 449,-1.9829807145\H,0,1.1926624458,2.6492702899,-2.6292551597\H,0,2.95
 2265585,1.4342520866,-1.347045157\H,0,-0.1023386656,-0.2474511288,1.20
 52223703\H,0,-1.3731490924,-1.0839269466,-1.9174991122\H,0,-2.93069167
 89,-0.3940938481,-2.555465247\H,0,-2.8568287688,-2.1162507065,-2.04958
 40832\H,0,-2.5283462789,-2.4587864101,0.9200462737\\Version=ES64L-G16R
 evC.01\State=1-A\HF=-3392.4956211\RMSD=3.481e-09\Dipole=0.0208607,0.55
 60373,-0.8465918\Quadrupole=-6.7277605,3.7197855,3.007975,-0.8929772,-
 3.0918397,-1.3640012\PG=C01 [X(C8H11Br1N2S1)]\\@
 The archive entry for this job was punched.


 HE THAT WALD REACHE THE SWEITE ROSE
 SULD NOW AND THEN BE SCRATCHED WT THE SCHARPE BREERES.
 -- PROVERBS AND REASONS OF THE YEAR 1585
           AS REPRINTED IN PAISLEY MAGAZINE 1828.
 Job cpu time:       0 days  0 hours 35 minutes  0.6 seconds.
 Elapsed time:       0 days  0 hours  2 minutes 22.3 seconds.
 File lengths (MBytes):  RWF=    137 Int=      0 D2E=      0 Chk=     21 Scr=      2
 Normal termination of Gaussian 16 at Sat Jun  7 02:42:36 2025.
