 Entering Gaussian System, Link 0=g16
 Input=SDI2997_4.com
 Output=SDI2997_4.log
 Initial command:
 /uufs/chpc.utah.edu/sys/installdir/gaussian16/C01/AVX/g16/l1.exe "/scratch/general/vast/u1414944/4689622-notchpeak.peaks/Gau-2532988.inp" -scrdir="/scratch/general/vast/u1414944/4689622-notchpeak.peaks/"
 Entering Link 1 = /uufs/chpc.utah.edu/sys/installdir/gaussian16/C01/AVX/g16/l1.exe PID=   2532989.
  
 Copyright (c) 1988-2019, Gaussian, Inc.  All Rights Reserved.
  
 This is part of the Gaussian(R) 16 program.  It is based on
 the Gaussian(R) 09 system (copyright 2009, Gaussian, Inc.),
 the Gaussian(R) 03 system (copyright 2003, Gaussian, Inc.),
 the Gaussian(R) 98 system (copyright 1998, Gaussian, Inc.),
 the Gaussian(R) 94 system (copyright 1995, Gaussian, Inc.),
 the Gaussian 92(TM) system (copyright 1992, Gaussian, Inc.),
 the Gaussian 90(TM) system (copyright 1990, Gaussian, Inc.),
 the Gaussian 88(TM) system (copyright 1988, Gaussian, Inc.),
 the Gaussian 86(TM) system (copyright 1986, Carnegie Mellon
 University), and the Gaussian 82(TM) system (copyright 1983,
 Carnegie Mellon University). Gaussian is a federally registered
 trademark of Gaussian, Inc.
  
 This software contains proprietary and confidential information,
 including trade secrets, belonging to Gaussian, Inc.
  
 This software is provided under written license and may be
 used, copied, transmitted, or stored only in accord with that
 written license.
  
 The following legend is applicable only to US Government
 contracts under FAR:
  
                    RESTRICTED RIGHTS LEGEND
  
 Use, reproduction and disclosure by the US Government is
 subject to restrictions as set forth in subparagraphs (a)
 and (c) of the Commercial Computer Software - Restricted
 Rights clause in FAR 52.227-19.
  
 Gaussian, Inc.
 340 Quinnipiac St., Bldg. 40, Wallingford CT 06492
  
  
 ---------------------------------------------------------------
 Warning -- This program may not be used in any manner that
 competes with the business of Gaussian, Inc. or will provide
 assistance to any competitor of Gaussian, Inc.  The licensee
 of this program is prohibited from giving any competitor of
 Gaussian, Inc. access to this program.  By using this program,
 the user acknowledges that Gaussian, Inc. is engaged in the
 business of creating and licensing software in the field of
 computational chemistry and represents and warrants to the
 licensee that it is not a competitor of Gaussian, Inc. and that
 it will not use this program in any manner prohibited above.
 ---------------------------------------------------------------
  

 Cite this work as:
 Gaussian 16, Revision C.01,
 M. J. Frisch, G. W. Trucks, H. B. Schlegel, G. E. Scuseria, 
 M. A. Robb, J. R. Cheeseman, G. Scalmani, V. Barone, 
 G. A. Petersson, H. Nakatsuji, X. Li, M. Caricato, A. V. Marenich, 
 J. Bloino, B. G. Janesko, R. Gomperts, B. Mennucci, H. P. Hratchian, 
 J. V. Ortiz, A. F. Izmaylov, J. L. Sonnenberg, D. Williams-Young, 
 F. Ding, F. Lipparini, F. Egidi, J. Goings, B. Peng, A. Petrone, 
 T. Henderson, D. Ranasinghe, V. G. Zakrzewski, J. Gao, N. Rega, 
 G. Zheng, W. Liang, M. Hada, M. Ehara, K. Toyota, R. Fukuda, 
 J. Hasegawa, M. Ishida, T. Nakajima, Y. Honda, O. Kitao, H. Nakai, 
 T. Vreven, K. Throssell, J. A. Montgomery, Jr., J. E. Peralta, 
 F. Ogliaro, M. J. Bearpark, J. J. Heyd, E. N. Brothers, K. N. Kudin, 
 V. N. Staroverov, T. A. Keith, R. Kobayashi, J. Normand, 
 K. Raghavachari, A. P. Rendell, J. C. Burant, S. S. Iyengar, 
 J. Tomasi, M. Cossi, J. M. Millam, M. Klene, C. Adamo, R. Cammi, 
 J. W. Ochterski, R. L. Martin, K. Morokuma, O. Farkas, 
 J. B. Foresman, and D. J. Fox, Gaussian, Inc., Wallingford CT, 2019.
 
 ******************************************
 Gaussian 16:  ES64L-G16RevC.01  3-Jul-2019
                 7-Jun-2025 
 ******************************************
 %NProcShared=16
 Will use up to   16 processors via shared memory.
 %Mem=40GB
 %chk=SDI2997_4.chk
 ----------------------------------------------------------------------
 #N OPT FREQ=NORAMAN Integral(Ultrafine) pbe1pbe EmpiricalDispersion=GD
 3BJ def2SVP
 ----------------------------------------------------------------------
 1/18=20,19=15,26=4,38=1/1,3;
 2/9=110,12=2,17=6,18=5,40=1/2;
 3/5=43,7=101,11=2,25=1,30=1,71=1,74=-13,75=-5,124=41/1,2,3;
 4//1;
 5/5=2,38=5/2;
 6/7=2,8=2,9=2,10=2,28=1/1;
 7//1,2,3,16;
 1/18=20,19=15,26=4/3(2);
 2/9=110/2;
 99//99;
 2/9=110/2;
 3/5=43,7=101,11=2,25=1,30=1,71=1,74=-13,75=-5,124=41/1,2,3;
 4/5=5,16=3,69=1/1;
 5/5=2,38=5/2;
 7//1,2,3,16;
 1/18=20,19=15,26=4/3(-5);
 2/9=110/2;
 6/7=2,8=2,9=2,10=2,19=2,28=1/1;
 99/9=1/99;
 ---------
 SDI2997_4
 ---------
 Symbolic Z-matrix:
 Charge =  0 Multiplicity = 1
 N                    -3.41679   0.50446   0.82774 
 S                    -2.87039  -0.71071   0.06914 
 C                    -1.90764  -0.28411  -1.46977 
 C                    -0.73093   0.49609  -1.0212 
 C                    -0.78232   1.8846   -0.94761 
 C                     0.28869   2.60112  -0.44332 
 C                     1.42343   1.94615   0.00313 
 C                     1.46075   0.56351  -0.06159 
 Br                    3.01053  -0.35374   0.55835 
 C                     0.40182  -0.16852  -0.56324 
 C                    -4.394    -1.35494  -0.71205 
 N                    -1.97703  -1.79844   0.67803 
 H                    -2.78976   0.88199   1.51893 
 H                    -2.57016   0.28424  -2.11598 
 H                    -1.63725  -1.24171  -1.9016 
 H                    -1.66809   2.40276  -1.28289 
 H                     0.24171   3.67828  -0.39194 
 H                     2.26266   2.49715   0.39825 
 H                     0.43708  -1.24634  -0.58453 
 H                    -4.90075  -0.51464  -1.16716 
 H                    -5.01208  -1.78112   0.06897 
 H                    -4.12477  -2.11037  -1.43978 
 H                    -2.11568  -1.95209   1.66265 
 

 GradGradGradGradGradGradGradGradGradGradGradGradGradGradGradGradGradGrad
 Berny optimization.
 Initialization pass.
                           ----------------------------
                           !    Initial Parameters    !
                           ! (Angstroms and Degrees)  !
 --------------------------                            --------------------------
 ! Name  Definition              Value          Derivative Info.                !
 --------------------------------------------------------------------------------
 ! R1    R(1,2)                  1.5332         estimate D2E/DX2                !
 ! R2    R(1,13)                 1.0067         estimate D2E/DX2                !
 ! R3    R(2,3)                  1.8647         estimate D2E/DX2                !
 ! R4    R(2,11)                 1.8294         estimate D2E/DX2                !
 ! R5    R(2,12)                 1.5336         estimate D2E/DX2                !
 ! R6    R(3,4)                  1.4814         estimate D2E/DX2                !
 ! R7    R(3,14)                 1.0861         estimate D2E/DX2                !
 ! R8    R(3,15)                 1.0847         estimate D2E/DX2                !
 ! R9    R(4,5)                  1.3914         estimate D2E/DX2                !
 ! R10   R(4,10)                 1.3909         estimate D2E/DX2                !
 ! R11   R(5,6)                  1.3838         estimate D2E/DX2                !
 ! R12   R(5,16)                 1.0796         estimate D2E/DX2                !
 ! R13   R(6,7)                  1.3842         estimate D2E/DX2                !
 ! R14   R(6,17)                 1.0794         estimate D2E/DX2                !
 ! R15   R(7,8)                  1.3847         estimate D2E/DX2                !
 ! R16   R(7,18)                 1.0789         estimate D2E/DX2                !
 ! R17   R(8,9)                  1.9046         estimate D2E/DX2                !
 ! R18   R(8,10)                 1.3816         estimate D2E/DX2                !
 ! R19   R(10,19)                1.0786         estimate D2E/DX2                !
 ! R20   R(11,20)                1.0817         estimate D2E/DX2                !
 ! R21   R(11,21)                1.0833         estimate D2E/DX2                !
 ! R22   R(11,22)                1.0829         estimate D2E/DX2                !
 ! R23   R(12,23)                1.0061         estimate D2E/DX2                !
 ! A1    A(2,1,13)             114.5175         estimate D2E/DX2                !
 ! A2    A(1,2,3)              114.2688         estimate D2E/DX2                !
 ! A3    A(1,2,11)             101.162          estimate D2E/DX2                !
 ! A4    A(1,2,12)             124.98           estimate D2E/DX2                !
 ! A5    A(3,2,11)              99.0997         estimate D2E/DX2                !
 ! A6    A(3,2,12)             100.9045         estimate D2E/DX2                !
 ! A7    A(11,2,12)            113.8859         estimate D2E/DX2                !
 ! A8    A(2,3,4)              106.3018         estimate D2E/DX2                !
 ! A9    A(2,3,14)             107.2062         estimate D2E/DX2                !
 ! A10   A(2,3,15)             104.7904         estimate D2E/DX2                !
 ! A11   A(4,3,14)             112.8994         estimate D2E/DX2                !
 ! A12   A(4,3,15)             112.798          estimate D2E/DX2                !
 ! A13   A(14,3,15)            112.1591         estimate D2E/DX2                !
 ! A14   A(3,4,5)              120.8129         estimate D2E/DX2                !
 ! A15   A(3,4,10)             119.6663         estimate D2E/DX2                !
 ! A16   A(5,4,10)             119.3081         estimate D2E/DX2                !
 ! A17   A(4,5,6)              120.4921         estimate D2E/DX2                !
 ! A18   A(4,5,16)             119.528          estimate D2E/DX2                !
 ! A19   A(6,5,16)             119.9792         estimate D2E/DX2                !
 ! A20   A(5,6,7)              120.4669         estimate D2E/DX2                !
 ! A21   A(5,6,17)             120.0262         estimate D2E/DX2                !
 ! A22   A(7,6,17)             119.5064         estimate D2E/DX2                !
 ! A23   A(6,7,8)              118.6533         estimate D2E/DX2                !
 ! A24   A(6,7,18)             120.9407         estimate D2E/DX2                !
 ! A25   A(8,7,18)             120.4055         estimate D2E/DX2                !
 ! A26   A(7,8,9)              119.1837         estimate D2E/DX2                !
 ! A27   A(7,8,10)             121.6942         estimate D2E/DX2                !
 ! A28   A(9,8,10)             119.1221         estimate D2E/DX2                !
 ! A29   A(4,10,8)             119.3782         estimate D2E/DX2                !
 ! A30   A(4,10,19)            119.842          estimate D2E/DX2                !
 ! A31   A(8,10,19)            120.7682         estimate D2E/DX2                !
 ! A32   A(2,11,20)            107.2341         estimate D2E/DX2                !
 ! A33   A(2,11,21)            107.8095         estimate D2E/DX2                !
 ! A34   A(2,11,22)            108.9995         estimate D2E/DX2                !
 ! A35   A(20,11,21)           109.9771         estimate D2E/DX2                !
 ! A36   A(20,11,22)           112.0637         estimate D2E/DX2                !
 ! A37   A(21,11,22)           110.6025         estimate D2E/DX2                !
 ! A38   A(2,12,23)            114.6191         estimate D2E/DX2                !
 ! D1    D(13,1,2,3)           -89.2192         estimate D2E/DX2                !
 ! D2    D(13,1,2,11)          165.3668         estimate D2E/DX2                !
 ! D3    D(13,1,2,12)           35.4422         estimate D2E/DX2                !
 ! D4    D(1,2,3,4)             62.8311         estimate D2E/DX2                !
 ! D5    D(1,2,3,14)           -58.1645         estimate D2E/DX2                !
 ! D6    D(1,2,3,15)          -177.5146         estimate D2E/DX2                !
 ! D7    D(11,2,3,4)           169.5257         estimate D2E/DX2                !
 ! D8    D(11,2,3,14)           48.5301         estimate D2E/DX2                !
 ! D9    D(11,2,3,15)          -70.82           estimate D2E/DX2                !
 ! D10   D(12,2,3,4)           -73.8285         estimate D2E/DX2                !
 ! D11   D(12,2,3,14)          165.1759         estimate D2E/DX2                !
 ! D12   D(12,2,3,15)           45.8258         estimate D2E/DX2                !
 ! D13   D(1,2,11,20)           47.6001         estimate D2E/DX2                !
 ! D14   D(1,2,11,21)          -70.7827         estimate D2E/DX2                !
 ! D15   D(1,2,11,22)          169.1179         estimate D2E/DX2                !
 ! D16   D(3,2,11,20)          -69.5219         estimate D2E/DX2                !
 ! D17   D(3,2,11,21)          172.0952         estimate D2E/DX2                !
 ! D18   D(3,2,11,22)           51.9959         estimate D2E/DX2                !
 ! D19   D(12,2,11,20)        -175.8095         estimate D2E/DX2                !
 ! D20   D(12,2,11,21)          65.8077         estimate D2E/DX2                !
 ! D21   D(12,2,11,22)         -54.2916         estimate D2E/DX2                !
 ! D22   D(1,2,12,23)           29.0597         estimate D2E/DX2                !
 ! D23   D(3,2,12,23)          159.2748         estimate D2E/DX2                !
 ! D24   D(11,2,12,23)         -95.5684         estimate D2E/DX2                !
 ! D25   D(2,3,4,5)            -91.5154         estimate D2E/DX2                !
 ! D26   D(2,3,4,10)            83.1479         estimate D2E/DX2                !
 ! D27   D(14,3,4,5)            25.7494         estimate D2E/DX2                !
 ! D28   D(14,3,4,10)         -159.5873         estimate D2E/DX2                !
 ! D29   D(15,3,4,5)           154.1892         estimate D2E/DX2                !
 ! D30   D(15,3,4,10)          -31.1475         estimate D2E/DX2                !
 ! D31   D(3,4,5,6)            175.6521         estimate D2E/DX2                !
 ! D32   D(3,4,5,16)            -4.0424         estimate D2E/DX2                !
 ! D33   D(10,4,5,6)             0.9698         estimate D2E/DX2                !
 ! D34   D(10,4,5,16)         -178.7247         estimate D2E/DX2                !
 ! D35   D(3,4,10,8)          -175.6329         estimate D2E/DX2                !
 ! D36   D(3,4,10,19)            3.1395         estimate D2E/DX2                !
 ! D37   D(5,4,10,8)            -0.8888         estimate D2E/DX2                !
 ! D38   D(5,4,10,19)          177.8836         estimate D2E/DX2                !
 ! D39   D(4,5,6,7)             -0.4113         estimate D2E/DX2                !
 ! D40   D(4,5,6,17)           179.8486         estimate D2E/DX2                !
 ! D41   D(16,5,6,7)           179.2818         estimate D2E/DX2                !
 ! D42   D(16,5,6,17)           -0.4582         estimate D2E/DX2                !
 ! D43   D(5,6,7,8)             -0.2234         estimate D2E/DX2                !
 ! D44   D(5,6,7,18)          -179.9652         estimate D2E/DX2                !
 ! D45   D(17,6,7,8)           179.518          estimate D2E/DX2                !
 ! D46   D(17,6,7,18)           -0.2238         estimate D2E/DX2                !
 ! D47   D(6,7,8,9)           -179.6349         estimate D2E/DX2                !
 ! D48   D(6,7,8,10)             0.2986         estimate D2E/DX2                !
 ! D49   D(18,7,8,9)             0.1083         estimate D2E/DX2                !
 ! D50   D(18,7,8,10)         -179.9582         estimate D2E/DX2                !
 ! D51   D(7,8,10,4)             0.2613         estimate D2E/DX2                !
 ! D52   D(7,8,10,19)         -178.4994         estimate D2E/DX2                !
 ! D53   D(9,8,10,4)          -179.8051         estimate D2E/DX2                !
 ! D54   D(9,8,10,19)            1.4342         estimate D2E/DX2                !
 --------------------------------------------------------------------------------
 Trust Radius=3.00D-01 FncErr=1.00D-07 GrdErr=1.00D-06 EigMax=2.50D+02 EigMin=1.00D-04
 Number of steps in this run=    125 maximum allowed number of steps=    138.
 GradGradGradGradGradGradGradGradGradGradGradGradGradGradGradGradGradGrad

                          Input orientation:                          
 ---------------------------------------------------------------------
 Center     Atomic      Atomic             Coordinates (Angstroms)
 Number     Number       Type             X           Y           Z
 ---------------------------------------------------------------------
      1          7           0       -3.416787    0.504459    0.827742
      2         16           0       -2.870388   -0.710707    0.069138
      3          6           0       -1.907644   -0.284105   -1.469774
      4          6           0       -0.730930    0.496088   -1.021203
      5          6           0       -0.782322    1.884598   -0.947612
      6          6           0        0.288685    2.601120   -0.443318
      7          6           0        1.423434    1.946153    0.003128
      8          6           0        1.460751    0.563513   -0.061594
      9         35           0        3.010528   -0.353736    0.558349
     10          6           0        0.401819   -0.168524   -0.563244
     11          6           0       -4.393996   -1.354942   -0.712048
     12          7           0       -1.977032   -1.798438    0.678031
     13          1           0       -2.789755    0.881987    1.518935
     14          1           0       -2.570164    0.284239   -2.115979
     15          1           0       -1.637250   -1.241706   -1.901602
     16          1           0       -1.668088    2.402765   -1.282894
     17          1           0        0.241709    3.678276   -0.391937
     18          1           0        2.262657    2.497151    0.398249
     19          1           0        0.437080   -1.246344   -0.584535
     20          1           0       -4.900751   -0.514645   -1.167160
     21          1           0       -5.012080   -1.781121    0.068967
     22          1           0       -4.124768   -2.110371   -1.439782
     23          1           0       -2.115677   -1.952093    1.662649
 ---------------------------------------------------------------------
                    Distance matrix (angstroms):
                    1          2          3          4          5
     1  N    0.000000
     2  S    1.533186   0.000000
     3  C    2.859708   1.864703   0.000000
     4  C    3.260751   2.687467   1.481409   0.000000
     5  C    3.463680   3.482730   2.498455   1.391408   0.000000
     6  C    4.443209   4.605492   3.768554   2.409300   1.383753
     7  C    5.117247   5.049770   4.270782   2.791636   2.402719
     8  C    4.958304   4.516580   3.748001   2.393504   2.749849
     9  Br   6.489950   5.912016   5.320390   4.149180   4.654436
    10  C    4.119406   3.376568   2.483702   1.390883   2.401091
    11  C    2.604469   1.829391   2.811190   4.115816   4.857397
    12  N    2.720045   1.533622   2.628894   3.115287   4.199381
    13  H    1.006700   2.155246   3.327202   3.292412   3.334497
    14  H    3.070954   2.419667   1.086061   2.150859   2.668822
    15  H    3.696642   2.384618   1.084706   2.148592   3.378576
    16  H    3.334112   3.601003   2.703993   2.140598   1.079579
    17  H    4.994530   5.400084   4.634859   3.386491   2.138854
    18  H    6.034184   6.061916   5.349421   3.870486   3.385035
    19  H    4.462301   3.413728   2.684638   2.142661   3.379581
    20  H    2.687072   2.385214   3.017187   4.293051   4.771376
    21  H    2.888698   2.394291   3.774428   4.970150   5.688742
    22  H    3.532738   2.410263   2.872592   4.299648   5.232012
    23  H    2.902517   2.156364   3.554932   3.887696   4.828199
                    6          7          8          9         10
     6  C    0.000000
     7  C    1.384179   0.000000
     8  C    2.381447   1.384657   0.000000
     9  Br   4.140403   2.848970   1.904596   0.000000
    10  C    2.774546   2.415850   1.381617   2.845635   0.000000
    11  C    6.135971   6.726901   6.195290   7.579136   4.942629
    12  N    5.074151   5.103002   4.236060   5.193962   3.139477
    13  H    4.035176   4.602291   4.546020   6.007747   3.952871
    14  H    4.042122   4.816783   4.532854   6.221187   3.383588
    15  H    4.539067   4.812300   4.030144   5.333075   2.664719
    16  H    2.138503   3.379328   3.829367   5.733927   3.378452
    17  H    1.079404   2.133730   3.361092   4.982623   3.853940
    18  H    2.148397   1.078895   2.143236   2.951694   3.390133
    19  H    3.852913   3.392681   2.144051   2.953907   1.078607
    20  H    6.096079   6.886249   6.546251   8.098865   5.348062
    21  H    6.896708   7.437254   6.885629   8.163281   5.684230
    22  H    6.532201   7.022815   6.344059   7.615165   5.002908
    23  H    5.563075   5.520475   4.700226   5.481989   3.804407
                   11         12         13         14         15
    11  C    0.000000
    12  N    2.823248   0.000000
    13  H    3.543265   2.924435   0.000000
    14  H    2.825650   3.534946   3.690273   0.000000
    15  H    3.004581   2.660810   4.187889   1.801331   0.000000
    16  H    4.677264   4.646588   3.379519   2.448657   3.696744
    17  H    6.850220   6.005168   4.545375   4.732699   5.478667
    18  H    7.770612   6.041964   5.421399   5.880007   5.871766
    19  H    4.833979   2.779715   4.400777   3.705607   2.457139
    20  H    1.081677   3.687952   3.690798   2.640096   3.423223
    21  H    1.083347   3.095606   3.759426   3.873326   3.945071
    22  H    1.082938   3.032360   4.414802   2.933972   2.674995
    23  H    3.344625   1.006134   2.916684   4.414269   3.665710
                   16         17         18         19         20
    16  H    0.000000
    17  H    2.463343   0.000000
    18  H    4.276203   2.470564   0.000000
    19  H    4.270296   4.932256   4.279293   0.000000
    20  H    4.356005   6.680303   7.926906   5.419158   0.000000
    21  H    5.524012   7.590767   8.445936   5.514199   1.773236
    22  H    5.140844   7.326154   8.087448   4.721064   1.795220
    23  H    5.276490   6.440470   6.369010   3.473397   4.222643
                   21         22         23
    21  H    0.000000
    22  H    1.781025   0.000000
    23  H    3.310318   3.699538   0.000000
 Stoichiometry    C8H11BrN2S
 Framework group  C1[X(C8H11BrN2S)]
 Deg. of freedom    63
 Full point group                 C1      NOp   1
 Largest Abelian subgroup         C1      NOp   1
 Largest concise Abelian subgroup C1      NOp   1
                         Standard orientation:                         
 ---------------------------------------------------------------------
 Center     Atomic      Atomic             Coordinates (Angstroms)
 Number     Number       Type             X           Y           Z
 ---------------------------------------------------------------------
      1          7           0       -3.018145    0.511833    1.388759
      2         16           0       -2.709374   -0.479291    0.260489
      3          6           0       -1.860776    0.280284   -1.216008
      4          6           0       -0.555541    0.785864   -0.730906
      5          6           0       -0.423087    2.093150   -0.273223
      6          6           0        0.775407    2.531831    0.261515
      7          6           0        1.857378    1.673781    0.356593
      8          6           0        1.712673    0.370848   -0.089166
      9         35           0        3.188523   -0.825634    0.044177
     10          6           0        0.524399   -0.084504   -0.627243
     11          6           0       -4.373313   -0.727458   -0.458114
     12          7           0       -1.903974   -1.774169    0.423638
     13          1           0       -2.281795    0.614860    2.067447
     14          1           0       -2.507890    1.069322   -1.587750
     15          1           0       -1.758764   -0.533593   -1.925785
     16          1           0       -1.265446    2.765722   -0.332965
     17          1           0        0.870569    3.548278    0.612076
     18          1           0        2.795170    2.007566    0.772703
     19          1           0        0.420631   -1.109144   -0.947772
     20          1           0       -4.812996    0.251449   -0.593932
     21          1           0       -4.958294   -1.300811    0.250902
     22          1           0       -4.276750   -1.263452   -1.394137
     23          1           0       -1.960788   -2.190757    1.337713
 ---------------------------------------------------------------------
 Rotational constants (GHZ):           1.2451559           0.2888073           0.2540467
 Standard basis: def2SVP (5D, 7F)
 There are   259 symmetry adapted cartesian basis functions of A   symmetry.
 There are   245 symmetry adapted basis functions of A   symmetry.
   245 basis functions,   444 primitive gaussians,   259 cartesian basis functions
    62 alpha electrons       62 beta electrons
       nuclear repulsion energy      1090.5107026317 Hartrees.
 NAtoms=   23 NActive=   23 NUniq=   23 SFac= 1.00D+00 NAtFMM=   60 NAOKFM=F Big=F
 Integral buffers will be    131072 words long.
 Raffenetti 2 integral format.
 Two-electron integral symmetry is turned on.
 Nuclear repulsion after empirical dispersion term =     1090.4829778491 Hartrees.
 One-electron integrals computed using PRISM.
   1 Symmetry operations used in ECPInt.
 ECPInt:  NShTT=    6441 NPrTT=   25202 LenC2=    6107 LenP2D=   17472.
 LDataN:  DoStor=T MaxTD1= 4 Len=   56
 NBasis=   245 RedAO= T EigKep=  2.55D-04  NBF=   245
 NBsUse=   245 1.00D-06 EigRej= -1.00D+00 NBFU=   245
 ExpMin= 1.22D-01 ExpMax= 1.13D+05 ExpMxC= 1.70D+04 IAcc=3 IRadAn=         5 AccDes= 0.00D+00
 Harris functional with IExCor= 1009 and IRadAn=       5 diagonalized for initial guess.
 HarFok:  IExCor= 1009 AccDes= 0.00D+00 IRadAn=         5 IDoV= 1 UseB2=F ITyADJ=14
 ICtDFT=  3500011 ScaDFX=  1.000000  1.000000  1.000000  1.000000
 FoFCou: FMM=F IPFlag=           0 FMFlag=      100000 FMFlg1=           0
         NFxFlg=           0 DoJE=T BraDBF=F KetDBF=T FulRan=T
         wScrn=  0.000000 ICntrl=       500 IOpCl=  0 I1Cent=   200000004 NGrid=           0
         NMat0=    1 NMatS0=      1 NMatT0=    0 NMatD0=    1 NMtDS0=    0 NMtDT0=    0
 Petite list used in FoFCou.
 Requested convergence on RMS density matrix=1.00D-08 within 128 cycles.
 Requested convergence on MAX density matrix=1.00D-06.
 Requested convergence on             energy=1.00D-06.
 No special actions if energy rises.
 Integral accuracy reduced to 1.0D-05 until final iterations.
 Initial convergence to 1.0D-05 achieved.  Increase integral accuracy.
 SCF Done:  E(RPBE1PBE) =  -3391.54826397     A.U. after   14 cycles
            NFock= 14  Conv=0.80D-08     -V/T= 2.0022

 **********************************************************************

            Population analysis using the SCF Density.

 **********************************************************************

 Orbital symmetries:
       Occupied  (A) (A) (A) (A) (A) (A) (A) (A) (A) (A) (A) (A)
                 (A) (A) (A) (A) (A) (A) (A) (A) (A) (A) (A) (A)
                 (A) (A) (A) (A) (A) (A) (A) (A) (A) (A) (A) (A)
                 (A) (A) (A) (A) (A) (A) (A) (A) (A) (A) (A) (A)
                 (A) (A) (A) (A) (A) (A) (A) (A) (A) (A) (A) (A)
                 (A) (A)
       Virtual   (A) (A) (A) (A) (A) (A) (A) (A) (A) (A) (A) (A)
                 (A) (A) (A) (A) (A) (A) (A) (A) (A) (A) (A) (A)
                 (A) (A) (A) (A) (A) (A) (A) (A) (A) (A) (A) (A)
                 (A) (A) (A) (A) (A) (A) (A) (A) (A) (A) (A) (A)
                 (A) (A) (A) (A) (A) (A) (A) (A) (A) (A) (A) (A)
                 (A) (A) (A) (A) (A) (A) (A) (A) (A) (A) (A) (A)
                 (A) (A) (A) (A) (A) (A) (A) (A) (A) (A) (A) (A)
                 (A) (A) (A) (A) (A) (A) (A) (A) (A) (A) (A) (A)
                 (A) (A) (A) (A) (A) (A) (A) (A) (A) (A) (A) (A)
                 (A) (A) (A) (A) (A) (A) (A) (A) (A) (A) (A) (A)
                 (A) (A) (A) (A) (A) (A) (A) (A) (A) (A) (A) (A)
                 (A) (A) (A) (A) (A) (A) (A) (A) (A) (A) (A) (A)
                 (A) (A) (A) (A) (A) (A) (A) (A) (A) (A) (A) (A)
                 (A) (A) (A) (A) (A) (A) (A) (A) (A) (A) (A) (A)
                 (A) (A) (A) (A) (A) (A) (A) (A) (A) (A) (A) (A)
                 (A) (A) (A)
 The electronic state is 1-A.
 Alpha  occ. eigenvalues -- -483.18982 -89.18067 -62.62354 -56.41347 -56.40997
 Alpha  occ. eigenvalues --  -56.40986 -14.34729 -14.34599 -10.29209 -10.26955
 Alpha  occ. eigenvalues --  -10.26281 -10.26075 -10.25073 -10.24865 -10.24828
 Alpha  occ. eigenvalues --  -10.24714  -8.76964  -8.15554  -6.58442  -6.57164
 Alpha  occ. eigenvalues --   -6.57135  -6.09687  -6.09581  -6.09541  -2.66997
 Alpha  occ. eigenvalues --   -2.66629  -2.66608  -2.65581  -2.65581  -1.00570
 Alpha  occ. eigenvalues --   -0.90646  -0.85404  -0.83691  -0.80711  -0.77311
 Alpha  occ. eigenvalues --   -0.75024  -0.72695  -0.63896  -0.62716  -0.60036
 Alpha  occ. eigenvalues --   -0.54449  -0.53836  -0.50719  -0.49352  -0.48629
 Alpha  occ. eigenvalues --   -0.46202  -0.44765  -0.44053  -0.43742  -0.43137
 Alpha  occ. eigenvalues --   -0.43098  -0.40427  -0.37801  -0.36623  -0.34850
 Alpha  occ. eigenvalues --   -0.32741  -0.29745  -0.28582  -0.26914  -0.25884
 Alpha  occ. eigenvalues --   -0.25151  -0.24402
 Alpha virt. eigenvalues --   -0.02728  -0.01415   0.01563   0.05802   0.07464
 Alpha virt. eigenvalues --    0.07710   0.08373   0.09080   0.10104   0.11394
 Alpha virt. eigenvalues --    0.11926   0.12910   0.13460   0.13913   0.15371
 Alpha virt. eigenvalues --    0.15754   0.17416   0.17603   0.19739   0.23388
 Alpha virt. eigenvalues --    0.26558   0.28757   0.30518   0.32038   0.33244
 Alpha virt. eigenvalues --    0.35372   0.37987   0.39234   0.41090   0.41817
 Alpha virt. eigenvalues --    0.42456   0.43963   0.45776   0.47050   0.47508
 Alpha virt. eigenvalues --    0.48078   0.49236   0.50917   0.51561   0.52180
 Alpha virt. eigenvalues --    0.52816   0.54031   0.54872   0.55777   0.56831
 Alpha virt. eigenvalues --    0.59363   0.60616   0.61133   0.61756   0.63503
 Alpha virt. eigenvalues --    0.64259   0.64791   0.65275   0.66358   0.66746
 Alpha virt. eigenvalues --    0.67538   0.68008   0.68598   0.69228   0.70368
 Alpha virt. eigenvalues --    0.70646   0.71716   0.73309   0.73449   0.74375
 Alpha virt. eigenvalues --    0.74892   0.75817   0.76431   0.78278   0.81216
 Alpha virt. eigenvalues --    0.82892   0.82999   0.84255   0.87271   0.87656
 Alpha virt. eigenvalues --    0.89423   0.90081   0.94796   0.95735   0.97087
 Alpha virt. eigenvalues --    0.99703   1.01542   1.01763   1.04116   1.06532
 Alpha virt. eigenvalues --    1.10545   1.13148   1.13802   1.17104   1.17438
 Alpha virt. eigenvalues --    1.21427   1.22774   1.24184   1.25645   1.27725
 Alpha virt. eigenvalues --    1.28193   1.29566   1.31936   1.35372   1.39533
 Alpha virt. eigenvalues --    1.40978   1.45684   1.48413   1.50768   1.51646
 Alpha virt. eigenvalues --    1.52362   1.55623   1.65683   1.67427   1.68227
 Alpha virt. eigenvalues --    1.70890   1.72560   1.74326   1.74867   1.75553
 Alpha virt. eigenvalues --    1.76465   1.77390   1.79029   1.80689   1.82726
 Alpha virt. eigenvalues --    1.83531   1.84031   1.84347   1.87044   1.89369
 Alpha virt. eigenvalues --    1.92196   1.97046   1.97388   1.97642   2.00119
 Alpha virt. eigenvalues --    2.02531   2.04695   2.09269   2.11445   2.14629
 Alpha virt. eigenvalues --    2.15216   2.16470   2.16969   2.18225   2.21536
 Alpha virt. eigenvalues --    2.23701   2.27750   2.30232   2.31637   2.32623
 Alpha virt. eigenvalues --    2.32922   2.35448   2.39257   2.42797   2.44356
 Alpha virt. eigenvalues --    2.44835   2.46193   2.54184   2.56919   2.57873
 Alpha virt. eigenvalues --    2.58344   2.61217   2.62591   2.63786   2.65759
 Alpha virt. eigenvalues --    2.66277   2.73836   2.76146   2.82168   2.84961
 Alpha virt. eigenvalues --    2.85539   2.89111   2.90278   2.91348   2.94437
 Alpha virt. eigenvalues --    2.95859   2.98381   3.06026   3.12101   3.24820
 Alpha virt. eigenvalues --    3.27636   3.31828   3.45837   3.49528   3.53909
 Alpha virt. eigenvalues --    3.61221   3.66173   3.86204
          Condensed to atoms (all electrons):
               1          2          3          4          5          6
     1  N    6.917576   0.322206  -0.041450  -0.007859   0.014935  -0.000982
     2  S    0.322206  14.707125   0.165731  -0.066668   0.004716  -0.000678
     3  C   -0.041450   0.165731   5.317431   0.300885  -0.109671   0.013555
     4  C   -0.007859  -0.066668   0.300885   5.409706   0.241596   0.100187
     5  C    0.014935   0.004716  -0.109671   0.241596   5.169860   0.273518
     6  C   -0.000982  -0.000678   0.013555   0.100187   0.273518   5.021504
     7  C    0.000029   0.000263  -0.001268  -0.159469   0.102866   0.288356
     8  C    0.000084  -0.000585   0.015878   0.130018  -0.171166   0.107525
     9  Br  -0.000000   0.000002  -0.000188   0.004178   0.000775   0.003785
    10  C   -0.000280  -0.002311  -0.103395   0.280599   0.050631  -0.124593
    11  C   -0.084285   0.261287  -0.136068   0.012391   0.000172   0.000003
    12  N   -0.039230   0.334027  -0.098500  -0.016654   0.001265  -0.000008
    13  H    0.331318  -0.007031  -0.009370   0.003059   0.002061   0.000092
    14  H   -0.000101  -0.013486   0.340727  -0.006222  -0.008583   0.000547
    15  H    0.003609  -0.006697   0.319293   0.008663   0.009938  -0.000613
    16  H    0.003261   0.000468  -0.016134  -0.072378   0.453406  -0.063398
    17  H   -0.000024  -0.000009  -0.000363   0.016816  -0.073142   0.457122
    18  H    0.000000   0.000000   0.000036  -0.001519   0.013743  -0.057698
    19  H    0.000143  -0.001149  -0.017953  -0.050801   0.012786  -0.001629
    20  H    0.007498  -0.007591   0.004474  -0.000656   0.000108  -0.000001
    21  H    0.005586  -0.003415   0.007464  -0.000388  -0.000017   0.000000
    22  H    0.006039  -0.017449   0.008884  -0.000421  -0.000029   0.000000
    23  H   -0.001516  -0.010259   0.008879  -0.000038  -0.000174   0.000005
               7          8          9         10         11         12
     1  N    0.000029   0.000084  -0.000000  -0.000280  -0.084285  -0.039230
     2  S    0.000263  -0.000585   0.000002  -0.002311   0.261287   0.334027
     3  C   -0.001268   0.015878  -0.000188  -0.103395  -0.136068  -0.098500
     4  C   -0.159469   0.130018   0.004178   0.280599   0.012391  -0.016654
     5  C    0.102866  -0.171166   0.000775   0.050631   0.000172   0.001265
     6  C    0.288356   0.107525   0.003785  -0.124593   0.000003  -0.000008
     7  C    5.086275   0.256718  -0.064645   0.074223   0.000000   0.000083
     8  C    0.256718   5.365342   0.233899   0.249745  -0.000013  -0.002508
     9  Br  -0.064645   0.233899  34.927103  -0.068177  -0.000000  -0.000032
    10  C    0.074223   0.249745  -0.068177   5.090707   0.000550   0.024110
    11  C    0.000000  -0.000013  -0.000000   0.000550   4.954706  -0.042564
    12  N    0.000083  -0.002508  -0.000032   0.024110  -0.042564   6.916460
    13  H    0.000037  -0.000096   0.000000   0.000524   0.008226  -0.001577
    14  H    0.000107  -0.000788   0.000003   0.011179   0.008967   0.005317
    15  H    0.000065   0.000923  -0.000030  -0.012324   0.002691   0.004449
    16  H    0.014773  -0.001683   0.000020   0.014062  -0.000058   0.000074
    17  H   -0.074974   0.016358  -0.000203  -0.002119  -0.000000   0.000000
    18  H    0.441892  -0.065376  -0.000114   0.014043   0.000000   0.000001
    19  H    0.013674  -0.061567   0.000198   0.440915   0.000086   0.013570
    20  H   -0.000000   0.000001   0.000000  -0.000066   0.348638   0.004201
    21  H   -0.000000   0.000000   0.000000  -0.000014   0.361741   0.000717
    22  H   -0.000000   0.000002   0.000000  -0.000006   0.363854   0.002527
    23  H    0.000002   0.000084   0.000004  -0.000811  -0.004592   0.330916
              13         14         15         16         17         18
     1  N    0.331318  -0.000101   0.003609   0.003261  -0.000024   0.000000
     2  S   -0.007031  -0.013486  -0.006697   0.000468  -0.000009   0.000000
     3  C   -0.009370   0.340727   0.319293  -0.016134  -0.000363   0.000036
     4  C    0.003059  -0.006222   0.008663  -0.072378   0.016816  -0.001519
     5  C    0.002061  -0.008583   0.009938   0.453406  -0.073142   0.013743
     6  C    0.000092   0.000547  -0.000613  -0.063398   0.457122  -0.057698
     7  C    0.000037   0.000107   0.000065   0.014773  -0.074974   0.441892
     8  C   -0.000096  -0.000788   0.000923  -0.001683   0.016358  -0.065376
     9  Br   0.000000   0.000003  -0.000030   0.000020  -0.000203  -0.000114
    10  C    0.000524   0.011179  -0.012324   0.014062  -0.002119   0.014043
    11  C    0.008226   0.008967   0.002691  -0.000058  -0.000000   0.000000
    12  N   -0.001577   0.005317   0.004449   0.000074   0.000000   0.000001
    13  H    0.542159   0.000069  -0.000076  -0.000049   0.000006  -0.000001
    14  H    0.000069   0.617076  -0.020883   0.005465  -0.000008  -0.000000
    15  H   -0.000076  -0.020883   0.610334   0.000338   0.000006  -0.000001
    16  H   -0.000049   0.005465   0.000338   0.664177  -0.012539  -0.000253
    17  H    0.000006  -0.000008   0.000006  -0.012539   0.663677  -0.012564
    18  H   -0.000001  -0.000000  -0.000001  -0.000253  -0.012564   0.648127
    19  H    0.000023   0.000495   0.004139  -0.000266   0.000028  -0.000247
    20  H   -0.000844   0.000706   0.000158   0.000037  -0.000000  -0.000000
    21  H   -0.000428  -0.000340  -0.000468  -0.000001   0.000000  -0.000000
    22  H   -0.000380  -0.001545   0.001027  -0.000000   0.000000  -0.000000
    23  H    0.001795  -0.000354  -0.000712  -0.000006   0.000000  -0.000000
              19         20         21         22         23
     1  N    0.000143   0.007498   0.005586   0.006039  -0.001516
     2  S   -0.001149  -0.007591  -0.003415  -0.017449  -0.010259
     3  C   -0.017953   0.004474   0.007464   0.008884   0.008879
     4  C   -0.050801  -0.000656  -0.000388  -0.000421  -0.000038
     5  C    0.012786   0.000108  -0.000017  -0.000029  -0.000174
     6  C   -0.001629  -0.000001   0.000000   0.000000   0.000005
     7  C    0.013674  -0.000000  -0.000000  -0.000000   0.000002
     8  C   -0.061567   0.000001   0.000000   0.000002   0.000084
     9  Br   0.000198   0.000000   0.000000   0.000000   0.000004
    10  C    0.440915  -0.000066  -0.000014  -0.000006  -0.000811
    11  C    0.000086   0.348638   0.361741   0.363854  -0.004592
    12  N    0.013570   0.004201   0.000717   0.002527   0.330916
    13  H    0.000023  -0.000844  -0.000428  -0.000380   0.001795
    14  H    0.000495   0.000706  -0.000340  -0.001545  -0.000354
    15  H    0.004139   0.000158  -0.000468   0.001027  -0.000712
    16  H   -0.000266   0.000037  -0.000001  -0.000000  -0.000006
    17  H    0.000028  -0.000000   0.000000   0.000000   0.000000
    18  H   -0.000247  -0.000000  -0.000000  -0.000000  -0.000000
    19  H    0.625123  -0.000009  -0.000004   0.000003  -0.000240
    20  H   -0.000009   0.582282  -0.005746  -0.014921  -0.000116
    21  H   -0.000004  -0.005746   0.555343  -0.009723   0.001698
    22  H    0.000003  -0.014921  -0.009723   0.589682  -0.000107
    23  H   -0.000240  -0.000116   0.001698  -0.000107   0.548383
 Mulliken charges:
               1
     1  N   -0.436556
     2  S    0.341502
     3  C    0.031124
     4  C   -0.125026
     5  C    0.010404
     6  C   -0.016598
     7  C    0.020994
     8  C   -0.072795
     9  Br  -0.036580
    10  C    0.062808
    11  C   -0.055733
    12  N   -0.436643
    13  H    0.130484
    14  H    0.061652
    15  H    0.076172
    16  H    0.010684
    17  H    0.021931
    18  H    0.019931
    19  H    0.022681
    20  H    0.081848
    21  H    0.087994
    22  H    0.072564
    23  H    0.127159
 Sum of Mulliken charges =  -0.00000
 Mulliken charges with hydrogens summed into heavy atoms:
               1
     1  N   -0.306072
     2  S    0.341502
     3  C    0.168947
     4  C   -0.125026
     5  C    0.021088
     6  C    0.005333
     7  C    0.040925
     8  C   -0.072795
     9  Br  -0.036580
    10  C    0.085489
    11  C    0.186673
    12  N   -0.309484
 Electronic spatial extent (au):  <R**2>=           4002.8793
 Charge=              0.0000 electrons
 Dipole moment (field-independent basis, Debye):
    X=             -2.0127    Y=              1.0315    Z=             -1.0137  Tot=              2.4784
 Quadrupole moment (field-independent basis, Debye-Ang):
   XX=            -86.9983   YY=            -88.6339   ZZ=            -89.0831
   XY=              5.1429   XZ=              8.3014   YZ=             -0.9346
 Traceless Quadrupole moment (field-independent basis, Debye-Ang):
   XX=              1.2402   YY=             -0.3954   ZZ=             -0.8447
   XY=              5.1429   XZ=              8.3014   YZ=             -0.9346
 Octapole moment (field-independent basis, Debye-Ang**2):
  XXX=             53.8672  YYY=            -13.3252  ZZZ=              9.3470  XYY=             34.5181
  XXY=            -29.7137  XXZ=            -22.7807  XZZ=             22.6395  YZZ=            -19.7378
  YYZ=             10.4362  XYZ=             13.6847
 Hexadecapole moment (field-independent basis, Debye-Ang**3):
 XXXX=          -3338.4065 YYYY=           -862.1473 ZZZZ=           -315.5999 XXXY=             11.3470
 XXXZ=            121.3499 YYYX=            -79.0883 YYYZ=             -0.4366 ZZZX=              3.1123
 ZZZY=             -0.7907 XXYY=           -703.6502 XXZZ=           -655.2785 YYZZ=           -198.0555
 XXYZ=            -26.7461 YYXZ=              5.7561 ZZXY=             -8.6952
 N-N= 1.090482977849D+03 E-N=-1.025277481393D+04  KE= 3.384197898420D+03
   1 Symmetry operations used in ECPInt.
 ECPInt:  NShTT=    6441 NPrTT=   25202 LenC2=    6107 LenP2D=   17472.
 LDataN:  DoStor=T MaxTD1= 5 Len=  102
 Calling FoFJK, ICntrl=      2127 FMM=F ISym2X=0 I1Cent= 0 IOpClX= 0 NMat=1 NMatS=1 NMatT=0.
 ***** Axes restored to original set *****
 -------------------------------------------------------------------
 Center     Atomic                   Forces (Hartrees/Bohr)
 Number     Number              X              Y              Z
 -------------------------------------------------------------------
      1        7          -0.017619214    0.003738000   -0.006777974
      2       16          -0.008597130   -0.004382207   -0.002303924
      3        6           0.000734830   -0.000398069    0.015210445
      4        6          -0.002521075   -0.000668035   -0.003383102
      5        6          -0.001632207   -0.000551753   -0.000127845
      6        6           0.000068770   -0.000358664    0.000140930
      7        6           0.000092212    0.000402374    0.000380682
      8        6           0.011904234   -0.007107615    0.004256414
      9       35          -0.004086047    0.002461275   -0.001651990
     10        6           0.001305906   -0.000766606   -0.000043851
     11        6           0.013962867    0.007739510    0.005774941
     12        7           0.011298249   -0.006359710   -0.015009973
     13        1           0.012369459    0.001128027    0.004046141
     14        1          -0.006177972    0.003467422   -0.004111605
     15        1           0.001079234   -0.007328445   -0.005181046
     16        1          -0.007736380    0.004303013   -0.002765855
     17        1          -0.000388210    0.009358931    0.000246551
     18        1           0.006990686    0.004312189    0.003175293
     19        1           0.000338571   -0.008449458    0.000331857
     20        1          -0.005384708    0.007895184   -0.005120832
     21        1          -0.003183424   -0.002945841    0.009135351
     22        1           0.004047127   -0.006909638   -0.006263203
     23        1          -0.006865779    0.001420116    0.010042594
 -------------------------------------------------------------------
 Cartesian Forces:  Max     0.017619214 RMS     0.006322125

 GradGradGradGradGradGradGradGradGradGradGradGradGradGradGradGradGradGrad
 Berny optimization.
 FormGI is forming the generalized inverse of G from B-inverse, IUseBI=4.
 Internal  Forces:  Max     0.012624286 RMS     0.004382248
 Search for a local minimum.
 Step number   1 out of a maximum of  125
 All quantities printed in internal units (Hartrees-Bohrs-Radians)
 Mixed Optimization -- RFO/linear search
 Second derivative matrix not updated -- first step.
 ITU=  0
     Eigenvalues ---    0.00230   0.00230   0.01012   0.01745   0.02218
     Eigenvalues ---    0.02252   0.02271   0.02289   0.02295   0.02301
     Eigenvalues ---    0.02303   0.02314   0.03497   0.03503   0.05067
     Eigenvalues ---    0.05874   0.05962   0.06089   0.06304   0.07525
     Eigenvalues ---    0.08080   0.08477   0.12005   0.14452   0.15996
     Eigenvalues ---    0.16000   0.16000   0.16000   0.16000   0.16000
     Eigenvalues ---    0.16000   0.16000   0.16000   0.18028   0.18927
     Eigenvalues ---    0.21617   0.22000   0.22028   0.23443   0.23500
     Eigenvalues ---    0.23932   0.24890   0.25000   0.34409   0.35272
     Eigenvalues ---    0.35432   0.35593   0.35642   0.35792   0.36045
     Eigenvalues ---    0.36066   0.36128   0.36163   0.43327   0.43597
     Eigenvalues ---    0.46530   0.46626   0.47410   0.47782   0.48343
     Eigenvalues ---    0.48656   0.66539   0.66658
 RFO step:  Lambda=-7.69428287D-03 EMin= 2.30000000D-03
 Linear search not attempted -- first point.
 Iteration  1 RMS(Cart)=  0.04961268 RMS(Int)=  0.00100867
 Iteration  2 RMS(Cart)=  0.00140004 RMS(Int)=  0.00009131
 Iteration  3 RMS(Cart)=  0.00000274 RMS(Int)=  0.00009129
 Iteration  4 RMS(Cart)=  0.00000000 RMS(Int)=  0.00009129
 Variable       Old X    -DE/DX   Delta X   Delta X   Delta X     New X
                                 (Linear)    (Quad)   (Total)
    R1        2.89730   0.00438   0.00000   0.00649   0.00649   2.90379
    R2        1.90239   0.01091   0.00000   0.02306   0.02306   1.92544
    R3        3.52378  -0.00566   0.00000  -0.02529  -0.02529   3.49849
    R4        3.45705  -0.01140   0.00000  -0.04617  -0.04617   3.41088
    R5        2.89812   0.00411   0.00000   0.00611   0.00611   2.90424
    R6        2.79946   0.00516   0.00000   0.01467   0.01467   2.81412
    R7        2.05236   0.00803   0.00000   0.02228   0.02228   2.07464
    R8        2.04980   0.00880   0.00000   0.02431   0.02431   2.07411
    R9        2.62938   0.00832   0.00000   0.01738   0.01738   2.64676
   R10        2.62839   0.01044   0.00000   0.02179   0.02179   2.65018
   R11        2.61491   0.00939   0.00000   0.01905   0.01906   2.63397
   R12        2.04011   0.00927   0.00000   0.02518   0.02518   2.06529
   R13        2.61572   0.00953   0.00000   0.01939   0.01940   2.63511
   R14        2.03978   0.00937   0.00000   0.02543   0.02543   2.06521
   R15        2.61662   0.00925   0.00000   0.01889   0.01889   2.63551
   R16        2.03882   0.00880   0.00000   0.02386   0.02386   2.06267
   R17        3.59916  -0.00505   0.00000  -0.02685  -0.02685   3.57231
   R18        2.61088   0.00898   0.00000   0.01814   0.01814   2.62902
   R19        2.03827   0.00845   0.00000   0.02287   0.02287   2.06115
   R20        2.04407   0.01081   0.00000   0.02957   0.02957   2.07364
   R21        2.04723   0.00956   0.00000   0.02629   0.02629   2.07352
   R22        2.04646   0.01003   0.00000   0.02756   0.02756   2.07401
   R23        1.90132   0.01056   0.00000   0.02227   0.02227   1.92359
    A1        1.99871  -0.01262   0.00000  -0.07528  -0.07528   1.92343
    A2        1.99437  -0.00236   0.00000  -0.01948  -0.01941   1.97495
    A3        1.76561  -0.00059   0.00000  -0.00044  -0.00052   1.76509
    A4        2.18131   0.00324   0.00000   0.02652   0.02646   2.20778
    A5        1.72962   0.00182   0.00000   0.00282   0.00279   1.73240
    A6        1.76112  -0.00116   0.00000  -0.00955  -0.00948   1.75163
    A7        1.98768  -0.00125   0.00000  -0.00534  -0.00544   1.98225
    A8        1.85532   0.00325   0.00000   0.01668   0.01646   1.87178
    A9        1.87110  -0.00297   0.00000  -0.02711  -0.02706   1.84404
   A10        1.82894   0.00038   0.00000   0.01358   0.01321   1.84215
   A11        1.97047  -0.00051   0.00000  -0.00750  -0.00738   1.96308
   A12        1.96870   0.00016   0.00000   0.01587   0.01552   1.98422
   A13        1.95755  -0.00022   0.00000  -0.01076  -0.01066   1.94688
   A14        2.10858  -0.00266   0.00000  -0.01040  -0.01040   2.09818
   A15        2.08857   0.00214   0.00000   0.00832   0.00833   2.09690
   A16        2.08232   0.00052   0.00000   0.00200   0.00199   2.08431
   A17        2.10298  -0.00045   0.00000  -0.00206  -0.00207   2.10092
   A18        2.08616   0.00006   0.00000   0.00009   0.00009   2.08625
   A19        2.09403   0.00038   0.00000   0.00198   0.00199   2.09602
   A20        2.10254   0.00017   0.00000   0.00066   0.00065   2.10320
   A21        2.09485  -0.00014   0.00000  -0.00069  -0.00069   2.09416
   A22        2.08578  -0.00002   0.00000   0.00004   0.00004   2.08582
   A23        2.07089   0.00027   0.00000   0.00123   0.00123   2.07212
   A24        2.11081   0.00009   0.00000   0.00073   0.00073   2.11154
   A25        2.10147  -0.00036   0.00000  -0.00195  -0.00195   2.09952
   A26        2.08015   0.00012   0.00000   0.00040   0.00040   2.08055
   A27        2.12396  -0.00035   0.00000  -0.00127  -0.00127   2.12269
   A28        2.07907   0.00024   0.00000   0.00086   0.00086   2.07993
   A29        2.08354  -0.00017   0.00000  -0.00064  -0.00064   2.08290
   A30        2.09164   0.00034   0.00000   0.00186   0.00187   2.09350
   A31        2.10780  -0.00018   0.00000  -0.00125  -0.00124   2.10656
   A32        1.87159   0.00229   0.00000   0.01658   0.01665   1.88824
   A33        1.88163  -0.00491   0.00000  -0.03148  -0.03160   1.85003
   A34        1.90240  -0.00194   0.00000  -0.01231  -0.01247   1.88993
   A35        1.91946   0.00139   0.00000   0.00988   0.01002   1.92948
   A36        1.95588   0.00039   0.00000   0.00672   0.00676   1.96264
   A37        1.93038   0.00249   0.00000   0.00889   0.00847   1.93885
   A38        2.00048  -0.01133   0.00000  -0.06757  -0.06757   1.93292
    D1       -1.55717   0.00235   0.00000   0.03980   0.03991  -1.51726
    D2        2.88620   0.00135   0.00000   0.04322   0.04330   2.92950
    D3        0.61858   0.00110   0.00000   0.02926   0.02907   0.64765
    D4        1.09661  -0.00037   0.00000  -0.03547  -0.03551   1.06110
    D5       -1.01516   0.00005   0.00000  -0.02134  -0.02127  -1.03643
    D6       -3.09821   0.00153   0.00000  -0.00287  -0.00272  -3.10093
    D7        2.95878  -0.00081   0.00000  -0.04040  -0.04049   2.91829
    D8        0.84701  -0.00039   0.00000  -0.02627  -0.02625   0.82076
    D9       -1.23604   0.00109   0.00000  -0.00779  -0.00770  -1.24374
   D10       -1.28855  -0.00191   0.00000  -0.04784  -0.04801  -1.33656
   D11        2.88286  -0.00149   0.00000  -0.03371  -0.03377   2.84910
   D12        0.79981  -0.00001   0.00000  -0.01523  -0.01522   0.78460
   D13        0.83078  -0.00168   0.00000  -0.00635  -0.00633   0.82445
   D14       -1.23539  -0.00194   0.00000  -0.01022  -0.01002  -1.24541
   D15        2.95166  -0.00096   0.00000   0.00452   0.00444   2.95610
   D16       -1.21339   0.00043   0.00000   0.01352   0.01349  -1.19990
   D17        3.00363   0.00016   0.00000   0.00965   0.00981   3.01343
   D18        0.90750   0.00115   0.00000   0.02438   0.02426   0.93176
   D19       -3.06845   0.00118   0.00000   0.02449   0.02441  -3.04404
   D20        1.14856   0.00092   0.00000   0.02062   0.02073   1.16929
   D21       -0.94757   0.00190   0.00000   0.03535   0.03518  -0.91239
   D22        0.50719   0.00199   0.00000   0.03592   0.03604   0.54323
   D23        2.77987  -0.00003   0.00000   0.01909   0.01901   2.79888
   D24       -1.66798   0.00106   0.00000   0.01571   0.01568  -1.65231
   D25       -1.59725   0.00169   0.00000   0.03490   0.03501  -1.56224
   D26        1.45121   0.00169   0.00000   0.03398   0.03409   1.48529
   D27        0.44941  -0.00016   0.00000   0.00829   0.00831   0.45772
   D28       -2.78532  -0.00016   0.00000   0.00737   0.00739  -2.77793
   D29        2.69111  -0.00077   0.00000   0.00062   0.00049   2.69160
   D30       -0.54363  -0.00077   0.00000  -0.00030  -0.00043  -0.54405
   D31        3.06571   0.00023   0.00000   0.00445   0.00445   3.07015
   D32       -0.07055   0.00017   0.00000   0.00318   0.00319  -0.06737
   D33        0.01693   0.00014   0.00000   0.00502   0.00502   0.02195
   D34       -3.11933   0.00009   0.00000   0.00376   0.00376  -3.11558
   D35       -3.06537  -0.00006   0.00000  -0.00573  -0.00572  -3.07110
   D36        0.05479  -0.00011   0.00000  -0.00670  -0.00670   0.04810
   D37       -0.01551  -0.00024   0.00000  -0.00730  -0.00731  -0.02282
   D38        3.10465  -0.00029   0.00000  -0.00827  -0.00828   3.09638
   D39       -0.00718  -0.00001   0.00000  -0.00088  -0.00088  -0.00805
   D40        3.13895  -0.00014   0.00000  -0.00442  -0.00442   3.13453
   D41        3.12906   0.00005   0.00000   0.00038   0.00039   3.12944
   D42       -0.00800  -0.00008   0.00000  -0.00316  -0.00316  -0.01116
   D43       -0.00390  -0.00004   0.00000  -0.00094  -0.00094  -0.00484
   D44       -3.14098  -0.00009   0.00000  -0.00267  -0.00267   3.13953
   D45        3.13318   0.00009   0.00000   0.00259   0.00259   3.13577
   D46       -0.00391   0.00003   0.00000   0.00086   0.00086  -0.00305
   D47       -3.13522   0.00005   0.00000   0.00142   0.00142  -3.13381
   D48        0.00521  -0.00006   0.00000  -0.00145  -0.00146   0.00376
   D49        0.00189   0.00010   0.00000   0.00315   0.00315   0.00504
   D50       -3.14086  -0.00000   0.00000   0.00028   0.00027  -3.14059
   D51        0.00456   0.00019   0.00000   0.00559   0.00558   0.01014
   D52       -3.11540   0.00023   0.00000   0.00653   0.00652  -3.10888
   D53       -3.13819   0.00008   0.00000   0.00272   0.00271  -3.13548
   D54        0.02503   0.00013   0.00000   0.00366   0.00365   0.02869
         Item               Value     Threshold  Converged?
 Maximum Force            0.012624     0.000450     NO 
 RMS     Force            0.004382     0.000300     NO 
 Maximum Displacement     0.227691     0.001800     NO 
 RMS     Displacement     0.050017     0.001200     NO 
 Predicted change in Energy=-4.034015D-03
 GradGradGradGradGradGradGradGradGradGradGradGradGradGradGradGradGradGrad

                          Input orientation:                          
 ---------------------------------------------------------------------
 Center     Atomic      Atomic             Coordinates (Angstroms)
 Number     Number       Type             X           Y           Z
 ---------------------------------------------------------------------
      1          7           0       -3.398565    0.516441    0.808240
      2         16           0       -2.886221   -0.729460    0.069026
      3          6           0       -1.900195   -0.323900   -1.444467
      4          6           0       -0.721333    0.471856   -1.003235
      5          6           0       -0.802396    1.867947   -0.925460
      6          6           0        0.269681    2.609780   -0.432392
      7          6           0        1.432651    1.972496   -0.001302
      8          6           0        1.498532    0.580999   -0.068024
      9         35           0        3.063757   -0.297842    0.524654
     10          6           0        0.438687   -0.176869   -0.555717
     11          6           0       -4.400905   -1.314431   -0.719275
     12          7           0       -2.028030   -1.856987    0.664101
     13          1           0       -2.695735    0.848688    1.466876
     14          1           0       -2.575145    0.250035   -2.092787
     15          1           0       -1.636961   -1.290920   -1.891950
     16          1           0       -1.715024    2.373550   -1.250913
     17          1           0        0.202117    3.699324   -0.380669
     18          1           0        2.277587    2.545852    0.384394
     19          1           0        0.494535   -1.266014   -0.572935
     20          1           0       -4.891141   -0.457174   -1.197711
     21          1           0       -5.026841   -1.714840    0.088102
     22          1           0       -4.133858   -2.099484   -1.438253
     23          1           0       -2.236166   -1.985431    1.652203
 ---------------------------------------------------------------------
                    Distance matrix (angstroms):
                    1          2          3          4          5
     1  N    0.000000
     2  S    1.536620   0.000000
     3  C    2.833015   1.851320   0.000000
     4  C    3.232801   2.698081   1.489170   0.000000
     5  C    3.401820   3.475321   2.505739   1.400604   0.000000
     6  C    4.401961   4.621868   3.786705   2.424601   1.393837
     7  C    5.110392   5.094917   4.296979   2.809883   2.420833
     8  C    4.975295   4.578444   3.776875   2.411293   2.772310
     9  Br   6.519593   5.982988   5.340313   4.153768   4.662683
    10  C    4.131048   3.427926   2.506365   1.402414   2.420386
    11  C    2.586519   1.804959   2.785786   4.100086   4.808254
    12  N    2.744504   1.536855   2.610125   3.148170   4.231314
    13  H    1.018901   2.116795   3.237864   3.184606   3.216659
    14  H    3.027367   2.393661   1.097851   2.161700   2.668882
    15  H    3.696056   2.391927   1.097571   2.176136   3.407205
    16  H    3.243960   3.569680   2.710718   2.159909   1.092907
    17  H    4.950673   5.417951   4.662373   3.414221   2.158654
    18  H    6.042918   6.123075   5.388327   3.901346   3.414904
    19  H    4.499002   3.482746   2.716961   2.164182   3.409988
    20  H    2.683197   2.387146   3.004066   4.276472   4.711491
    21  H    2.854557   2.356606   3.749586   4.950763   5.631129
    22  H    3.525685   2.388610   2.853417   4.294923   5.205969
    23  H    2.884928   2.122849   3.530287   3.922286   4.852687
                    6          7          8          9         10
     6  C    0.000000
     7  C    1.394442   0.000000
     8  C    2.399748   1.394653   0.000000
     9  Br   4.144523   2.844569   1.890386   0.000000
    10  C    2.794492   2.432100   1.391215   2.841272   0.000000
    11  C    6.107054   6.734223   6.230581   7.635575   4.974179
    12  N    5.141380   5.204231   4.349302   5.326977   3.224197
    13  H    3.937303   4.523502   4.474310   5.947610   3.868753
    14  H    4.051956   4.837728   4.561145   6.240864   3.409988
    15  H    4.580509   4.862814   4.081924   5.378005   2.708311
    16  H    2.159823   3.410313   3.865153   5.755496   3.409752
    17  H    1.092861   2.154082   3.391517   4.998593   3.887349
    18  H    2.168620   1.091519   2.161540   2.953698   3.417392
    19  H    3.884854   3.419762   2.162036   2.956850   1.090712
    20  H    6.051942   6.879320   6.571295   8.140783   5.375667
    21  H    6.857580   7.438379   6.919230   8.225342   5.714181
    22  H    6.525342   7.044990   6.386419   7.674933   5.038204
    23  H    5.633895   5.644421   4.847031   5.675254   3.911604
                   11         12         13         14         15
    11  C    0.000000
    12  N    2.799756   0.000000
    13  H    3.516524   2.900165   0.000000
    14  H    2.769023   3.512735   3.611666   0.000000
    15  H    3.002516   2.647029   4.120757   1.815232   0.000000
    16  H    4.593234   4.654321   3.267014   2.440877   3.720936
    17  H    6.814705   6.077639   4.465098   4.747856   5.528899
    18  H    7.792440   6.164541   5.365265   5.912378   5.935171
    19  H    4.897866   2.871035   4.337120   3.745836   2.506730
    20  H    1.097325   3.690965   3.691220   2.581694   3.430276
    21  H    1.097261   3.056934   3.729175   3.824634   3.948620
    22  H    1.097521   2.985500   4.381746   2.894519   2.663477
    23  H    3.280282   1.017921   2.877113   4.374604   3.660930
                   16         17         18         19         20
    16  H    0.000000
    17  H    2.488058   0.000000
    18  H    4.317970   2.494673   0.000000
    19  H    4.311407   4.977656   4.315793   0.000000
    20  H    4.254827   6.624599   7.931701   5.481795   0.000000
    21  H    5.429183   7.541547   8.461439   5.578890   1.803733
    22  H    5.088604   7.317469   8.124520   4.781786   1.824424
    23  H    5.263116   6.511086   6.520263   3.595209   4.184074
                   21         22         23
    21  H    0.000000
    22  H    1.809732   0.000000
    23  H    3.210530   3.628383   0.000000
 Stoichiometry    C8H11BrN2S
 Framework group  C1[X(C8H11BrN2S)]
 Deg. of freedom    63
 Full point group                 C1      NOp   1
 Largest Abelian subgroup         C1      NOp   1
 Largest concise Abelian subgroup C1      NOp   1
                         Standard orientation:                         
 ---------------------------------------------------------------------
 Center     Atomic      Atomic             Coordinates (Angstroms)
 Number     Number       Type             X           Y           Z
 ---------------------------------------------------------------------
      1          7           0       -3.013320    0.567987    1.359066
      2         16           0       -2.746600   -0.476405    0.263937
      3          6           0       -1.863778    0.220055   -1.206761
      4          6           0       -0.551683    0.738056   -0.729574
      5          6           0       -0.435879    2.060907   -0.284214
      6          6           0        0.768569    2.524392    0.242347
      7          6           0        1.870707    1.675940    0.341800
      8          6           0        1.741604    0.356065   -0.089846
      9         35           0        3.223296   -0.809461    0.050501
     10          6           0        0.547570   -0.125500   -0.616966
     11          6           0       -4.394573   -0.663275   -0.448201
     12          7           0       -1.995545   -1.806564    0.432814
     13          1           0       -2.212505    0.633233    1.985641
     14          1           0       -2.513868    1.015959   -1.593022
     15          1           0       -1.777297   -0.610846   -1.918651
     16          1           0       -1.298803    2.728492   -0.348544
     17          1           0        0.853847    3.559668    0.581873
     18          1           0        2.818167    2.031202    0.751097
     19          1           0        0.454081   -1.168552   -0.921849
     20          1           0       -4.808063    0.338151   -0.622252
     21          1           0       -4.988910   -1.200433    0.301603
     22          1           0       -4.305680   -1.246671   -1.373566
     23          1           0       -2.123897   -2.176381    1.372455
 ---------------------------------------------------------------------
 Rotational constants (GHZ):           1.2642540           0.2836150           0.2502862
 Standard basis: def2SVP (5D, 7F)
 There are   259 symmetry adapted cartesian basis functions of A   symmetry.
 There are   245 symmetry adapted basis functions of A   symmetry.
   245 basis functions,   444 primitive gaussians,   259 cartesian basis functions
    62 alpha electrons       62 beta electrons
       nuclear repulsion energy      1087.3788455001 Hartrees.
 NAtoms=   23 NActive=   23 NUniq=   23 SFac= 1.00D+00 NAtFMM=   60 NAOKFM=F Big=F
 Integral buffers will be    131072 words long.
 Raffenetti 2 integral format.
 Two-electron integral symmetry is turned on.
 Nuclear repulsion after empirical dispersion term =     1087.3511439424 Hartrees.
 One-electron integrals computed using PRISM.
   1 Symmetry operations used in ECPInt.
 ECPInt:  NShTT=    6441 NPrTT=   25202 LenC2=    6106 LenP2D=   17458.
 LDataN:  DoStor=T MaxTD1= 4 Len=   56
 NBasis=   245 RedAO= T EigKep=  2.74D-04  NBF=   245
 NBsUse=   245 1.00D-06 EigRej= -1.00D+00 NBFU=   245
 Initial guess from the checkpoint file:  "SDI2997_4.chk"
 B after Tr=     0.000000   -0.000000    0.000000
         Rot=    0.999977    0.006661    0.000386    0.000795 Ang=   0.77 deg.
 ExpMin= 1.22D-01 ExpMax= 1.13D+05 ExpMxC= 1.70D+04 IAcc=3 IRadAn=         5 AccDes= 0.00D+00
 Harris functional with IExCor= 1009 and IRadAn=       5 diagonalized for initial guess.
 HarFok:  IExCor= 1009 AccDes= 0.00D+00 IRadAn=         5 IDoV= 1 UseB2=F ITyADJ=14
 ICtDFT=  3500011 ScaDFX=  1.000000  1.000000  1.000000  1.000000
 FoFCou: FMM=F IPFlag=           0 FMFlag=      100000 FMFlg1=           0
         NFxFlg=           0 DoJE=T BraDBF=F KetDBF=T FulRan=T
         wScrn=  0.000000 ICntrl=       500 IOpCl=  0 I1Cent=   200000004 NGrid=           0
         NMat0=    1 NMatS0=      1 NMatT0=    0 NMatD0=    1 NMtDS0=    0 NMtDT0=    0
 Petite list used in FoFCou.
 Requested convergence on RMS density matrix=1.00D-08 within 128 cycles.
 Requested convergence on MAX density matrix=1.00D-06.
 Requested convergence on             energy=1.00D-06.
 No special actions if energy rises.
 Integral accuracy reduced to 1.0D-05 until final iterations.
 Initial convergence to 1.0D-05 achieved.  Increase integral accuracy.
 SCF Done:  E(RPBE1PBE) =  -3391.55259952     A.U. after   12 cycles
            NFock= 12  Conv=0.70D-08     -V/T= 2.0022
   1 Symmetry operations used in ECPInt.
 ECPInt:  NShTT=    6441 NPrTT=   25202 LenC2=    6106 LenP2D=   17458.
 LDataN:  DoStor=T MaxTD1= 5 Len=  102
 Calling FoFJK, ICntrl=      2127 FMM=F ISym2X=0 I1Cent= 0 IOpClX= 0 NMat=1 NMatS=1 NMatT=0.
 ***** Axes restored to original set *****
 -------------------------------------------------------------------
 Center     Atomic                   Forces (Hartrees/Bohr)
 Number     Number              X              Y              Z
 -------------------------------------------------------------------
      1        7          -0.006594795    0.004983173    0.005153375
      2       16          -0.002556112   -0.001009186   -0.012054408
      3        6          -0.000203369   -0.000258594    0.004830607
      4        6           0.001384178   -0.000062467   -0.000274282
      5        6           0.000050679   -0.000249731    0.000150773
      6        6           0.000575059   -0.000772090    0.000259924
      7        6          -0.002026468    0.000616075   -0.000744337
      8        6           0.001416989   -0.000931812    0.000504924
      9       35          -0.000336583    0.000209513   -0.000144214
     10        6          -0.001826542    0.001552022   -0.000729719
     11        6           0.002545594    0.002146366    0.001250983
     12        7           0.007300480   -0.005329545    0.001776254
     13        1           0.003902550    0.000767291   -0.000586754
     14        1           0.000186826   -0.000101059   -0.000773564
     15        1           0.000228898    0.000675520   -0.001002532
     16        1           0.000330659   -0.000315837    0.000226699
     17        1           0.000022215   -0.000336273   -0.000032120
     18        1          -0.000173653   -0.000304520   -0.000147581
     19        1          -0.000068917    0.000183696    0.000183640
     20        1          -0.000718477   -0.001085564   -0.000206880
     21        1          -0.000051593    0.000021784   -0.000068454
     22        1          -0.000305894   -0.000100233    0.000543384
     23        1          -0.003081725   -0.000298530    0.001884282
 -------------------------------------------------------------------
 Cartesian Forces:  Max     0.012054408 RMS     0.002468906

 GradGradGradGradGradGradGradGradGradGradGradGradGradGradGradGradGradGrad
 Berny optimization.
 Using GEDIIS/GDIIS optimizer.
 FormGI is forming the generalized inverse of G from B-inverse, IUseBI=4.
 Internal  Forces:  Max     0.007901302 RMS     0.001359570
 Search for a local minimum.
 Step number   2 out of a maximum of  125
 All quantities printed in internal units (Hartrees-Bohrs-Radians)
 Mixed Optimization -- RFO/linear search
 Update second derivatives using D2CorX and points    1    2
 DE= -4.34D-03 DEPred=-4.03D-03 R= 1.07D+00
 TightC=F SS=  1.41D+00  RLast= 2.19D-01 DXNew= 5.0454D-01 6.5665D-01
 Trust test= 1.07D+00 RLast= 2.19D-01 DXMaxT set to 5.05D-01
 ITU=  1  0
 Use linear search instead of GDIIS.
     Eigenvalues ---    0.00230   0.00233   0.01013   0.01745   0.02217
     Eigenvalues ---    0.02252   0.02270   0.02289   0.02295   0.02301
     Eigenvalues ---    0.02303   0.02314   0.03273   0.03500   0.04972
     Eigenvalues ---    0.05867   0.05915   0.06219   0.06268   0.07857
     Eigenvalues ---    0.08277   0.08552   0.12078   0.13683   0.14705
     Eigenvalues ---    0.15996   0.16000   0.16000   0.16000   0.16000
     Eigenvalues ---    0.16000   0.16000   0.16167   0.18040   0.18830
     Eigenvalues ---    0.21379   0.21999   0.22056   0.23350   0.23458
     Eigenvalues ---    0.23736   0.24905   0.25000   0.34456   0.35260
     Eigenvalues ---    0.35456   0.35599   0.35696   0.35883   0.36055
     Eigenvalues ---    0.36105   0.36151   0.37234   0.43446   0.43661
     Eigenvalues ---    0.45471   0.46581   0.47407   0.48322   0.48392
     Eigenvalues ---    0.50373   0.66600   0.68510
 RFO step:  Lambda=-1.07338945D-03 EMin= 2.29748567D-03
 Quartic linear search produced a step of  0.14615.
 Iteration  1 RMS(Cart)=  0.02538522 RMS(Int)=  0.00058968
 Iteration  2 RMS(Cart)=  0.00057480 RMS(Int)=  0.00003026
 Iteration  3 RMS(Cart)=  0.00000031 RMS(Int)=  0.00003026
 Variable       Old X    -DE/DX   Delta X   Delta X   Delta X     New X
                                 (Linear)    (Quad)   (Total)
    R1        2.90379   0.00776   0.00095   0.01318   0.01413   2.91792
    R2        1.92544   0.00256   0.00337   0.00588   0.00925   1.93469
    R3        3.49849  -0.00214  -0.00370  -0.01075  -0.01444   3.48404
    R4        3.41088  -0.00222  -0.00675  -0.00962  -0.01637   3.39451
    R5        2.90424   0.00790   0.00089   0.01346   0.01435   2.91858
    R6        2.81412  -0.00096   0.00214  -0.00345  -0.00131   2.81282
    R7        2.07464   0.00029   0.00326   0.00052   0.00378   2.07842
    R8        2.07411  -0.00013   0.00355  -0.00087   0.00268   2.07679
    R9        2.64676  -0.00120   0.00254  -0.00330  -0.00076   2.64600
   R10        2.65018  -0.00198   0.00318  -0.00520  -0.00202   2.64816
   R11        2.63397  -0.00102   0.00278  -0.00278   0.00000   2.63397
   R12        2.06529  -0.00049   0.00368  -0.00202   0.00167   2.06696
   R13        2.63511  -0.00147   0.00283  -0.00379  -0.00096   2.63416
   R14        2.06521  -0.00034   0.00372  -0.00154   0.00218   2.06739
   R15        2.63551  -0.00011   0.00276  -0.00052   0.00224   2.63775
   R16        2.06267  -0.00035   0.00349  -0.00153   0.00195   2.06462
   R17        3.57231  -0.00042  -0.00392  -0.00208  -0.00601   3.56631
   R18        2.62902  -0.00031   0.00265  -0.00101   0.00164   2.63066
   R19        2.06115  -0.00019   0.00334  -0.00102   0.00232   2.06347
   R20        2.07364  -0.00044   0.00432  -0.00194   0.00238   2.07603
   R21        2.07352  -0.00003   0.00384  -0.00058   0.00326   2.07679
   R22        2.07401  -0.00036   0.00403  -0.00166   0.00237   2.07638
   R23        1.92359   0.00250   0.00326   0.00572   0.00897   1.93256
    A1        1.92343  -0.00379  -0.01100  -0.02523  -0.03623   1.88719
    A2        1.97495  -0.00052  -0.00284  -0.00204  -0.00493   1.97002
    A3        1.76509   0.00058  -0.00008   0.00505   0.00496   1.77005
    A4        2.20778  -0.00089   0.00387  -0.01518  -0.01132   2.19645
    A5        1.73240   0.00103   0.00041   0.01401   0.01442   1.74682
    A6        1.75163   0.00076  -0.00139   0.00874   0.00737   1.75900
    A7        1.98225  -0.00056  -0.00079  -0.00399  -0.00489   1.97736
    A8        1.87178   0.00017   0.00241   0.00285   0.00520   1.87698
    A9        1.84404   0.00015  -0.00395   0.00347  -0.00046   1.84358
   A10        1.84215   0.00085   0.00193   0.01113   0.01299   1.85514
   A11        1.96308  -0.00018  -0.00108  -0.00368  -0.00476   1.95833
   A12        1.98422  -0.00039   0.00227  -0.00352  -0.00141   1.98281
   A13        1.94688  -0.00044  -0.00156  -0.00800  -0.00957   1.93731
   A14        2.09818  -0.00024  -0.00152  -0.00090  -0.00242   2.09576
   A15        2.09690  -0.00019   0.00122  -0.00101   0.00020   2.09710
   A16        2.08431   0.00042   0.00029   0.00150   0.00179   2.08610
   A17        2.10092  -0.00021  -0.00030  -0.00138  -0.00168   2.09923
   A18        2.08625   0.00001   0.00001   0.00003   0.00005   2.08629
   A19        2.09602   0.00020   0.00029   0.00134   0.00163   2.09765
   A20        2.10320  -0.00003   0.00010  -0.00027  -0.00017   2.10302
   A21        2.09416   0.00001  -0.00010   0.00011   0.00001   2.09417
   A22        2.08582   0.00002   0.00001   0.00016   0.00016   2.08599
   A23        2.07212   0.00052   0.00018   0.00284   0.00301   2.07514
   A24        2.11154  -0.00011   0.00011  -0.00036  -0.00025   2.11129
   A25        2.09952  -0.00041  -0.00029  -0.00248  -0.00277   2.09675
   A26        2.08055   0.00051   0.00006   0.00221   0.00227   2.08282
   A27        2.12269  -0.00106  -0.00019  -0.00464  -0.00483   2.11787
   A28        2.07993   0.00056   0.00013   0.00242   0.00255   2.08249
   A29        2.08290   0.00036  -0.00009   0.00185   0.00175   2.08465
   A30        2.09350  -0.00017   0.00027  -0.00086  -0.00059   2.09291
   A31        2.10656  -0.00020  -0.00018  -0.00101  -0.00119   2.10536
   A32        1.88824   0.00199   0.00243   0.01560   0.01803   1.90627
   A33        1.85003  -0.00026  -0.00462  -0.00270  -0.00734   1.84269
   A34        1.88993  -0.00007  -0.00182  -0.00047  -0.00236   1.88757
   A35        1.92948  -0.00065   0.00146  -0.00411  -0.00261   1.92688
   A36        1.96264  -0.00062   0.00099  -0.00149  -0.00054   1.96209
   A37        1.93885  -0.00028   0.00124  -0.00612  -0.00498   1.93387
   A38        1.93292  -0.00341  -0.00987  -0.02272  -0.03259   1.90033
    D1       -1.51726   0.00197   0.00583   0.05116   0.05698  -1.46028
    D2        2.92950   0.00068   0.00633   0.03343   0.03977   2.96927
    D3        0.64765   0.00168   0.00425   0.04737   0.05162   0.69927
    D4        1.06110  -0.00070  -0.00519  -0.00677  -0.01198   1.04912
    D5       -1.03643  -0.00065  -0.00311  -0.00574  -0.00883  -1.04527
    D6       -3.10093  -0.00062  -0.00040  -0.00346  -0.00380  -3.10473
    D7        2.91829   0.00031  -0.00592   0.00523  -0.00076   2.91753
    D8        0.82076   0.00036  -0.00384   0.00626   0.00238   0.82314
    D9       -1.24374   0.00039  -0.00113   0.00855   0.00742  -1.23632
   D10       -1.33656   0.00021  -0.00702   0.00739   0.00036  -1.33619
   D11        2.84910   0.00026  -0.00494   0.00842   0.00351   2.85261
   D12        0.78460   0.00030  -0.00222   0.01071   0.00855   0.79314
   D13        0.82445   0.00037  -0.00093   0.04061   0.03970   0.86415
   D14       -1.24541   0.00027  -0.00146   0.03896   0.03757  -1.20784
   D15        2.95610   0.00077   0.00065   0.04783   0.04849   3.00460
   D16       -1.19990   0.00045   0.00197   0.03719   0.03910  -1.16079
   D17        3.01343   0.00034   0.00143   0.03554   0.03698   3.05041
   D18        0.93176   0.00084   0.00355   0.04441   0.04790   0.97966
   D19       -3.04404  -0.00076   0.00357   0.02149   0.02504  -3.01901
   D20        1.16929  -0.00087   0.00303   0.01984   0.02291   1.19220
   D21       -0.91239  -0.00037   0.00514   0.02871   0.03383  -0.87856
   D22        0.54323   0.00116   0.00527   0.03361   0.03894   0.58218
   D23        2.79888   0.00048   0.00278   0.02745   0.03021   2.82909
   D24       -1.65231   0.00185   0.00229   0.04648   0.04872  -1.60358
   D25       -1.56224   0.00034   0.00512   0.01019   0.01532  -1.54692
   D26        1.48529   0.00028   0.00498   0.00519   0.01019   1.49549
   D27        0.45772   0.00052   0.00121   0.01412   0.01532   0.47304
   D28       -2.77793   0.00046   0.00108   0.00913   0.01019  -2.76774
   D29        2.69160  -0.00059   0.00007  -0.00334  -0.00326   2.68834
   D30       -0.54405  -0.00066  -0.00006  -0.00833  -0.00839  -0.55244
   D31        3.07015  -0.00001   0.00065  -0.00104  -0.00040   3.06976
   D32       -0.06737   0.00001   0.00047   0.00011   0.00058  -0.06679
   D33        0.02195   0.00008   0.00073   0.00405   0.00478   0.02673
   D34       -3.11558   0.00011   0.00055   0.00520   0.00575  -3.10982
   D35       -3.07110  -0.00001  -0.00084   0.00016  -0.00067  -3.07177
   D36        0.04810  -0.00004  -0.00098  -0.00134  -0.00231   0.04578
   D37       -0.02282  -0.00011  -0.00107  -0.00492  -0.00599  -0.02881
   D38        3.09638  -0.00014  -0.00121  -0.00642  -0.00764   3.08874
   D39       -0.00805  -0.00000  -0.00013  -0.00030  -0.00043  -0.00848
   D40        3.13453  -0.00002  -0.00065  -0.00107  -0.00172   3.13281
   D41        3.12944  -0.00003   0.00006  -0.00147  -0.00141   3.12803
   D42       -0.01116  -0.00005  -0.00046  -0.00224  -0.00270  -0.01386
   D43       -0.00484  -0.00005  -0.00014  -0.00253  -0.00266  -0.00750
   D44        3.13953  -0.00004  -0.00039  -0.00159  -0.00198   3.13755
   D45        3.13577  -0.00003   0.00038  -0.00176  -0.00138   3.13439
   D46       -0.00305  -0.00001   0.00013  -0.00082  -0.00069  -0.00374
   D47       -3.13381   0.00004   0.00021   0.00192   0.00213  -3.13168
   D48        0.00376   0.00003  -0.00021   0.00165   0.00144   0.00519
   D49        0.00504   0.00002   0.00046   0.00099   0.00145   0.00648
   D50       -3.14059   0.00002   0.00004   0.00072   0.00076  -3.13983
   D51        0.01014   0.00005   0.00082   0.00207   0.00289   0.01303
   D52       -3.10888   0.00008   0.00095   0.00358   0.00453  -3.10434
   D53       -3.13548   0.00004   0.00040   0.00180   0.00220  -3.13328
   D54        0.02869   0.00007   0.00053   0.00331   0.00384   0.03253
         Item               Value     Threshold  Converged?
 Maximum Force            0.007901     0.000450     NO 
 RMS     Force            0.001360     0.000300     NO 
 Maximum Displacement     0.118325     0.001800     NO 
 RMS     Displacement     0.025431     0.001200     NO 
 Predicted change in Energy=-6.214318D-04
 GradGradGradGradGradGradGradGradGradGradGradGradGradGradGradGradGradGrad

                          Input orientation:                          
 ---------------------------------------------------------------------
 Center     Atomic      Atomic             Coordinates (Angstroms)
 Number     Number       Type             X           Y           Z
 ---------------------------------------------------------------------
      1          7           0       -3.390240    0.526201    0.801171
      2         16           0       -2.887131   -0.729841    0.057212
      3          6           0       -1.895516   -0.324835   -1.443392
      4          6           0       -0.718288    0.471786   -1.001694
      5          6           0       -0.808556    1.866130   -0.911012
      6          6           0        0.262242    2.609011   -0.416744
      7          6           0        1.430266    1.973918    0.002109
      8          6           0        1.505567    0.582160   -0.073393
      9         35           0        3.074942   -0.291665    0.505438
     10          6           0        0.444432   -0.175026   -0.561823
     11          6           0       -4.399809   -1.315980   -0.714105
     12          7           0       -2.034961   -1.863074    0.669508
     13          1           0       -2.640149    0.854094    1.415990
     14          1           0       -2.567149    0.252605   -2.095421
[...]
 Alpha virt. eigenvalues --    1.61629   1.62454   1.62644   1.63843   1.65001
 Alpha virt. eigenvalues --    1.65336   1.66977   1.67463   1.68267   1.68906
 Alpha virt. eigenvalues --    1.70431   1.70691   1.72638   1.73580   1.74540
 Alpha virt. eigenvalues --    1.75854   1.77401   1.78347   1.79576   1.80022
 Alpha virt. eigenvalues --    1.80764   1.81347   1.85997   1.87699   1.88179
 Alpha virt. eigenvalues --    1.89885   1.90595   1.92932   1.95182   1.95945
 Alpha virt. eigenvalues --    1.96946   1.97619   1.98830   2.00519   2.01526
 Alpha virt. eigenvalues --    2.02427   2.03038   2.05183   2.06173   2.06952
 Alpha virt. eigenvalues --    2.09213   2.11072   2.11718   2.14034   2.14348
 Alpha virt. eigenvalues --    2.15944   2.16089   2.17676   2.19356   2.20147
 Alpha virt. eigenvalues --    2.21789   2.23055   2.25576   2.27456   2.28354
 Alpha virt. eigenvalues --    2.31302   2.32999   2.35122   2.37274   2.38817
 Alpha virt. eigenvalues --    2.41666   2.42176   2.43517   2.46249   2.47919
 Alpha virt. eigenvalues --    2.49025   2.50882   2.51859   2.53760   2.54581
 Alpha virt. eigenvalues --    2.55245   2.56618   2.57451   2.60718   2.61551
 Alpha virt. eigenvalues --    2.63264   2.64456   2.65324   2.66526   2.67245
 Alpha virt. eigenvalues --    2.68518   2.70066   2.70991   2.71973   2.73203
 Alpha virt. eigenvalues --    2.73463   2.76072   2.77013   2.77558   2.79110
 Alpha virt. eigenvalues --    2.80198   2.81993   2.82798   2.83507   2.84188
 Alpha virt. eigenvalues --    2.85437   2.87194   2.88741   2.89943   2.91878
 Alpha virt. eigenvalues --    2.93191   2.97407   2.99107   3.01230   3.02965
 Alpha virt. eigenvalues --    3.05060   3.05850   3.08605   3.10603   3.11319
 Alpha virt. eigenvalues --    3.12276   3.13069   3.14461   3.16155   3.17712
 Alpha virt. eigenvalues --    3.17994   3.20004   3.20821   3.22359   3.23584
 Alpha virt. eigenvalues --    3.25480   3.25973   3.28096   3.28633   3.31729
 Alpha virt. eigenvalues --    3.32450   3.33387   3.35070   3.35829   3.37061
 Alpha virt. eigenvalues --    3.39524   3.40645   3.41565   3.42953   3.43793
 Alpha virt. eigenvalues --    3.44309   3.45714   3.47807   3.49014   3.50376
 Alpha virt. eigenvalues --    3.52973   3.54686   3.55667   3.55983   3.56912
 Alpha virt. eigenvalues --    3.58536   3.60460   3.64392   3.65546   3.69007
 Alpha virt. eigenvalues --    3.71784   3.73885   3.76408   3.79619   3.80697
 Alpha virt. eigenvalues --    3.82099   3.84327   3.87320   3.90402   3.94978
 Alpha virt. eigenvalues --    3.97705   3.98811   4.03214   4.03573   4.05872
 Alpha virt. eigenvalues --    4.06736   4.08169   4.10540   4.11382   4.14131
 Alpha virt. eigenvalues --    4.14704   4.17116   4.17994   4.18734   4.19663
 Alpha virt. eigenvalues --    4.20192   4.22048   4.22594   4.23484   4.26767
 Alpha virt. eigenvalues --    4.27185   4.28692   4.29058   4.31318   4.32486
 Alpha virt. eigenvalues --    4.33698   4.36894   4.39230   4.41513   4.42901
 Alpha virt. eigenvalues --    4.46047   4.48127   4.52864   4.55586   4.59778
 Alpha virt. eigenvalues --    4.60409   4.64405   4.65596   4.69572   4.70724
 Alpha virt. eigenvalues --    4.72274   4.74457   4.74947   4.77265   4.80281
 Alpha virt. eigenvalues --    4.83628   4.89992   4.91747   5.00686   5.03354
 Alpha virt. eigenvalues --    5.08013   5.11928   5.14077   5.16015   5.19408
 Alpha virt. eigenvalues --    5.19748   5.21547   5.23803   5.37001   5.42313
 Alpha virt. eigenvalues --    5.43625   5.55690   5.58619   5.62629   7.79955
 Alpha virt. eigenvalues --    9.42039   9.47882   9.58301  21.59757  22.06700
 Alpha virt. eigenvalues --   22.30037  22.54238  22.69460  22.72693  22.79618
 Alpha virt. eigenvalues --   22.91149  23.23991  31.87922  31.93043
          Condensed to atoms (all electrons):
               1          2          3          4          5          6
     1  N    6.918261   0.490668  -0.058542  -0.003372   0.023134  -0.005021
     2  S    0.490668  14.157625   0.214222  -0.001667  -0.001190   0.000959
     3  C   -0.058542   0.214222   5.384375   0.288808  -0.124725   0.019581
     4  C   -0.003372  -0.001667   0.288808   5.107083   0.303293   0.113602
     5  C    0.023134  -0.001190  -0.124725   0.303293   5.247224   0.308604
     6  C   -0.005021   0.000959   0.019581   0.113602   0.308604   5.049673
     7  C    0.000809  -0.000536   0.000016  -0.176545   0.113376   0.327129
     8  C   -0.000083   0.002667   0.005679   0.143726  -0.139573   0.109408
     9  Br  -0.000002   0.000039  -0.001725   0.015526   0.000208   0.015947
    10  C    0.003207  -0.005075  -0.077452   0.253485   0.074449  -0.160045
    11  C   -0.081952   0.273200  -0.095728   0.001096   0.001494  -0.000266
    12  N   -0.079689   0.516958  -0.093216  -0.040662   0.012991  -0.001326
    13  H    0.315690  -0.018080  -0.010039   0.003858  -0.004236   0.000831
    14  H    0.001607  -0.017876   0.364608  -0.033642   0.004118  -0.000507
    15  H    0.003704  -0.013388   0.356487  -0.007340   0.010650  -0.001696
    16  H    0.007089   0.001083  -0.010897  -0.068172   0.448281  -0.058274
    17  H   -0.000208  -0.000036  -0.000218   0.014795  -0.058745   0.432747
    18  H    0.000001  -0.000005   0.000184  -0.003334   0.011075  -0.061182
    19  H    0.000337   0.000660  -0.004592  -0.068388   0.011849  -0.004523
    20  H    0.002105  -0.007108   0.003595   0.001045  -0.000122  -0.000011
    21  H    0.005291  -0.012106   0.008567  -0.000404  -0.000134   0.000013
    22  H    0.006512  -0.020643   0.008025  -0.000213   0.000046   0.000006
    23  H   -0.001623  -0.020096   0.013349   0.001094  -0.001062   0.000187
               7          8          9         10         11         12
     1  N    0.000809  -0.000083  -0.000002   0.003207  -0.081952  -0.079689
     2  S   -0.000536   0.002667   0.000039  -0.005075   0.273200   0.516958
     3  C    0.000016   0.005679  -0.001725  -0.077452  -0.095728  -0.093216
     4  C   -0.176545   0.143726   0.015526   0.253485   0.001096  -0.040662
     5  C    0.113376  -0.139573   0.000208   0.074449   0.001494   0.012991
     6  C    0.327129   0.109408   0.015947  -0.160045  -0.000266  -0.001326
     7  C    5.144688   0.334002  -0.070354   0.099786   0.000100   0.001441
     8  C    0.334002   4.927615   0.314878   0.265751  -0.000323  -0.007928
     9  Br  -0.070354   0.314878  34.890930  -0.071840  -0.000001   0.000036
    10  C    0.099786   0.265751  -0.071840   5.386710   0.003147   0.021881
    11  C    0.000100  -0.000323  -0.000001   0.003147   5.180362  -0.053023
    12  N    0.001441  -0.007928   0.000036   0.021881  -0.053023   6.933887
    13  H   -0.000004  -0.000211  -0.000000   0.002270   0.012360  -0.001116
    14  H    0.000590  -0.001385   0.000019   0.009454   0.006390   0.005369
    15  H    0.000483   0.001470  -0.000004  -0.003631   0.000949   0.002439
    16  H    0.012622  -0.003044   0.000060   0.012945  -0.000100   0.000466
    17  H   -0.056806   0.011297  -0.000511  -0.002328  -0.000003  -0.000008
    18  H    0.437968  -0.061227  -0.003204   0.015517   0.000000   0.000004
    19  H    0.016044  -0.066044  -0.004106   0.446407   0.000466   0.016461
    20  H   -0.000007   0.000026   0.000000  -0.000353   0.355177   0.005526
    21  H   -0.000003   0.000007   0.000000  -0.000070   0.371017   0.001460
    22  H    0.000000  -0.000010   0.000000  -0.000097   0.371478   0.001624
    23  H   -0.000126   0.000548  -0.000002  -0.002068  -0.007360   0.313525
              13         14         15         16         17         18
     1  N    0.315690   0.001607   0.003704   0.007089  -0.000208   0.000001
     2  S   -0.018080  -0.017876  -0.013388   0.001083  -0.000036  -0.000005
     3  C   -0.010039   0.364608   0.356487  -0.010897  -0.000218   0.000184
     4  C    0.003858  -0.033642  -0.007340  -0.068172   0.014795  -0.003334
     5  C   -0.004236   0.004118   0.010650   0.448281  -0.058745   0.011075
     6  C    0.000831  -0.000507  -0.001696  -0.058274   0.432747  -0.061182
     7  C   -0.000004   0.000590   0.000483   0.012622  -0.056806   0.437968
     8  C   -0.000211  -0.001385   0.001470  -0.003044   0.011297  -0.061227
     9  Br  -0.000000   0.000019  -0.000004   0.000060  -0.000511  -0.003204
    10  C    0.002270   0.009454  -0.003631   0.012945  -0.002328   0.015517
    11  C    0.012360   0.006390   0.000949  -0.000100  -0.000003   0.000000
    12  N   -0.001116   0.005369   0.002439   0.000466  -0.000008   0.000004
    13  H    0.472003   0.000313  -0.000228  -0.000891   0.000021  -0.000003
    14  H    0.000313   0.537935  -0.018912   0.002165  -0.000072  -0.000001
    15  H   -0.000228  -0.018912   0.513720   0.000743  -0.000002  -0.000002
    16  H   -0.000891   0.002165   0.000743   0.546343  -0.008333  -0.000207
    17  H    0.000021  -0.000072  -0.000002  -0.008333   0.550551  -0.007812
    18  H   -0.000003  -0.000001  -0.000002  -0.000207  -0.007812   0.536305
    19  H    0.000108   0.000801   0.000930  -0.000241   0.000065  -0.000041
    20  H   -0.000967  -0.001922   0.000971   0.000004  -0.000000  -0.000000
    21  H   -0.000480  -0.000315  -0.000466  -0.000014   0.000000  -0.000000
    22  H   -0.000546  -0.001254  -0.001525   0.000011   0.000000   0.000000
    23  H    0.000492  -0.000599  -0.000720  -0.000023   0.000001  -0.000001
              19         20         21         22         23
     1  N    0.000337   0.002105   0.005291   0.006512  -0.001623
     2  S    0.000660  -0.007108  -0.012106  -0.020643  -0.020096
     3  C   -0.004592   0.003595   0.008567   0.008025   0.013349
     4  C   -0.068388   0.001045  -0.000404  -0.000213   0.001094
     5  C    0.011849  -0.000122  -0.000134   0.000046  -0.001062
     6  C   -0.004523  -0.000011   0.000013   0.000006   0.000187
     7  C    0.016044  -0.000007  -0.000003   0.000000  -0.000126
     8  C   -0.066044   0.000026   0.000007  -0.000010   0.000548
     9  Br  -0.004106   0.000000   0.000000   0.000000  -0.000002
    10  C    0.446407  -0.000353  -0.000070  -0.000097  -0.002068
    11  C    0.000466   0.355177   0.371017   0.371478  -0.007360
    12  N    0.016461   0.005526   0.001460   0.001624   0.313525
    13  H    0.000108  -0.000967  -0.000480  -0.000546   0.000492
    14  H    0.000801  -0.001922  -0.000315  -0.001254  -0.000599
    15  H    0.000930   0.000971  -0.000466  -0.001525  -0.000720
    16  H   -0.000241   0.000004  -0.000014   0.000011  -0.000023
    17  H    0.000065  -0.000000   0.000000   0.000000   0.000001
    18  H   -0.000041  -0.000000  -0.000000   0.000000  -0.000001
    19  H    0.512095  -0.000035  -0.000008   0.000005  -0.000738
    20  H   -0.000035   0.518668  -0.008478  -0.020058  -0.000006
    21  H   -0.000008  -0.008478   0.492258  -0.012511   0.002276
    22  H    0.000005  -0.020058  -0.012511   0.520169  -0.000094
    23  H   -0.000738  -0.000006   0.002276  -0.000094   0.483416
 Mulliken charges:
               1
     1  N   -0.547923
     2  S    0.459723
     3  C   -0.190363
     4  C    0.156328
     5  C   -0.241005
     6  C   -0.085837
     7  C   -0.184674
     8  C    0.162751
     9  Br  -0.085896
    10  C   -0.272051
    11  C   -0.338481
    12  N   -0.557099
    13  H    0.228853
    14  H    0.143116
    15  H    0.155368
    16  H    0.118386
    17  H    0.125602
    18  H    0.135963
    19  H    0.142487
    20  H    0.151947
    21  H    0.154101
    22  H    0.149077
    23  H    0.219627
 Sum of Mulliken charges =  -0.00000
 Mulliken charges with hydrogens summed into heavy atoms:
               1
     1  N   -0.319070
     2  S    0.459723
     3  C    0.108121
     4  C    0.156328
     5  C   -0.122618
     6  C    0.039766
     7  C   -0.048712
     8  C    0.162751
     9  Br  -0.085896
    10  C   -0.129564
    11  C    0.116643
    12  N   -0.337471
 Electronic spatial extent (au):  <R**2>=           4062.3112
 Charge=             -0.0000 electrons
 Dipole moment (field-independent basis, Debye):
    X=             -2.0630    Y=              1.2676    Z=             -1.6011  Tot=              2.9027
 Quadrupole moment (field-independent basis, Debye-Ang):
   XX=            -86.0311   YY=            -89.5141   ZZ=            -91.0176
   XY=              5.2807   XZ=              9.2770   YZ=             -0.6772
 Traceless Quadrupole moment (field-independent basis, Debye-Ang):
   XX=              2.8232   YY=             -0.6598   ZZ=             -2.1633
   XY=              5.2807   XZ=              9.2770   YZ=             -0.6772
 Octapole moment (field-independent basis, Debye-Ang**2):
  XXX=             42.9482  YYY=             -9.1779  ZZZ=              3.6908  XYY=             36.2354
  XXY=            -28.7145  XXZ=            -24.0982  XZZ=             25.2853  YZZ=            -19.6626
  YYZ=              9.5788  XYZ=             15.0771
 Hexadecapole moment (field-independent basis, Debye-Ang**3):
 XXXX=          -3400.2381 YYYY=           -867.0681 ZZZZ=           -327.9579 XXXY=             18.8318
 XXXZ=            123.1755 YYYX=            -77.3691 YYYZ=              0.9772 ZZZX=             17.7039
 ZZZY=             -2.3906 XXYY=           -726.6052 XXZZ=           -678.7830 YYZZ=           -199.6248
 XXYZ=            -33.6141 YYXZ=              7.3460 ZZXY=             -5.2355
 N-N= 1.087071416109D+03 E-N=-1.024952434905D+04  KE= 3.386306339757D+03
 Breneman (CHELPG) radii used.
 Read replacement radii for each type of atom:
 Rad(35) =   1.850000000000D+00
 Atom Element Radius
    1     7    1.70
    2    16    2.00
    3     6    1.50
    4     6    1.50
    5     6    1.50
    6     6    1.50
    7     6    1.50
    8     6    1.50
    9    35    1.85
   10     6    1.50
   11     6    1.50
   12     7    1.70
   13     1    1.45
   14     1    1.45
   15     1    1.45
   16     1    1.45
   17     1    1.45
   18     1    1.45
   19     1    1.45
   20     1    1.45
   21     1    1.45
   22     1    1.45
   23     1    1.45
 Generate Potential Derived Charges using the Breneman model, NDens= 1.
 Grid spacing= 0.300 Box extension= 2.800
 NStep X,Y,Z=   48     39     33   Total possible points=       61776
 Number of Points to Fit=   15076

 **********************************************************************

            Electrostatic Properties Using The SCF Density.

 **********************************************************************

       Atomic Center    1 is at  -3.001769  0.575200  1.365489
       Atomic Center    2 is at  -2.755735 -0.470557  0.250204
       Atomic Center    3 is at  -1.858232  0.207007 -1.201732
       Atomic Center    4 is at  -0.546937  0.728650 -0.723030
       Atomic Center    5 is at  -0.435753  2.052735 -0.284360
       Atomic Center    6 is at   0.768795  2.520289  0.236397
       Atomic Center    7 is at   1.871384  1.675335  0.334275
       Atomic Center    8 is at   1.747683  0.351642 -0.088518
       Atomic Center    9 is at   3.230746 -0.807715  0.053215
       Atomic Center   10 is at   0.550852 -0.132031 -0.607408
       Atomic Center   11 is at  -4.410270 -0.644085 -0.426117
       Atomic Center   12 is at  -2.012649 -1.818187  0.428868
       Atomic Center   13 is at  -2.120101  0.698550  1.872326
       Atomic Center   14 is at  -2.497717  1.004681 -1.603866
       Atomic Center   15 is at  -1.762914 -0.615279 -1.922520
       Atomic Center   16 is at  -1.301048  2.716188 -0.348406
       Atomic Center   17 is at   0.853672  3.556596  0.571282
       Atomic Center   18 is at   2.819661  2.034787  0.737086
       Atomic Center   19 is at   0.454403 -1.178206 -0.900155
       Atomic Center   20 is at  -4.816586  0.344349 -0.673383
       Atomic Center   21 is at  -5.007301 -1.108737  0.369033
       Atomic Center   22 is at  -4.352149 -1.302644 -1.301613
       Atomic Center   23 is at  -2.278474 -2.207686  1.336875
   15076 points will be used for fitting atomic charges
 Fitting point charges to electrostatic potential
 Charges from ESP fit, RMS=   0.00433 RRMS=   0.28597:
 ESP charges:
               1
     1  N   -0.792320
     2  S    0.899870
     3  C   -0.314531
     4  C    0.138919
     5  C   -0.135938
     6  C   -0.113844
     7  C   -0.070900
     8  C    0.070823
     9  Br  -0.094918
    10  C   -0.146497
    11  C   -0.384251
    12  N   -0.775417
    13  H    0.310605
    14  H    0.114054
    15  H    0.142520
    16  H    0.110481
    17  H    0.112767
    18  H    0.082381
    19  H    0.123348
    20  H    0.152781
    21  H    0.146521
    22  H    0.119914
    23  H    0.303630
 Sum of ESP charges =  -0.00000
 ESP charges with hydrogens summed into heavy atoms:
               1
     1  N   -0.481715
     2  S    0.899870
     3  C   -0.057957
     4  C    0.138919
     5  C   -0.025456
     6  C   -0.001076
     7  C    0.011481
     8  C    0.070823
     9  Br  -0.094918
    10  C   -0.023149
    11  C    0.034966
    12  N   -0.471788
 Charge=  -0.00000 Dipole=    -1.9176     1.3516    -1.8303 Tot=     2.9756
 -----------------------------------------------------------------

              Electrostatic Properties (Atomic Units)

 -----------------------------------------------------------------
    Center     Electric         -------- Electric Field --------
               Potential          X             Y             Z
 -----------------------------------------------------------------
    1 Atom    -18.422714
    2 Atom    -59.074873
    3 Atom    -14.720874
    4 Atom    -14.732184
    5 Atom    -14.749351
    6 Atom    -14.747278
    7 Atom    -14.745956
    8 Atom    -14.699952
    9 Atom   -175.804249
   10 Atom    -14.747934
   11 Atom    -14.730130
   12 Atom    -18.424040
   13 Atom     -1.049562
   14 Atom     -1.072290
   15 Atom     -1.073028
   16 Atom     -1.089814
   17 Atom     -1.089154
   18 Atom     -1.086367
   19 Atom     -1.090524
   20 Atom     -1.070732
   21 Atom     -1.069410
   22 Atom     -1.070601
   23 Atom     -1.048727
 -----------------------------------------------------------------
 Unable to Open any file for archive entry.
 1\1\GINC-NOTCH441\SP\RPBE1PBE\def2TZVP\C8H11Br1N2S1\U1414944\07-Jun-20
 25\0\\#N Guess=Read Geom=Check Integral(Ultrafine) Density Pop=(ChelpG
 ,ReadRadii) NMR pbe1pbe EmpiricalDispersion=GD3BJ def2TZVP\\SDI2997_4\
 \0,1\N,0,-3.3825265255,0.5068950043,0.8253396238\S,0,-2.8831619673,-0.
 7397752532,0.0543343261\C,0,-1.8900783097,-0.3287024753,-1.434802751\C
 ,0,-0.7157422732,0.4742159065,-0.9909351533\C,0,-0.8083305833,1.868066
 7166,-0.9096755349\C,0,0.2614590934,2.6147726999,-0.4210948955\C,0,1.4
 296519688,1.9839625084,-0.0008161363\C,0,1.5078519267,0.5927125039,-0.
 0681073111\Br,0,3.0804142595,-0.2751232348,0.512911713\C,0,0.447220552
 7,-0.1678889281,-0.5499130054\C,0,-4.4094712287,-1.3066638162,-0.70331
 02883\N,0,-2.0238473116,-1.8821863937,0.6515591354\H,0,-2.5911125296,0
 .8752257584,1.3614686491\H,0,-2.5580717893,0.2453844158,-2.0914180476\
 H,0,-1.6139006511,-1.2835891983,-1.9003037496\H,0,-1.7267616517,2.3666
 447135,-1.2273397184\H,0,0.1879488929,3.7032682635,-0.3658014922\H,0,2
 .2737007291,2.561746995,0.37923345\H,0,0.5050922066,-1.2569064342,-0.5
 632297042\H,0,-4.8883252557,-0.4784547147,-1.2399702054\H,0,-5.0469729
 125,-1.6361945122,0.1271193995\H,0,-4.1685627125,-2.148634171,-1.36408
 24848\H,0,-2.3574439637,-2.065158004,1.6013399986\\Version=ES64L-G16Re
 vC.01\State=1-A\HF=-3392.496085\RMSD=3.729e-09\Dipole=-0.7757729,0.206
 5779,-0.8122383\Quadrupole=-0.5822346,0.7830109,-0.2007763,5.6944559,5
 .791235,0.6279038\PG=C01 [X(C8H11Br1N2S1)]\\@
 The archive entry for this job was punched.


 WOE UNTO THEM THAT CALL EVIL GOOD, AND GOOD EVIL      
 Job cpu time:       0 days  0 hours 21 minutes 22.7 seconds.
 Elapsed time:       0 days  0 hours  1 minutes 27.1 seconds.
 File lengths (MBytes):  RWF=    137 Int=      0 D2E=      0 Chk=     21 Scr=      2
 Normal termination of Gaussian 16 at Sat Jun  7 02:37:26 2025.
