 Entering Gaussian System, Link 0=g16
 Input=SDI2997_6.com
 Output=SDI2997_6.log
 Initial command:
 /uufs/chpc.utah.edu/sys/installdir/gaussian16/C01/AVX/g16/l1.exe "/scratch/general/vast/u1414944/4689624-notchpeak.peaks/Gau-2250394.inp" -scrdir="/scratch/general/vast/u1414944/4689624-notchpeak.peaks/"
 Entering Link 1 = /uufs/chpc.utah.edu/sys/installdir/gaussian16/C01/AVX/g16/l1.exe PID=   2250395.
  
 Copyright (c) 1988-2019, Gaussian, Inc.  All Rights Reserved.
  
 This is part of the Gaussian(R) 16 program.  It is based on
 the Gaussian(R) 09 system (copyright 2009, Gaussian, Inc.),
 the Gaussian(R) 03 system (copyright 2003, Gaussian, Inc.),
 the Gaussian(R) 98 system (copyright 1998, Gaussian, Inc.),
 the Gaussian(R) 94 system (copyright 1995, Gaussian, Inc.),
 the Gaussian 92(TM) system (copyright 1992, Gaussian, Inc.),
 the Gaussian 90(TM) system (copyright 1990, Gaussian, Inc.),
 the Gaussian 88(TM) system (copyright 1988, Gaussian, Inc.),
 the Gaussian 86(TM) system (copyright 1986, Carnegie Mellon
 University), and the Gaussian 82(TM) system (copyright 1983,
 Carnegie Mellon University). Gaussian is a federally registered
 trademark of Gaussian, Inc.
  
 This software contains proprietary and confidential information,
 including trade secrets, belonging to Gaussian, Inc.
  
 This software is provided under written license and may be
 used, copied, transmitted, or stored only in accord with that
 written license.
  
 The following legend is applicable only to US Government
 contracts under FAR:
  
                    RESTRICTED RIGHTS LEGEND
  
 Use, reproduction and disclosure by the US Government is
 subject to restrictions as set forth in subparagraphs (a)
 and (c) of the Commercial Computer Software - Restricted
 Rights clause in FAR 52.227-19.
  
 Gaussian, Inc.
 340 Quinnipiac St., Bldg. 40, Wallingford CT 06492
  
  
 ---------------------------------------------------------------
 Warning -- This program may not be used in any manner that
 competes with the business of Gaussian, Inc. or will provide
 assistance to any competitor of Gaussian, Inc.  The licensee
 of this program is prohibited from giving any competitor of
 Gaussian, Inc. access to this program.  By using this program,
 the user acknowledges that Gaussian, Inc. is engaged in the
 business of creating and licensing software in the field of
 computational chemistry and represents and warrants to the
 licensee that it is not a competitor of Gaussian, Inc. and that
 it will not use this program in any manner prohibited above.
 ---------------------------------------------------------------
  

 Cite this work as:
 Gaussian 16, Revision C.01,
 M. J. Frisch, G. W. Trucks, H. B. Schlegel, G. E. Scuseria, 
 M. A. Robb, J. R. Cheeseman, G. Scalmani, V. Barone, 
 G. A. Petersson, H. Nakatsuji, X. Li, M. Caricato, A. V. Marenich, 
 J. Bloino, B. G. Janesko, R. Gomperts, B. Mennucci, H. P. Hratchian, 
 J. V. Ortiz, A. F. Izmaylov, J. L. Sonnenberg, D. Williams-Young, 
 F. Ding, F. Lipparini, F. Egidi, J. Goings, B. Peng, A. Petrone, 
 T. Henderson, D. Ranasinghe, V. G. Zakrzewski, J. Gao, N. Rega, 
 G. Zheng, W. Liang, M. Hada, M. Ehara, K. Toyota, R. Fukuda, 
 J. Hasegawa, M. Ishida, T. Nakajima, Y. Honda, O. Kitao, H. Nakai, 
 T. Vreven, K. Throssell, J. A. Montgomery, Jr., J. E. Peralta, 
 F. Ogliaro, M. J. Bearpark, J. J. Heyd, E. N. Brothers, K. N. Kudin, 
 V. N. Staroverov, T. A. Keith, R. Kobayashi, J. Normand, 
 K. Raghavachari, A. P. Rendell, J. C. Burant, S. S. Iyengar, 
 J. Tomasi, M. Cossi, J. M. Millam, M. Klene, C. Adamo, R. Cammi, 
 J. W. Ochterski, R. L. Martin, K. Morokuma, O. Farkas, 
 J. B. Foresman, and D. J. Fox, Gaussian, Inc., Wallingford CT, 2019.
 
 ******************************************
 Gaussian 16:  ES64L-G16RevC.01  3-Jul-2019
                 7-Jun-2025 
 ******************************************
 %NProcShared=16
 Will use up to   16 processors via shared memory.
 %Mem=40GB
 %chk=SDI2997_6.chk
 ----------------------------------------------------------------------
 #N OPT FREQ=NORAMAN Integral(Ultrafine) pbe1pbe EmpiricalDispersion=GD
 3BJ def2SVP
 ----------------------------------------------------------------------
 1/18=20,19=15,26=4,38=1/1,3;
 2/9=110,12=2,17=6,18=5,40=1/2;
 3/5=43,7=101,11=2,25=1,30=1,71=1,74=-13,75=-5,124=41/1,2,3;
 4//1;
 5/5=2,38=5/2;
 6/7=2,8=2,9=2,10=2,28=1/1;
 7//1,2,3,16;
 1/18=20,19=15,26=4/3(2);
 2/9=110/2;
 99//99;
 2/9=110/2;
 3/5=43,7=101,11=2,25=1,30=1,71=1,74=-13,75=-5,124=41/1,2,3;
 4/5=5,16=3,69=1/1;
 5/5=2,38=5/2;
 7//1,2,3,16;
 1/18=20,19=15,26=4/3(-5);
 2/9=110/2;
 6/7=2,8=2,9=2,10=2,19=2,28=1/1;
 99/9=1/99;
 ---------
 SDI2997_6
 ---------
 Symbolic Z-matrix:
 Charge =  0 Multiplicity = 1
 N                    -4.26053  -1.16494  -0.61742 
 S                    -3.2129   -0.3737    0.17768 
 C                    -2.02832   0.06387  -1.19188 
 C                    -0.77412   0.61837  -0.63553 
 C                    -0.77733   1.86632  -0.01694 
 C                     0.37549   2.36673   0.56024 
 C                     1.55325   1.63882   0.527 
 C                     1.55043   0.40074  -0.09117 
 Br                    3.15973  -0.6228   -0.14711 
 C                     0.40517  -0.11874  -0.66577 
 C                    -2.12868  -1.40826   1.21971 
 N                    -3.53673   0.78087   1.13583 
 H                    -5.14944  -1.26486  -0.15603 
 H                    -2.57319   0.78336  -1.79879 
 H                    -1.89593  -0.85836  -1.74801 
 H                    -1.69398   2.43249   0.02491 
 H                     0.36241   3.33231   1.04191 
 H                     2.45704   2.0245    0.97216 
 H                     0.43074  -1.08788  -1.14137 
 H                    -2.74315  -1.84046   2.00023 
 H                    -1.38053  -0.75765   1.65224 
 H                    -1.6867   -2.18483   0.60814 
 H                    -4.32989   1.33662   0.85912 
 

 GradGradGradGradGradGradGradGradGradGradGradGradGradGradGradGradGradGrad
 Berny optimization.
 Initialization pass.
                           ----------------------------
                           !    Initial Parameters    !
                           ! (Angstroms and Degrees)  !
 --------------------------                            --------------------------
 ! Name  Definition              Value          Derivative Info.                !
 --------------------------------------------------------------------------------
 ! R1    R(1,2)                  1.5349         estimate D2E/DX2                !
 ! R2    R(1,13)                 1.0065         estimate D2E/DX2                !
 ! R3    R(2,3)                  1.8629         estimate D2E/DX2                !
 ! R4    R(2,11)                 1.8253         estimate D2E/DX2                !
 ! R5    R(2,12)                 1.5349         estimate D2E/DX2                !
 ! R6    R(3,4)                  1.4799         estimate D2E/DX2                !
 ! R7    R(3,14)                 1.0876         estimate D2E/DX2                !
 ! R8    R(3,15)                 1.085          estimate D2E/DX2                !
 ! R9    R(4,5)                  1.3928         estimate D2E/DX2                !
 ! R10   R(4,10)                 1.391          estimate D2E/DX2                !
 ! R11   R(5,6)                  1.3829         estimate D2E/DX2                !
 ! R12   R(5,16)                 1.0782         estimate D2E/DX2                !
 ! R13   R(6,7)                  1.3849         estimate D2E/DX2                !
 ! R14   R(6,17)                 1.0791         estimate D2E/DX2                !
 ! R15   R(7,8)                  1.3838         estimate D2E/DX2                !
 ! R16   R(7,18)                 1.0788         estimate D2E/DX2                !
 ! R17   R(8,9)                  1.908          estimate D2E/DX2                !
 ! R18   R(8,10)                 1.3826         estimate D2E/DX2                !
 ! R19   R(10,19)                1.0799         estimate D2E/DX2                !
 ! R20   R(11,20)                1.0833         estimate D2E/DX2                !
 ! R21   R(11,21)                1.0817         estimate D2E/DX2                !
 ! R22   R(11,22)                1.0828         estimate D2E/DX2                !
 ! R23   R(12,23)                1.0072         estimate D2E/DX2                !
 ! A1    A(2,1,13)             114.616          estimate D2E/DX2                !
 ! A2    A(1,2,3)              100.0363         estimate D2E/DX2                !
 ! A3    A(1,2,11)             114.1407         estimate D2E/DX2                !
 ! A4    A(1,2,12)             124.5515         estimate D2E/DX2                !
 ! A5    A(3,2,11)             100.0858         estimate D2E/DX2                !
 ! A6    A(3,2,12)             114.6075         estimate D2E/DX2                !
 ! A7    A(11,2,12)            101.2621         estimate D2E/DX2                !
 ! A8    A(2,3,4)              110.5202         estimate D2E/DX2                !
 ! A9    A(2,3,14)             104.3038         estimate D2E/DX2                !
 ! A10   A(2,3,15)             104.7587         estimate D2E/DX2                !
 ! A11   A(4,3,14)             112.737          estimate D2E/DX2                !
 ! A12   A(4,3,15)             114.0634         estimate D2E/DX2                !
 ! A13   A(14,3,15)            109.7182         estimate D2E/DX2                !
 ! A14   A(3,4,5)              120.0479         estimate D2E/DX2                !
 ! A15   A(3,4,10)             120.7823         estimate D2E/DX2                !
 ! A16   A(5,4,10)             119.1031         estimate D2E/DX2                !
 ! A17   A(4,5,6)              120.5067         estimate D2E/DX2                !
 ! A18   A(4,5,16)             119.3189         estimate D2E/DX2                !
 ! A19   A(6,5,16)             120.164          estimate D2E/DX2                !
 ! A20   A(5,6,7)              120.5765         estimate D2E/DX2                !
 ! A21   A(5,6,17)             119.9971         estimate D2E/DX2                !
 ! A22   A(7,6,17)             119.4264         estimate D2E/DX2                !
 ! A23   A(6,7,8)              118.6346         estimate D2E/DX2                !
 ! A24   A(6,7,18)             120.9745         estimate D2E/DX2                !
 ! A25   A(8,7,18)             120.391          estimate D2E/DX2                !
 ! A26   A(7,8,9)              119.4272         estimate D2E/DX2                !
 ! A27   A(7,8,10)             121.5663         estimate D2E/DX2                !
 ! A28   A(9,8,10)             119.0058         estimate D2E/DX2                !
 ! A29   A(4,10,8)             119.6107         estimate D2E/DX2                !
 ! A30   A(4,10,19)            120.3461         estimate D2E/DX2                !
 ! A31   A(8,10,19)            120.0415         estimate D2E/DX2                !
 ! A32   A(2,11,20)            107.4889         estimate D2E/DX2                !
 ! A33   A(2,11,21)            107.3487         estimate D2E/DX2                !
 ! A34   A(2,11,22)            109.0579         estimate D2E/DX2                !
 ! A35   A(20,11,21)           110.131          estimate D2E/DX2                !
 ! A36   A(20,11,22)           110.6308         estimate D2E/DX2                !
 ! A37   A(21,11,22)           112.018          estimate D2E/DX2                !
 ! A38   A(2,12,23)            114.1847         estimate D2E/DX2                !
 ! D1    D(13,1,2,3)          -161.5782         estimate D2E/DX2                !
 ! D2    D(13,1,2,11)           92.5071         estimate D2E/DX2                !
 ! D3    D(13,1,2,12)          -32.136          estimate D2E/DX2                !
 ! D4    D(1,2,3,4)           -169.0078         estimate D2E/DX2                !
 ! D5    D(1,2,3,14)            69.5713         estimate D2E/DX2                !
 ! D6    D(1,2,3,15)           -45.721          estimate D2E/DX2                !
 ! D7    D(11,2,3,4)           -52.05           estimate D2E/DX2                !
 ! D8    D(11,2,3,14)         -173.4709         estimate D2E/DX2                !
 ! D9    D(11,2,3,15)           71.2368         estimate D2E/DX2                !
 ! D10   D(12,2,3,4)            55.386          estimate D2E/DX2                !
 ! D11   D(12,2,3,14)          -66.0349         estimate D2E/DX2                !
 ! D12   D(12,2,3,15)          178.6728         estimate D2E/DX2                !
 ! D13   D(1,2,11,20)          -66.8269         estimate D2E/DX2                !
 ! D14   D(1,2,11,21)          174.7175         estimate D2E/DX2                !
 ! D15   D(1,2,11,22)           53.1527         estimate D2E/DX2                !
 ! D16   D(3,2,11,20)         -172.7108         estimate D2E/DX2                !
 ! D17   D(3,2,11,21)           68.8336         estimate D2E/DX2                !
 ! D18   D(3,2,11,22)          -52.7312         estimate D2E/DX2                !
 ! D19   D(12,2,11,20)          69.4716         estimate D2E/DX2                !
 ! D20   D(12,2,11,21)         -48.984          estimate D2E/DX2                !
 ! D21   D(12,2,11,22)        -170.5488         estimate D2E/DX2                !
 ! D22   D(1,2,12,23)          -33.3359         estimate D2E/DX2                !
 ! D23   D(3,2,12,23)           89.9013         estimate D2E/DX2                !
 ! D24   D(11,2,12,23)        -163.3845         estimate D2E/DX2                !
 ! D25   D(2,3,4,5)            -68.8093         estimate D2E/DX2                !
 ! D26   D(2,3,4,10)           108.192          estimate D2E/DX2                !
 ! D27   D(14,3,4,5)            47.4786         estimate D2E/DX2                !
 ! D28   D(14,3,4,10)         -135.5201         estimate D2E/DX2                !
 ! D29   D(15,3,4,5)           173.4781         estimate D2E/DX2                !
 ! D30   D(15,3,4,10)           -9.5206         estimate D2E/DX2                !
 ! D31   D(3,4,5,6)            177.0258         estimate D2E/DX2                !
 ! D32   D(3,4,5,16)            -1.7997         estimate D2E/DX2                !
 ! D33   D(10,4,5,6)            -0.0258         estimate D2E/DX2                !
 ! D34   D(10,4,5,16)         -178.8512         estimate D2E/DX2                !
 ! D35   D(3,4,10,8)          -177.413          estimate D2E/DX2                !
 ! D36   D(3,4,10,19)            3.066          estimate D2E/DX2                !
 ! D37   D(5,4,10,8)            -0.3837         estimate D2E/DX2                !
 ! D38   D(5,4,10,19)         -179.9047         estimate D2E/DX2                !
 ! D39   D(4,5,6,7)              0.3236         estimate D2E/DX2                !
 ! D40   D(4,5,6,17)          -179.6768         estimate D2E/DX2                !
 ! D41   D(16,5,6,7)           179.1392         estimate D2E/DX2                !
 ! D42   D(16,5,6,17)           -0.8613         estimate D2E/DX2                !
 ! D43   D(5,6,7,8)             -0.2039         estimate D2E/DX2                !
 ! D44   D(5,6,7,18)           179.7855         estimate D2E/DX2                !
 ! D45   D(17,6,7,8)           179.7966         estimate D2E/DX2                !
 ! D46   D(17,6,7,18)           -0.214          estimate D2E/DX2                !
 ! D47   D(6,7,8,9)           -179.8838         estimate D2E/DX2                !
 ! D48   D(6,7,8,10)            -0.2149         estimate D2E/DX2                !
 ! D49   D(18,7,8,9)             0.1267         estimate D2E/DX2                !
 ! D50   D(18,7,8,10)          179.7956         estimate D2E/DX2                !
 ! D51   D(7,8,10,4)             0.511          estimate D2E/DX2                !
 ! D52   D(7,8,10,19)         -179.9665         estimate D2E/DX2                !
 ! D53   D(9,8,10,4)          -179.8187         estimate D2E/DX2                !
 ! D54   D(9,8,10,19)           -0.2962         estimate D2E/DX2                !
 --------------------------------------------------------------------------------
 Trust Radius=3.00D-01 FncErr=1.00D-07 GrdErr=1.00D-06 EigMax=2.50D+02 EigMin=1.00D-04
 Number of steps in this run=    125 maximum allowed number of steps=    138.
 GradGradGradGradGradGradGradGradGradGradGradGradGradGradGradGradGradGrad

                          Input orientation:                          
 ---------------------------------------------------------------------
 Center     Atomic      Atomic             Coordinates (Angstroms)
 Number     Number       Type             X           Y           Z
 ---------------------------------------------------------------------
      1          7           0       -4.260525   -1.164943   -0.617418
      2         16           0       -3.212898   -0.373698    0.177678
      3          6           0       -2.028319    0.063874   -1.191881
      4          6           0       -0.774116    0.618371   -0.635531
      5          6           0       -0.777326    1.866316   -0.016943
      6          6           0        0.375491    2.366735    0.560237
      7          6           0        1.553246    1.638824    0.527002
      8          6           0        1.550429    0.400739   -0.091168
      9         35           0        3.159729   -0.622797   -0.147115
     10          6           0        0.405174   -0.118744   -0.665767
     11          6           0       -2.128678   -1.408265    1.219708
     12          7           0       -3.536728    0.780870    1.135832
     13          1           0       -5.149443   -1.264862   -0.156035
     14          1           0       -2.573193    0.783362   -1.798788
     15          1           0       -1.895927   -0.858360   -1.748006
     16          1           0       -1.693983    2.432492    0.024909
     17          1           0        0.362407    3.332314    1.041911
     18          1           0        2.457039    2.024496    0.972163
     19          1           0        0.430744   -1.087881   -1.141370
     20          1           0       -2.743148   -1.840461    2.000229
     21          1           0       -1.380534   -0.757645    1.652237
     22          1           0       -1.686696   -2.184831    0.608137
     23          1           0       -4.329891    1.336623    0.859122
 ---------------------------------------------------------------------
                    Distance matrix (angstroms):
                    1          2          3          4          5
     1  N    0.000000
     2  S    1.534852   0.000000
     3  C    2.612039   1.862899   0.000000
     4  C    3.916068   2.755570   1.479870   0.000000
     5  C    4.656370   3.314748   2.488827   1.392849   0.000000
     6  C    5.945777   4.531319   3.761833   2.410027   1.382946
     7  C    6.555207   5.185403   4.273480   2.794534   2.403995
     8  C    6.041150   4.833354   3.759319   2.397333   2.751702
     9  Br   7.454883   6.385759   5.336562   4.153816   4.659723
    10  C    4.781801   3.723822   2.496404   1.391035   2.399946
    11  C    2.824715   1.825291   2.827195   3.063332   3.752111
    12  N    2.717344   1.534910   2.864896   3.285750   3.181412
    13  H    1.006495   2.157718   3.546821   4.787481   5.379501
    14  H    2.835246   2.377904   1.087606   2.148736   2.751891
    15  H    2.638854   2.382765   1.085042   2.162589   3.416388
    16  H    4.465564   3.194549   2.683787   2.138544   1.078225
    17  H    6.659595   5.221516   4.624727   3.386884   2.137596
    18  H    7.604273   6.207313   5.352155   3.873272   3.385922
    19  H    4.721067   3.940314   2.715894   2.149153   3.383940
    20  H    3.100134   2.386158   3.785108   4.107331   4.655495
    21  H    3.689388   2.383128   3.030434   2.737708   3.167837
    22  H    3.027665   2.407237   2.900594   3.199602   4.198746
    23  H    2.905653   2.153425   3.335228   3.923444   3.697133
                    6          7          8          9         10
     6  C    0.000000
     7  C    1.384943   0.000000
     8  C    2.381165   1.383834   0.000000
     9  Br   4.146038   2.854847   1.908037   0.000000
    10  C    2.771564   2.414500   1.382618   2.847919   0.000000
    11  C    4.577815   4.829199   4.304268   5.518371   3.411493
    12  N    4.260485   5.197557   5.246827   6.961233   4.426472
    13  H    6.650296   7.336482   6.904109   8.333947   5.694488
    14  H    4.094729   4.813379   4.479579   6.129576   3.311828
    15  H    4.570400   4.827875   4.025892   5.308295   2.648271
    16  H    2.138603   3.380311   3.829844   5.737849   3.375248
    17  H    1.079131   2.133339   3.359969   4.988155   3.850687
    18  H    2.149338   1.078774   2.142243   2.958837   3.389165
    19  H    3.851349   3.387978   2.138366   2.941463   1.079852
    20  H    5.431388   5.721436   5.275578   6.398261   4.470322
    21  H    3.746710   3.951744   3.601646   4.885677   2.995011
    22  H    4.997165   5.012399   4.201568   5.147639   3.204289
    23  H    4.826084   5.900249   6.029684   7.806808   5.183071
                   11         12         13         14         15
    11  C    0.000000
    12  N    2.604218   0.000000
    13  H    3.322387   2.907712   0.000000
    14  H    3.756613   3.088754   3.678440   0.000000
    15  H    3.027192   3.700786   3.644857   1.776660   0.000000
    16  H    4.045729   2.712511   5.063929   2.611228   3.743490
    17  H    5.358191   4.660681   7.276648   4.815027   5.517740
    18  H    5.733579   6.123613   8.363688   5.875528   5.887146
    19  H    3.496853   4.941529   5.669277   3.599638   2.415385
    20  H    1.083319   2.871990   3.281926   4.620158   3.966304
    21  H    1.081715   2.698681   4.210914   3.963170   3.440556
    22  H    1.082785   3.535034   3.663457   3.922925   2.711957
    23  H    3.536916   1.007243   2.910315   3.233662   4.187989
                   16         17         18         19         20
    16  H    0.000000
    17  H    2.464288   0.000000
    18  H    4.277235   2.470371   0.000000
    19  H    4.274073   4.930468   4.273147   0.000000
    20  H    4.822941   6.109046   6.560241   4.528754   0.000000
    21  H    3.594917   4.487550   4.788505   3.345747   1.774910
    22  H    4.654018   5.901345   5.917896   2.957638   1.781180
    23  H    2.974030   5.102339   6.822637   5.704721   3.730113
                   21         22         23
    21  H    0.000000
    22  H    1.794643   0.000000
    23  H    3.703202   4.410229   0.000000
 Stoichiometry    C8H11BrN2S
 Framework group  C1[X(C8H11BrN2S)]
 Deg. of freedom    63
 Full point group                 C1      NOp   1
 Largest Abelian subgroup         C1      NOp   1
 Largest concise Abelian subgroup C1      NOp   1
                         Standard orientation:                         
 ---------------------------------------------------------------------
 Center     Atomic      Atomic             Coordinates (Angstroms)
 Number     Number       Type             X           Y           Z
 ---------------------------------------------------------------------
      1          7           0       -4.048559   -1.265365   -0.588516
      2         16           0       -3.022770   -0.363129    0.111126
      3          6           0       -1.784816   -0.151396   -1.264748
      4          6           0       -0.546258    0.478626   -0.755767
      5          6           0       -0.559592    1.808376   -0.341504
      6          6           0        0.576356    2.388686    0.192726
      7          6           0        1.747251    1.659814    0.318492
      8          6           0        1.754646    0.339891   -0.097133
      9         35           0        3.354668   -0.686256    0.068863
     10          6           0        0.625970   -0.258870   -0.625536
     11          6           0       -1.987546   -1.225223    1.342708
     12          7           0       -3.369790    0.929159    0.863135
     13          1           0       -4.954637   -1.287795   -0.150848
     14          1           0       -2.300055    0.465827   -1.997177
     15          1           0       -1.641430   -1.150194   -1.663697
     16          1           0       -1.471496    2.377821   -0.423557
     17          1           0        0.555335    3.418085    0.515869
     18          1           0        2.638021    2.107047    0.731123
     19          1           0        0.659212   -1.290878   -0.941661
     20          1           0       -2.634294   -1.526679    2.157827
     21          1           0       -1.249221   -0.517698    1.695402
     22          1           0       -1.531323   -2.090160    0.877770
     23          1           0       -4.146790    1.437671    0.472976
 ---------------------------------------------------------------------
 Rotational constants (GHZ):           1.3889522           0.2665507           0.2427322
 Standard basis: def2SVP (5D, 7F)
 There are   259 symmetry adapted cartesian basis functions of A   symmetry.
 There are   245 symmetry adapted basis functions of A   symmetry.
   245 basis functions,   444 primitive gaussians,   259 cartesian basis functions
    62 alpha electrons       62 beta electrons
       nuclear repulsion energy      1085.8440093136 Hartrees.
 NAtoms=   23 NActive=   23 NUniq=   23 SFac= 1.00D+00 NAtFMM=   60 NAOKFM=F Big=F
 Integral buffers will be    131072 words long.
 Raffenetti 2 integral format.
 Two-electron integral symmetry is turned on.
 Nuclear repulsion after empirical dispersion term =     1085.8158059719 Hartrees.
 One-electron integrals computed using PRISM.
   1 Symmetry operations used in ECPInt.
 ECPInt:  NShTT=    6441 NPrTT=   25202 LenC2=    6126 LenP2D=   17642.
 LDataN:  DoStor=T MaxTD1= 4 Len=   56
 NBasis=   245 RedAO= T EigKep=  2.55D-04  NBF=   245
 NBsUse=   245 1.00D-06 EigRej= -1.00D+00 NBFU=   245
 ExpMin= 1.22D-01 ExpMax= 1.13D+05 ExpMxC= 1.70D+04 IAcc=3 IRadAn=         5 AccDes= 0.00D+00
 Harris functional with IExCor= 1009 and IRadAn=       5 diagonalized for initial guess.
 HarFok:  IExCor= 1009 AccDes= 0.00D+00 IRadAn=         5 IDoV= 1 UseB2=F ITyADJ=14
 ICtDFT=  3500011 ScaDFX=  1.000000  1.000000  1.000000  1.000000
 FoFCou: FMM=F IPFlag=           0 FMFlag=      100000 FMFlg1=           0
         NFxFlg=           0 DoJE=T BraDBF=F KetDBF=T FulRan=T
         wScrn=  0.000000 ICntrl=       500 IOpCl=  0 I1Cent=   200000004 NGrid=           0
         NMat0=    1 NMatS0=      1 NMatT0=    0 NMatD0=    1 NMtDS0=    0 NMtDT0=    0
 Petite list used in FoFCou.
 Requested convergence on RMS density matrix=1.00D-08 within 128 cycles.
 Requested convergence on MAX density matrix=1.00D-06.
 Requested convergence on             energy=1.00D-06.
 No special actions if energy rises.
 Integral accuracy reduced to 1.0D-05 until final iterations.
 Initial convergence to 1.0D-05 achieved.  Increase integral accuracy.
 SCF Done:  E(RPBE1PBE) =  -3391.54688759     A.U. after   14 cycles
            NFock= 14  Conv=0.77D-08     -V/T= 2.0022

 **********************************************************************

            Population analysis using the SCF Density.

 **********************************************************************

 Orbital symmetries:
       Occupied  (A) (A) (A) (A) (A) (A) (A) (A) (A) (A) (A) (A)
                 (A) (A) (A) (A) (A) (A) (A) (A) (A) (A) (A) (A)
                 (A) (A) (A) (A) (A) (A) (A) (A) (A) (A) (A) (A)
                 (A) (A) (A) (A) (A) (A) (A) (A) (A) (A) (A) (A)
                 (A) (A) (A) (A) (A) (A) (A) (A) (A) (A) (A) (A)
                 (A) (A)
       Virtual   (A) (A) (A) (A) (A) (A) (A) (A) (A) (A) (A) (A)
                 (A) (A) (A) (A) (A) (A) (A) (A) (A) (A) (A) (A)
                 (A) (A) (A) (A) (A) (A) (A) (A) (A) (A) (A) (A)
                 (A) (A) (A) (A) (A) (A) (A) (A) (A) (A) (A) (A)
                 (A) (A) (A) (A) (A) (A) (A) (A) (A) (A) (A) (A)
                 (A) (A) (A) (A) (A) (A) (A) (A) (A) (A) (A) (A)
                 (A) (A) (A) (A) (A) (A) (A) (A) (A) (A) (A) (A)
                 (A) (A) (A) (A) (A) (A) (A) (A) (A) (A) (A) (A)
                 (A) (A) (A) (A) (A) (A) (A) (A) (A) (A) (A) (A)
                 (A) (A) (A) (A) (A) (A) (A) (A) (A) (A) (A) (A)
                 (A) (A) (A) (A) (A) (A) (A) (A) (A) (A) (A) (A)
                 (A) (A) (A) (A) (A) (A) (A) (A) (A) (A) (A) (A)
                 (A) (A) (A) (A) (A) (A) (A) (A) (A) (A) (A) (A)
                 (A) (A) (A) (A) (A) (A) (A) (A) (A) (A) (A) (A)
                 (A) (A) (A) (A) (A) (A) (A) (A) (A) (A) (A) (A)
                 (A) (A) (A)
 The electronic state is 1-A.
 Alpha  occ. eigenvalues -- -483.19722 -89.18053 -62.63093 -56.42087 -56.41734
 Alpha  occ. eigenvalues --  -56.41725 -14.34851 -14.34319 -10.29974 -10.26939
 Alpha  occ. eigenvalues --  -10.26577 -10.25878 -10.25850 -10.25603 -10.25319
 Alpha  occ. eigenvalues --  -10.24877  -8.77701  -8.15554  -6.59180  -6.57897
 Alpha  occ. eigenvalues --   -6.57872  -6.09682  -6.09575  -6.09549  -2.67734
 Alpha  occ. eigenvalues --   -2.67364  -2.67346  -2.66315  -2.66315  -1.00525
 Alpha  occ. eigenvalues --   -0.91259  -0.85349  -0.84263  -0.81224  -0.76789
 Alpha  occ. eigenvalues --   -0.75711  -0.73109  -0.64199  -0.63416  -0.60231
 Alpha  occ. eigenvalues --   -0.54958  -0.53235  -0.51472  -0.49734  -0.48126
 Alpha  occ. eigenvalues --   -0.47215  -0.45090  -0.44365  -0.44019  -0.42766
 Alpha  occ. eigenvalues --   -0.42334  -0.40971  -0.38489  -0.37217  -0.34709
 Alpha  occ. eigenvalues --   -0.33324  -0.30505  -0.29309  -0.26886  -0.25872
 Alpha  occ. eigenvalues --   -0.25632  -0.24247
 Alpha virt. eigenvalues --   -0.03092  -0.02160   0.00656   0.06024   0.06735
 Alpha virt. eigenvalues --    0.08033   0.08884   0.08936   0.10071   0.10465
 Alpha virt. eigenvalues --    0.11807   0.12821   0.13535   0.14467   0.14911
 Alpha virt. eigenvalues --    0.15306   0.16324   0.18147   0.22293   0.22652
 Alpha virt. eigenvalues --    0.26153   0.28265   0.30044   0.31412   0.32826
 Alpha virt. eigenvalues --    0.34162   0.37661   0.38272   0.40136   0.41422
 Alpha virt. eigenvalues --    0.42331   0.43634   0.44627   0.47056   0.47891
 Alpha virt. eigenvalues --    0.48262   0.49667   0.50094   0.51248   0.52008
 Alpha virt. eigenvalues --    0.52339   0.52977   0.54064   0.55445   0.57259
 Alpha virt. eigenvalues --    0.59463   0.60382   0.61049   0.62273   0.62698
 Alpha virt. eigenvalues --    0.64350   0.64440   0.65227   0.66838   0.66924
 Alpha virt. eigenvalues --    0.67842   0.68771   0.69051   0.69700   0.70777
 Alpha virt. eigenvalues --    0.71019   0.72369   0.72648   0.73653   0.74606
 Alpha virt. eigenvalues --    0.75141   0.76504   0.77029   0.79377   0.80188
 Alpha virt. eigenvalues --    0.81658   0.82653   0.84073   0.85901   0.87456
 Alpha virt. eigenvalues --    0.89956   0.91808   0.94354   0.96008   0.97305
 Alpha virt. eigenvalues --    0.98120   1.00641   1.01911   1.04149   1.06455
 Alpha virt. eigenvalues --    1.08317   1.10424   1.13958   1.15566   1.19047
 Alpha virt. eigenvalues --    1.20647   1.22097   1.23068   1.24978   1.26575
 Alpha virt. eigenvalues --    1.28139   1.28907   1.31071   1.35921   1.36619
 Alpha virt. eigenvalues --    1.43870   1.45049   1.47421   1.49773   1.50892
 Alpha virt. eigenvalues --    1.52792   1.54883   1.65236   1.66292   1.69182
 Alpha virt. eigenvalues --    1.71680   1.72890   1.74202   1.75059   1.75404
 Alpha virt. eigenvalues --    1.76262   1.78381   1.78762   1.79911   1.82505
 Alpha virt. eigenvalues --    1.82682   1.84139   1.86768   1.88689   1.89213
 Alpha virt. eigenvalues --    1.93483   1.96452   1.97453   1.98427   2.00487
 Alpha virt. eigenvalues --    2.01532   2.04678   2.08997   2.11092   2.14455
 Alpha virt. eigenvalues --    2.15175   2.15855   2.16445   2.18449   2.21889
 Alpha virt. eigenvalues --    2.23569   2.26635   2.30100   2.30994   2.31123
 Alpha virt. eigenvalues --    2.32725   2.35159   2.39844   2.43337   2.43467
 Alpha virt. eigenvalues --    2.45239   2.47931   2.53894   2.56701   2.57676
 Alpha virt. eigenvalues --    2.58670   2.59608   2.61570   2.63978   2.65534
 Alpha virt. eigenvalues --    2.66052   2.74699   2.75946   2.81275   2.83975
 Alpha virt. eigenvalues --    2.86575   2.87928   2.90327   2.90593   2.95717
 Alpha virt. eigenvalues --    2.97067   2.98892   3.06237   3.11169   3.24412
 Alpha virt. eigenvalues --    3.27506   3.31626   3.45096   3.48701   3.53206
 Alpha virt. eigenvalues --    3.60651   3.65352   3.85419
          Condensed to atoms (all electrons):
               1          2          3          4          5          6
     1  N    6.913516   0.346802  -0.106869   0.010975   0.000376  -0.000001
     2  S    0.346802  14.647353   0.208465  -0.069540  -0.003857   0.000107
     3  C   -0.106869   0.208465   5.367539   0.219963  -0.107921   0.011914
     4  C    0.010975  -0.069540   0.219963   5.524985   0.220372   0.100602
     5  C    0.000376  -0.003857  -0.107921   0.220372   5.145533   0.276501
     6  C   -0.000001   0.000107   0.011914   0.100602   0.276501   5.018377
     7  C    0.000000   0.000113  -0.001281  -0.157873   0.102048   0.281448
     8  C    0.000001  -0.000360   0.015352   0.113210  -0.165332   0.108371
     9  Br   0.000000   0.000001  -0.000172   0.004292   0.000746   0.003435
    10  C   -0.000081  -0.000544  -0.091681   0.299426   0.061905  -0.128615
    11  C   -0.046511   0.254813  -0.146213   0.021337  -0.000323  -0.000224
    12  N   -0.037921   0.326868  -0.045276  -0.016453   0.015752  -0.000628
    13  H    0.328920  -0.013362   0.010298  -0.000660  -0.000050  -0.000000
    14  H    0.010183  -0.006735   0.323088   0.004480  -0.004146   0.000495
    15  H    0.014180  -0.006850   0.335040  -0.014564   0.009621  -0.000263
    16  H    0.000116   0.001415  -0.014493  -0.081115   0.452002  -0.058325
    17  H   -0.000000  -0.000004  -0.000332   0.016539  -0.070908   0.457554
    18  H    0.000000   0.000000   0.000032  -0.001411   0.013588  -0.057032
    19  H   -0.000074   0.000179  -0.015417  -0.058788   0.014733  -0.001853
    20  H    0.000819  -0.003124   0.007784  -0.000570  -0.000163  -0.000013
    21  H    0.003446  -0.001738   0.002334   0.000672  -0.000987   0.000847
    22  H    0.003589  -0.018386   0.009756  -0.003034   0.000047  -0.000046
    23  H   -0.001658  -0.008008  -0.006185   0.000815  -0.000735   0.000045
               7          8          9         10         11         12
     1  N    0.000000   0.000001   0.000000  -0.000081  -0.046511  -0.037921
     2  S    0.000113  -0.000360   0.000001  -0.000544   0.254813   0.326868
     3  C   -0.001281   0.015352  -0.000172  -0.091681  -0.146213  -0.045276
     4  C   -0.157873   0.113210   0.004292   0.299426   0.021337  -0.016453
     5  C    0.102048  -0.165332   0.000746   0.061905  -0.000323   0.015752
     6  C    0.281448   0.108371   0.003435  -0.128615  -0.000224  -0.000628
     7  C    5.092311   0.263833  -0.062610   0.068118  -0.000056   0.000039
     8  C    0.263833   5.326403   0.232850   0.284574  -0.000351   0.000018
     9  Br  -0.062610   0.232850  34.923508  -0.067264  -0.000013  -0.000000
    10  C    0.068118   0.284574  -0.067264   5.089540   0.001981   0.000084
    11  C   -0.000056  -0.000351  -0.000013   0.001981   4.988286  -0.090680
    12  N    0.000039   0.000018  -0.000000   0.000084  -0.090680   6.918382
    13  H    0.000000  -0.000000   0.000000   0.000001  -0.005424  -0.001498
    14  H    0.000076  -0.000543   0.000004   0.005155   0.007476  -0.001341
    15  H    0.000002   0.000789  -0.000042  -0.009218   0.002548   0.003603
    16  H    0.014941  -0.001813   0.000018   0.014568   0.000277   0.018716
    17  H   -0.075424   0.016280  -0.000196  -0.002183  -0.000000  -0.000055
    18  H    0.442095  -0.065359  -0.000303   0.014085  -0.000001   0.000000
    19  H    0.014206  -0.058384   0.000672   0.436667   0.000193  -0.000004
    20  H    0.000002   0.000014   0.000000  -0.000017   0.361254   0.006056
    21  H    0.000222  -0.000339   0.000022  -0.002617   0.349743   0.006176
    22  H    0.000033  -0.000191   0.000007   0.002045   0.363643   0.005969
    23  H   -0.000002  -0.000000  -0.000000  -0.000005   0.009088   0.322104
              13         14         15         16         17         18
     1  N    0.328920   0.010183   0.014180   0.000116  -0.000000   0.000000
     2  S   -0.013362  -0.006735  -0.006850   0.001415  -0.000004   0.000000
     3  C    0.010298   0.323088   0.335040  -0.014493  -0.000332   0.000032
     4  C   -0.000660   0.004480  -0.014564  -0.081115   0.016539  -0.001411
     5  C   -0.000050  -0.004146   0.009621   0.452002  -0.070908   0.013588
     6  C   -0.000000   0.000495  -0.000263  -0.058325   0.457554  -0.057032
     7  C    0.000000   0.000076   0.000002   0.014941  -0.075424   0.442095
     8  C   -0.000000  -0.000543   0.000789  -0.001813   0.016280  -0.065359
     9  Br   0.000000   0.000004  -0.000042   0.000018  -0.000196  -0.000303
    10  C    0.000001   0.005155  -0.009218   0.014568  -0.002183   0.014085
    11  C   -0.005424   0.007476   0.002548   0.000277  -0.000000  -0.000001
    12  N   -0.001498  -0.001341   0.003603   0.018716  -0.000055   0.000000
    13  H    0.558086  -0.000674  -0.001081  -0.000027   0.000000  -0.000000
    14  H   -0.000674   0.578874  -0.008505   0.003970  -0.000003  -0.000001
    15  H   -0.001081  -0.008505   0.594822   0.000463   0.000007  -0.000001
    16  H   -0.000027   0.003970   0.000463   0.652761  -0.012735  -0.000235
    17  H    0.000000  -0.000003   0.000007  -0.012735   0.657878  -0.012383
    18  H   -0.000000  -0.000001  -0.000001  -0.000235  -0.012383   0.645034
    19  H    0.000001   0.000259   0.004915  -0.000213   0.000031  -0.000283
    20  H    0.001855  -0.000258  -0.000377  -0.000026  -0.000000  -0.000000
    21  H   -0.000044  -0.000484   0.000022   0.000271  -0.000001  -0.000000
    22  H   -0.000112  -0.000268   0.000307  -0.000062   0.000001  -0.000000
    23  H    0.001790   0.002146  -0.000089   0.000688   0.000002  -0.000000
              19         20         21         22         23
     1  N   -0.000074   0.000819   0.003446   0.003589  -0.001658
     2  S    0.000179  -0.003124  -0.001738  -0.018386  -0.008008
     3  C   -0.015417   0.007784   0.002334   0.009756  -0.006185
     4  C   -0.058788  -0.000570   0.000672  -0.003034   0.000815
     5  C    0.014733  -0.000163  -0.000987   0.000047  -0.000735
     6  C   -0.001853  -0.000013   0.000847  -0.000046   0.000045
     7  C    0.014206   0.000002   0.000222   0.000033  -0.000002
     8  C   -0.058384   0.000014  -0.000339  -0.000191  -0.000000
     9  Br   0.000672   0.000000   0.000022   0.000007  -0.000000
    10  C    0.436667  -0.000017  -0.002617   0.002045  -0.000005
    11  C    0.000193   0.361254   0.349743   0.363643   0.009088
    12  N   -0.000004   0.006056   0.006176   0.005969   0.322104
    13  H    0.000001   0.001855  -0.000044  -0.000112   0.001790
    14  H    0.000259  -0.000258  -0.000484  -0.000268   0.002146
    15  H    0.004915  -0.000377   0.000022   0.000307  -0.000089
    16  H   -0.000213  -0.000026   0.000271  -0.000062   0.000688
    17  H    0.000031  -0.000000  -0.000001   0.000001   0.000002
    18  H   -0.000283  -0.000000  -0.000000  -0.000000  -0.000000
    19  H    0.653357  -0.000019  -0.000172   0.000653   0.000001
    20  H   -0.000019   0.553215  -0.004714  -0.009276  -0.000475
    21  H   -0.000172  -0.004714   0.557242  -0.013320  -0.000866
    22  H    0.000653  -0.009276  -0.013320   0.586779  -0.000411
    23  H    0.000001  -0.000475  -0.000866  -0.000411   0.558852
 Mulliken charges:
               1
     1  N   -0.439807
     2  S    0.346395
     3  C    0.024273
     4  C   -0.133659
     5  C    0.041197
     6  C   -0.012694
     7  C    0.017761
     8  C   -0.069020
     9  Br  -0.034954
    10  C    0.024077
    11  C   -0.070845
    12  N   -0.429913
    13  H    0.121982
    14  H    0.086752
    15  H    0.074671
    16  H    0.008838
    17  H    0.025935
    18  H    0.022174
    19  H    0.009339
    20  H    0.088033
    21  H    0.104285
    22  H    0.072279
    23  H    0.122903
 Sum of Mulliken charges =  -0.00000
 Mulliken charges with hydrogens summed into heavy atoms:
               1
     1  N   -0.317824
     2  S    0.346395
     3  C    0.185696
     4  C   -0.133659
     5  C    0.050035
     6  C    0.013240
     7  C    0.039935
     8  C   -0.069020
     9  Br  -0.034954
    10  C    0.033416
    11  C    0.193751
    12  N   -0.307009
 Electronic spatial extent (au):  <R**2>=           4127.8866
 Charge=             -0.0000 electrons
 Dipole moment (field-independent basis, Debye):
    X=             -0.2296    Y=              0.6979    Z=              0.1918  Tot=              0.7594
 Quadrupole moment (field-independent basis, Debye-Ang):
   XX=            -93.6717   YY=            -86.7995   ZZ=            -93.7543
   XY=             -1.2430   XZ=             -0.1866   YZ=             -3.7616
 Traceless Quadrupole moment (field-independent basis, Debye-Ang):
   XX=             -2.2632   YY=              4.6090   ZZ=             -2.3458
   XY=             -1.2430   XZ=             -0.1866   YZ=             -3.7616
 Octapole moment (field-independent basis, Debye-Ang**2):
  XXX=             63.7385  YYY=             -7.8261  ZZZ=              4.1178  XYY=             37.9217
  XXY=              9.3004  XXZ=             17.5469  XZZ=             34.4681  YZZ=            -14.0291
  YYZ=              8.1701  XYZ=             24.1483
 Hexadecapole moment (field-independent basis, Debye-Ang**3):
 XXXX=          -3395.2524 YYYY=           -759.1983 ZZZZ=           -354.1789 XXXY=           -143.2362
 XXXZ=            -52.3437 YYYX=            -89.8122 YYYZ=              6.8987 ZZZX=              6.9156
 ZZZY=            -12.5909 XXYY=           -732.3507 XXZZ=           -714.9527 YYZZ=           -199.6236
 XXYZ=            -66.3925 YYXZ=             -2.7697 ZZXY=            -17.3807
 N-N= 1.085815805972D+03 E-N=-1.024300239718D+04  KE= 3.384201775431D+03
   1 Symmetry operations used in ECPInt.
 ECPInt:  NShTT=    6441 NPrTT=   25202 LenC2=    6126 LenP2D=   17642.
 LDataN:  DoStor=T MaxTD1= 5 Len=  102
 Calling FoFJK, ICntrl=      2127 FMM=F ISym2X=0 I1Cent= 0 IOpClX= 0 NMat=1 NMatS=1 NMatT=0.
 ***** Axes restored to original set *****
 -------------------------------------------------------------------
 Center     Atomic                   Forces (Hartrees/Bohr)
 Number     Number              X              Y              Z
 -------------------------------------------------------------------
      1        7           0.008087950   -0.002777199   -0.017765538
      2       16          -0.001944434   -0.006701546   -0.001092962
      3        6          -0.001610602   -0.003224646    0.013797938
      4        6          -0.000203382    0.001233621   -0.002184107
      5        6           0.000120816    0.000579999   -0.000918315
      6        6          -0.000094936   -0.001062489   -0.000703587
      7        6           0.000648977   -0.000158175    0.000393188
      8        6           0.013269090   -0.008655663   -0.000180202
      9       35          -0.005277617    0.003508257    0.000164357
     10        6          -0.000220053    0.000396299   -0.000779047
     11        6          -0.006898387    0.012036264   -0.008454406
     12        7           0.011643456   -0.000244517    0.017070184
     13        1          -0.006320905   -0.000216795    0.011086646
     14        1          -0.007408673    0.003667241   -0.002821777
     15        1           0.000866777   -0.006690326   -0.005389016
     16        1          -0.007715932    0.004682461    0.000663421
     17        1          -0.000208320    0.008580457    0.004113906
     18        1           0.007544586    0.003006481    0.003586327
     19        1           0.000236291   -0.007909318   -0.003713996
     20        1          -0.008723846   -0.001909125    0.005313733
     21        1           0.008289758    0.004843086    0.004551274
     22        1           0.003471670   -0.006523010   -0.006893948
     23        1          -0.007552286    0.003538641   -0.009844071
 -------------------------------------------------------------------
 Cartesian Forces:  Max     0.017765538 RMS     0.006331086

 GradGradGradGradGradGradGradGradGradGradGradGradGradGradGradGradGradGrad
 Berny optimization.
 FormGI is forming the generalized inverse of G from B-inverse, IUseBI=4.
 Internal  Forces:  Max     0.013007645 RMS     0.004537612
 Search for a local minimum.
 Step number   1 out of a maximum of  125
 All quantities printed in internal units (Hartrees-Bohrs-Radians)
 Mixed Optimization -- RFO/linear search
 Second derivative matrix not updated -- first step.
 ITU=  0
     Eigenvalues ---    0.00230   0.00230   0.01032   0.01735   0.02208
     Eigenvalues ---    0.02248   0.02263   0.02288   0.02295   0.02301
     Eigenvalues ---    0.02304   0.02311   0.03480   0.03481   0.04564
     Eigenvalues ---    0.05761   0.05876   0.06105   0.06404   0.07441
     Eigenvalues ---    0.08305   0.08764   0.12504   0.14570   0.15997
     Eigenvalues ---    0.15999   0.16000   0.16000   0.16000   0.16000
     Eigenvalues ---    0.16000   0.16000   0.16000   0.17864   0.18976
     Eigenvalues ---    0.21728   0.22000   0.22015   0.23467   0.23499
     Eigenvalues ---    0.24221   0.24965   0.25000   0.34584   0.35091
     Eigenvalues ---    0.35392   0.35596   0.35660   0.35788   0.36012
     Eigenvalues ---    0.36099   0.36143   0.36210   0.43269   0.43551
     Eigenvalues ---    0.46437   0.46564   0.47312   0.47732   0.48382
     Eigenvalues ---    0.48598   0.66187   0.66203
 RFO step:  Lambda=-8.40189125D-03 EMin= 2.30000000D-03
 Linear search not attempted -- first point.
 Iteration  1 RMS(Cart)=  0.05354982 RMS(Int)=  0.00116728
 Iteration  2 RMS(Cart)=  0.00153547 RMS(Int)=  0.00013543
 Iteration  3 RMS(Cart)=  0.00000263 RMS(Int)=  0.00013540
 Iteration  4 RMS(Cart)=  0.00000000 RMS(Int)=  0.00013540
 Variable       Old X    -DE/DX   Delta X   Delta X   Delta X     New X
                                 (Linear)    (Quad)   (Total)
    R1        2.90045   0.00380   0.00000   0.00566   0.00566   2.90611
    R2        1.90200   0.01069   0.00000   0.02254   0.02254   1.92454
    R3        3.52037  -0.00494   0.00000  -0.02190  -0.02190   3.49847
    R4        3.44930  -0.01021   0.00000  -0.04074  -0.04074   3.40856
    R5        2.90056   0.00613   0.00000   0.00914   0.00914   2.90970
    R6        2.79655   0.00860   0.00000   0.02428   0.02428   2.82083
    R7        2.05528   0.00771   0.00000   0.02146   0.02146   2.07674
    R8        2.05043   0.00855   0.00000   0.02361   0.02361   2.07404
    R9        2.63210   0.00864   0.00000   0.01810   0.01810   2.65020
   R10        2.62868   0.00927   0.00000   0.01924   0.01924   2.64792
   R11        2.61339   0.00925   0.00000   0.01879   0.01879   2.63218
   R12        2.03755   0.00904   0.00000   0.02441   0.02441   2.06196
   R13        2.61716   0.00968   0.00000   0.01981   0.01981   2.63697
   R14        2.03926   0.00952   0.00000   0.02576   0.02576   2.06502
   R15        2.61507   0.00853   0.00000   0.01734   0.01734   2.63241
   R16        2.03859   0.00888   0.00000   0.02400   0.02400   2.06259
   R17        3.60567  -0.00634   0.00000  -0.03389  -0.03389   3.57178
   R18        2.61277   0.00894   0.00000   0.01801   0.01801   2.63078
   R19        2.04062   0.00874   0.00000   0.02372   0.02372   2.06434
   R20        2.04718   0.00954   0.00000   0.02618   0.02618   2.07335
   R21        2.04415   0.01047   0.00000   0.02858   0.02858   2.07272
   R22        2.04617   0.00999   0.00000   0.02736   0.02736   2.07353
   R23        1.90341   0.01060   0.00000   0.02243   0.02243   1.92584
    A1        2.00043  -0.01207   0.00000  -0.07167  -0.07167   1.92875
    A2        1.74596  -0.00173   0.00000  -0.01080  -0.01079   1.73517
    A3        1.99213  -0.00011   0.00000  -0.00067  -0.00069   1.99144
    A4        2.17383   0.00239   0.00000   0.01988   0.01989   2.19372
    A5        1.74683   0.00130   0.00000   0.00054   0.00052   1.74735
    A6        2.00028  -0.00026   0.00000  -0.00279  -0.00279   1.99749
    A7        1.76736  -0.00164   0.00000  -0.00941  -0.00943   1.75793
    A8        1.92894   0.00923   0.00000   0.04325   0.04315   1.97209
    A9        1.82044  -0.00647   0.00000  -0.04328  -0.04340   1.77705
   A10        1.82838  -0.00169   0.00000   0.00045   0.00007   1.82845
   A11        1.96763   0.00041   0.00000   0.00988   0.01042   1.97805
   A12        1.99078  -0.00266   0.00000  -0.00421  -0.00454   1.98624
   A13        1.91494   0.00082   0.00000  -0.00960  -0.00988   1.90507
   A14        2.09523   0.00216   0.00000   0.00864   0.00862   2.10385
   A15        2.10805  -0.00211   0.00000  -0.00792  -0.00794   2.10011
   A16        2.07874  -0.00004   0.00000  -0.00024  -0.00026   2.07849
   A17        2.10324  -0.00068   0.00000  -0.00300  -0.00300   2.10024
   A18        2.08251   0.00044   0.00000   0.00203   0.00202   2.08453
   A19        2.09726   0.00025   0.00000   0.00089   0.00089   2.09815
   A20        2.10446   0.00067   0.00000   0.00314   0.00314   2.10760
   A21        2.09434  -0.00046   0.00000  -0.00234  -0.00234   2.09201
   A22        2.08438  -0.00020   0.00000  -0.00080  -0.00080   2.08358
   A23        2.07056  -0.00017   0.00000  -0.00060  -0.00061   2.06996
   A24        2.11140   0.00030   0.00000   0.00158   0.00158   2.11299
   A25        2.10122  -0.00013   0.00000  -0.00098  -0.00098   2.10023
   A26        2.08440   0.00010   0.00000   0.00048   0.00048   2.08488
   A27        2.12173  -0.00057   0.00000  -0.00234  -0.00234   2.11939
   A28        2.07704   0.00046   0.00000   0.00188   0.00188   2.07892
   A29        2.08760   0.00079   0.00000   0.00309   0.00309   2.09069
   A30        2.10044  -0.00033   0.00000  -0.00113  -0.00113   2.09930
   A31        2.09512  -0.00046   0.00000  -0.00192  -0.00192   2.09320
   A32        1.87603  -0.00640   0.00000  -0.04071  -0.04083   1.83520
   A33        1.87359   0.00400   0.00000   0.02737   0.02751   1.90110
   A34        1.90342  -0.00189   0.00000  -0.01213  -0.01238   1.89104
   A35        1.92215   0.00137   0.00000   0.01023   0.01054   1.93269
   A36        1.93087   0.00294   0.00000   0.00996   0.00937   1.94025
   A37        1.95508  -0.00033   0.00000   0.00346   0.00347   1.95855
   A38        1.99290  -0.01301   0.00000  -0.07724  -0.07724   1.91566
    D1       -2.82007  -0.00140   0.00000  -0.04073  -0.04070  -2.86077
    D2        1.61455  -0.00196   0.00000  -0.03556  -0.03554   1.57901
    D3       -0.56088  -0.00167   0.00000  -0.04016  -0.04020  -0.60108
    D4       -2.94974   0.00078   0.00000   0.00292   0.00265  -2.94710
    D5        1.21425  -0.00073   0.00000  -0.00593  -0.00564   1.20861
    D6       -0.79798   0.00171   0.00000   0.02238   0.02236  -0.77562
    D7       -0.90844   0.00054   0.00000  -0.00075  -0.00102  -0.90947
    D8       -3.02764  -0.00097   0.00000  -0.00961  -0.00930  -3.03694
    D9        1.24332   0.00147   0.00000   0.01871   0.01869   1.26201
   D10        0.96667  -0.00073   0.00000  -0.01219  -0.01247   0.95420
   D11       -1.15253  -0.00224   0.00000  -0.02104  -0.02075  -1.17328
   D12        3.11843   0.00019   0.00000   0.00727   0.00725   3.12568
   D13       -1.16635  -0.00055   0.00000  -0.00951  -0.00976  -1.17611
   D14        3.04940  -0.00091   0.00000  -0.01453  -0.01444   3.03496
   D15        0.92769  -0.00181   0.00000  -0.02803  -0.02785   0.89984
   D16       -3.01437   0.00078   0.00000   0.00272   0.00247  -3.01190
   D17        1.20137   0.00043   0.00000  -0.00230  -0.00221   1.19917
   D18       -0.92033  -0.00047   0.00000  -0.01580  -0.01562  -0.93596
   D19        1.21251   0.00115   0.00000   0.00840   0.00813   1.22063
   D20       -0.85493   0.00079   0.00000   0.00337   0.00345  -0.85148
   D21       -2.97664  -0.00011   0.00000  -0.01012  -0.00997  -2.98660
   D22       -0.58182  -0.00133   0.00000  -0.03428  -0.03429  -0.61611
   D23        1.56907  -0.00195   0.00000  -0.03453  -0.03454   1.53454
   D24       -2.85160  -0.00142   0.00000  -0.03993  -0.03992  -2.89151
   D25       -1.20095   0.00124   0.00000   0.00615   0.00604  -1.19490
   D26        1.88831   0.00152   0.00000   0.01699   0.01688   1.90519
   D27        0.82866  -0.00058   0.00000  -0.01362  -0.01345   0.81521
   D28       -2.36527  -0.00030   0.00000  -0.00278  -0.00261  -2.36788
   D29        3.02776  -0.00133   0.00000  -0.02198  -0.02204   3.00573
   D30       -0.16617  -0.00105   0.00000  -0.01114  -0.01120  -0.17736
   D31        3.08968   0.00006   0.00000   0.00467   0.00472   3.09441
   D32       -0.03141   0.00020   0.00000   0.00903   0.00907  -0.02234
   D33       -0.00045  -0.00015   0.00000  -0.00575  -0.00575  -0.00620
   D34       -3.12154  -0.00001   0.00000  -0.00140  -0.00140  -3.12295
   D35       -3.09644  -0.00007   0.00000  -0.00151  -0.00145  -3.09790
   D36        0.05351  -0.00025   0.00000  -0.00766  -0.00762   0.04589
   D37       -0.00670   0.00027   0.00000   0.00949   0.00950   0.00280
   D38       -3.13993   0.00010   0.00000   0.00334   0.00333  -3.13660
   D39        0.00565  -0.00006   0.00000  -0.00124  -0.00122   0.00442
   D40       -3.13595  -0.00001   0.00000   0.00005   0.00005  -3.13591
   D41        3.12657  -0.00020   0.00000  -0.00562  -0.00559   3.12098
   D42       -0.01503  -0.00015   0.00000  -0.00433  -0.00432  -0.01936
   D43       -0.00356   0.00014   0.00000   0.00437   0.00437   0.00081
   D44        3.13785   0.00003   0.00000   0.00084   0.00083   3.13868
   D45        3.13804   0.00008   0.00000   0.00310   0.00310   3.14115
   D46       -0.00374  -0.00002   0.00000  -0.00043  -0.00043  -0.00417
   D47       -3.13956  -0.00015   0.00000  -0.00488  -0.00487   3.13875
   D48       -0.00375  -0.00001   0.00000  -0.00051  -0.00051  -0.00426
   D49        0.00221  -0.00005   0.00000  -0.00137  -0.00136   0.00085
   D50        3.13803   0.00010   0.00000   0.00300   0.00299   3.14102
   D51        0.00892  -0.00020   0.00000  -0.00647  -0.00646   0.00246
   D52       -3.14101  -0.00002   0.00000  -0.00034  -0.00031  -3.14132
   D53       -3.13843  -0.00006   0.00000  -0.00213  -0.00213  -3.14055
   D54       -0.00517   0.00012   0.00000   0.00401   0.00402  -0.00115
         Item               Value     Threshold  Converged?
 Maximum Force            0.013008     0.000450     NO 
 RMS     Force            0.004538     0.000300     NO 
 Maximum Displacement     0.233763     0.001800     NO 
 RMS     Displacement     0.053187     0.001200     NO 
 Predicted change in Energy=-4.385118D-03
 GradGradGradGradGradGradGradGradGradGradGradGradGradGradGradGradGradGrad

                          Input orientation:                          
 ---------------------------------------------------------------------
 Center     Atomic      Atomic             Coordinates (Angstroms)
 Number     Number       Type             X           Y           Z
 ---------------------------------------------------------------------
      1          7           0       -4.251390   -1.191043   -0.661398
      2         16           0       -3.240345   -0.394362    0.180066
      3          6           0       -2.030303    0.056102   -1.146670
      4          6           0       -0.761093    0.628430   -0.608378
      5          6           0       -0.752429    1.887968    0.008299
      6          6           0        0.422841    2.393547    0.558998
      7          6           0        1.609645    1.661721    0.502982
      8          6           0        1.595140    0.414149   -0.116556
      9         35           0        3.190124   -0.595681   -0.210177
     10          6           0        0.429035   -0.108702   -0.668734
     11          6           0       -2.190717   -1.416198    1.232484
     12          7           0       -3.583338    0.754255    1.146429
     13          1           0       -5.128421   -1.301097   -0.155537
     14          1           0       -2.610173    0.771167   -1.746798
     15          1           0       -1.890415   -0.867464   -1.722904
     16          1           0       -1.679758    2.459223    0.074024
     17          1           0        0.419617    3.373570    1.042399
     18          1           0        2.534056    2.054196    0.930466
     19          1           0        0.445510   -1.089893   -1.148665
     20          1           0       -2.866850   -1.843132    1.983721
     21          1           0       -1.435176   -0.778676    1.707643
     22          1           0       -1.740403   -2.201722    0.612677
     23          1           0       -4.362301    1.296175    0.774773
 ---------------------------------------------------------------------
                    Distance matrix (angstroms):
                    1          2          3          4          5
     1  N    0.000000
     2  S    1.537848   0.000000
     3  C    2.593084   1.851310   0.000000
     4  C    3.936428   2.795431   1.492720   0.000000
     5  C    4.708666   3.380570   2.514488   1.402427   0.000000
     6  C    6.015571   4.618978   3.793530   2.424893   1.392889
     7  C    6.621614   5.277703   4.306807   2.814819   2.423900
     8  C    6.087315   4.911577   3.785917   2.416534   2.774673
     9  Br   7.478917   6.445444   5.343660   4.155614   4.664758
    10  C    4.803946   3.777090   2.510762   1.401217   2.416799
    11  C    2.807821   1.803732   2.802458   3.100500   3.805892
    12  N    2.738379   1.539747   2.856158   3.325695   3.254949
    13  H    1.018425   2.121233   3.524580   4.796008   5.417221
    14  H    2.778841   2.338457   1.098964   2.176114   2.789054
    15  H    2.608774   2.380637   1.097537   2.180649   3.447387
    16  H    4.525326   3.254170   2.718081   2.159033   1.091143
    17  H    6.749587   5.323180   4.669018   3.413933   2.156402
    18  H    7.688165   6.316821   5.398171   3.906258   3.417456
    19  H    4.723191   3.979298   2.728179   2.168049   3.411932
    20  H    3.055950   2.343418   3.755829   4.154734   4.721671
    21  H    3.703170   2.395792   3.032842   2.792542   3.234950
    22  H    2.991622   2.388207   2.876998   3.234159   4.250521
    23  H    2.874221   2.114327   3.266181   3.915059   3.737496
                    6          7          8          9         10
     6  C    0.000000
     7  C    1.395424   0.000000
     8  C    2.397640   1.393009   0.000000
     9  Br   4.145476   2.846467   1.890105   0.000000
    10  C    2.787223   2.429229   1.392147   2.840957   0.000000
    11  C    4.668879   4.944543   4.416197   5.630983   3.491028
    12  N    4.368275   5.310799   5.341108   7.038643   4.487610
    13  H    6.706524   7.390092   6.939010   8.348580   5.707056
    14  H    4.141013   4.864304   4.524357   6.154099   3.342630
    15  H    4.603523   4.858164   4.046230   5.307927   2.658353
    16  H    2.158805   3.411772   3.865696   5.755777   3.404840
    17  H    1.092763   2.153500   3.388688   4.999961   3.879985
    18  H    2.170339   1.091474   2.160457   2.958605   3.415652
    19  H    3.879560   3.413873   2.156163   2.942433   1.092402
    20  H    5.549897   5.874997   5.423637   6.561727   4.572377
    21  H    3.851573   4.083831   3.732740   5.010481   3.093754
    22  H    5.079272   5.114787   4.301210   5.250386   3.275547
    23  H    4.914099   5.989293   6.087983   7.847826   5.197527
                   11         12         13         14         15
    11  C    0.000000
    12  N    2.580245   0.000000
    13  H    3.251147   2.882164   0.000000
    14  H    3.719762   3.052556   3.628768   0.000000
    15  H    3.020862   3.705271   3.623446   1.789898   0.000000
    16  H    4.077008   2.771387   5.107443   2.651527   3.786841
    17  H    5.458191   4.784902   7.353114   4.871524   5.565026
    18  H    5.870121   6.257715   8.435101   5.939444   5.928946
    19  H    3.567357   4.989985   5.665652   3.627466   2.415734
    20  H    1.097172   2.821495   3.159895   4.562589   3.955304
    21  H    1.096838   2.698043   4.169463   3.964315   3.461759
    22  H    1.097266   3.524075   3.588865   3.893803   2.694010
    23  H    3.504603   1.019112   2.863257   3.115109   4.126735
                   16         17         18         19         20
    16  H    0.000000
    17  H    2.486194   0.000000
    18  H    4.319001   2.494820   0.000000
    19  H    4.313694   4.972317   4.309305   0.000000
    20  H    4.854523   6.237061   6.743018   4.620708   0.000000
    21  H    3.634904   4.596080   4.938012   3.433996   1.805264
    22  H    4.692360   5.994517   6.040267   3.019388   1.810313
    23  H    3.006620   5.220530   6.939637   5.701577   3.681465
                   21         22         23
    21  H    0.000000
    22  H    1.821311   0.000000
    23  H    3.707198   4.374462   0.000000
 Stoichiometry    C8H11BrN2S
 Framework group  C1[X(C8H11BrN2S)]
 Deg. of freedom    63
 Full point group                 C1      NOp   1
 Largest Abelian subgroup         C1      NOp   1
 Largest concise Abelian subgroup C1      NOp   1
                         Standard orientation:                         
 ---------------------------------------------------------------------
 Center     Atomic      Atomic             Coordinates (Angstroms)
 Number     Number       Type             X           Y           Z
 ---------------------------------------------------------------------
      1          7           0       -4.052525   -1.273855   -0.637142
      2         16           0       -3.064978   -0.356481    0.103233
      3          6           0       -1.785907   -0.157395   -1.220281
      4          6           0       -0.531221    0.483366   -0.726927
      5          6           0       -0.524756    1.830335   -0.336497
      6          6           0        0.634148    2.408684    0.175943
      7          6           0        1.806759    1.663330    0.304937
      8          6           0        1.794842    0.327725   -0.090653
      9         35           0        3.371051   -0.703057    0.069190
     10          6           0        0.644801   -0.268004   -0.601127
     11          6           0       -2.086534   -1.194120    1.365951
     12          7           0       -3.428160    0.946115    0.839551
     13          1           0       -4.954056   -1.283770   -0.163504
     14          1           0       -2.322450    0.450396   -1.962192
     15          1           0       -1.638872   -1.168353   -1.621446
     16          1           0       -1.442021    2.415964   -0.415590
     17          1           0        0.629060    3.457479    0.482759
     18          1           0        2.718450    2.112141    0.703314
     19          1           0        0.662938   -1.317517   -0.903678
     20          1           0       -2.805347   -1.476229    2.145380
     21          1           0       -1.340588   -0.493607    1.760790
     22          1           0       -1.624584   -2.080561    0.913384
     23          1           0       -4.177687    1.425380    0.342456
 ---------------------------------------------------------------------
 Rotational constants (GHZ):           1.3801258           0.2619972           0.2382939
 Standard basis: def2SVP (5D, 7F)
 There are   259 symmetry adapted cartesian basis functions of A   symmetry.
 There are   245 symmetry adapted basis functions of A   symmetry.
   245 basis functions,   444 primitive gaussians,   259 cartesian basis functions
    62 alpha electrons       62 beta electrons
       nuclear repulsion energy      1080.6781506541 Hartrees.
 NAtoms=   23 NActive=   23 NUniq=   23 SFac= 1.00D+00 NAtFMM=   60 NAOKFM=F Big=F
 Integral buffers will be    131072 words long.
 Raffenetti 2 integral format.
 Two-electron integral symmetry is turned on.
 Nuclear repulsion after empirical dispersion term =     1080.6502029259 Hartrees.
 One-electron integrals computed using PRISM.
   1 Symmetry operations used in ECPInt.
 ECPInt:  NShTT=    6441 NPrTT=   25202 LenC2=    6118 LenP2D=   17569.
 LDataN:  DoStor=T MaxTD1= 4 Len=   56
 NBasis=   245 RedAO= T EigKep=  2.74D-04  NBF=   245
 NBsUse=   245 1.00D-06 EigRej= -1.00D+00 NBFU=   245
 Initial guess from the checkpoint file:  "SDI2997_6.chk"
 B after Tr=     0.000000    0.000000   -0.000000
         Rot=    0.999989    0.003163    0.001801    0.002883 Ang=   0.53 deg.
 ExpMin= 1.22D-01 ExpMax= 1.13D+05 ExpMxC= 1.70D+04 IAcc=3 IRadAn=         5 AccDes= 0.00D+00
 Harris functional with IExCor= 1009 and IRadAn=       5 diagonalized for initial guess.
 HarFok:  IExCor= 1009 AccDes= 0.00D+00 IRadAn=         5 IDoV= 1 UseB2=F ITyADJ=14
 ICtDFT=  3500011 ScaDFX=  1.000000  1.000000  1.000000  1.000000
 FoFCou: FMM=F IPFlag=           0 FMFlag=      100000 FMFlg1=           0
         NFxFlg=           0 DoJE=T BraDBF=F KetDBF=T FulRan=T
         wScrn=  0.000000 ICntrl=       500 IOpCl=  0 I1Cent=   200000004 NGrid=           0
         NMat0=    1 NMatS0=      1 NMatT0=    0 NMatD0=    1 NMtDS0=    0 NMtDT0=    0
 Petite list used in FoFCou.
 Requested convergence on RMS density matrix=1.00D-08 within 128 cycles.
 Requested convergence on MAX density matrix=1.00D-06.
 Requested convergence on             energy=1.00D-06.
 No special actions if energy rises.
 Integral accuracy reduced to 1.0D-05 until final iterations.
 Initial convergence to 1.0D-05 achieved.  Increase integral accuracy.
 SCF Done:  E(RPBE1PBE) =  -3391.55166000     A.U. after   12 cycles
            NFock= 12  Conv=0.69D-08     -V/T= 2.0022
   1 Symmetry operations used in ECPInt.
 ECPInt:  NShTT=    6441 NPrTT=   25202 LenC2=    6118 LenP2D=   17569.
 LDataN:  DoStor=T MaxTD1= 5 Len=  102
 Calling FoFJK, ICntrl=      2127 FMM=F ISym2X=0 I1Cent= 0 IOpClX= 0 NMat=1 NMatS=1 NMatT=0.
 ***** Axes restored to original set *****
 -------------------------------------------------------------------
 Center     Atomic                   Forces (Hartrees/Bohr)
 Number     Number              X              Y              Z
 -------------------------------------------------------------------
      1        7          -0.004006591   -0.001366435   -0.008210171
      2       16           0.012249952   -0.003836777   -0.001599237
      3        6          -0.000741300   -0.000702244    0.003767002
      4        6          -0.000006041    0.000594569   -0.000115537
      5        6           0.000502114   -0.000701467   -0.000141107
      6        6           0.000335471   -0.000904027   -0.000319615
      7        6          -0.002041443    0.000912590   -0.000180743
      8        6           0.001861230   -0.001217076   -0.000205096
      9       35          -0.000304500    0.000211479    0.000013679
     10        6          -0.002097848    0.000996672    0.000222644
     11        6          -0.001831613    0.002250403   -0.001169326
     12        7          -0.002303374    0.004500343    0.008829185
     13        1          -0.000500776   -0.001206847    0.003825174
     14        1          -0.000465161   -0.000193103   -0.000660809
     15        1           0.000204893    0.000709765   -0.001004267
     16        1           0.000064509   -0.000279992    0.000220507
     17        1          -0.000043946   -0.000218825   -0.000196569
     18        1          -0.000269871   -0.000204826   -0.000139910
     19        1           0.000049821    0.000199047    0.000193951
     20        1           0.000115508   -0.000114891    0.000198216
     21        1           0.000243376   -0.000909029    0.000044547
     22        1          -0.000246766   -0.000170799    0.000392759
     23        1          -0.000767645    0.001651473   -0.003765278
 -------------------------------------------------------------------
 Cartesian Forces:  Max     0.012249952 RMS     0.002515671

 GradGradGradGradGradGradGradGradGradGradGradGradGradGradGradGradGradGrad
 Berny optimization.
 Using GEDIIS/GDIIS optimizer.
 FormGI is forming the generalized inverse of G from B-inverse, IUseBI=4.
 Internal  Forces:  Max     0.008451921 RMS     0.001395523
 Search for a local minimum.
 Step number   2 out of a maximum of  125
 All quantities printed in internal units (Hartrees-Bohrs-Radians)
 Mixed Optimization -- RFO/linear search
 Update second derivatives using D2CorX and points    1    2
 DE= -4.77D-03 DEPred=-4.39D-03 R= 1.09D+00
 TightC=F SS=  1.41D+00  RLast= 2.11D-01 DXNew= 5.0454D-01 6.3378D-01
 Trust test= 1.09D+00 RLast= 2.11D-01 DXMaxT set to 5.05D-01
 ITU=  1  0
 Use linear search instead of GDIIS.
     Eigenvalues ---    0.00230   0.00230   0.01033   0.01735   0.02208
     Eigenvalues ---    0.02248   0.02263   0.02288   0.02295   0.02301
     Eigenvalues ---    0.02304   0.02311   0.03230   0.03480   0.04292
     Eigenvalues ---    0.05647   0.05855   0.06274   0.06325   0.07669
     Eigenvalues ---    0.08381   0.09185   0.12559   0.14064   0.14572
     Eigenvalues ---    0.15995   0.16000   0.16000   0.16000   0.16000
     Eigenvalues ---    0.16000   0.16000   0.16179   0.17902   0.18920
     Eigenvalues ---    0.21386   0.22000   0.22384   0.23453   0.23480
     Eigenvalues ---    0.24078   0.24955   0.25000   0.34649   0.35106
     Eigenvalues ---    0.35428   0.35609   0.35709   0.35888   0.36045
     Eigenvalues ---    0.36122   0.36189   0.37511   0.43399   0.43659
     Eigenvalues ---    0.45515   0.46511   0.47309   0.48288   0.48384
     Eigenvalues ---    0.50308   0.66183   0.67433
 RFO step:  Lambda=-1.24641937D-03 EMin= 2.29603026D-03
 Quartic linear search produced a step of  0.15583.
 Iteration  1 RMS(Cart)=  0.03371169 RMS(Int)=  0.00076692
 Iteration  2 RMS(Cart)=  0.00082393 RMS(Int)=  0.00003678
 Iteration  3 RMS(Cart)=  0.00000082 RMS(Int)=  0.00003677
 Variable       Old X    -DE/DX   Delta X   Delta X   Delta X     New X
                                 (Linear)    (Quad)   (Total)
    R1        2.90611   0.00669   0.00088   0.01152   0.01241   2.91852
    R2        1.92454   0.00246   0.00351   0.00560   0.00912   1.93366
    R3        3.49847  -0.00316  -0.00341  -0.01615  -0.01956   3.47890
    R4        3.40856  -0.00191  -0.00635  -0.00807  -0.01442   3.39414
    R5        2.90970   0.00845   0.00142   0.01451   0.01594   2.92564
    R6        2.82083  -0.00213   0.00378  -0.00761  -0.00383   2.81701
    R7        2.07674   0.00048   0.00334   0.00110   0.00444   2.08118
    R8        2.07404  -0.00004   0.00368  -0.00066   0.00302   2.07706
    R9        2.65020  -0.00171   0.00282  -0.00471  -0.00189   2.64831
   R10        2.64792  -0.00157   0.00300  -0.00426  -0.00126   2.64666
   R11        2.63218  -0.00126   0.00293  -0.00349  -0.00057   2.63161
   R12        2.06196  -0.00019   0.00380  -0.00113   0.00267   2.06463
   R13        2.63697  -0.00128   0.00309  -0.00345  -0.00036   2.63661
   R14        2.06502  -0.00028   0.00401  -0.00147   0.00255   2.06757
   R15        2.63241   0.00010   0.00270   0.00001   0.00271   2.63512
   R16        2.06259  -0.00036   0.00374  -0.00166   0.00208   2.06466
   R17        3.57178  -0.00037  -0.00528  -0.00150  -0.00678   3.56500
   R18        2.63078  -0.00007   0.00281  -0.00042   0.00239   2.63316
   R19        2.06434  -0.00026   0.00370  -0.00136   0.00234   2.06668
   R20        2.07335   0.00011   0.00408  -0.00022   0.00386   2.07721
   R21        2.07272  -0.00034   0.00445  -0.00172   0.00273   2.07545
   R22        2.07353  -0.00020   0.00426  -0.00125   0.00301   2.07654
   R23        1.92584   0.00284   0.00350   0.00655   0.01005   1.93589
    A1        1.92875  -0.00411  -0.01117  -0.02751  -0.03867   1.89008
    A2        1.73517  -0.00010  -0.00168  -0.00138  -0.00312   1.73205
    A3        1.99144  -0.00022  -0.00011  -0.00024  -0.00034   1.99110
    A4        2.19372  -0.00090   0.00310  -0.01675  -0.01367   2.18005
    A5        1.74735   0.00137   0.00008   0.01692   0.01698   1.76433
    A6        1.99749  -0.00025  -0.00043  -0.00122  -0.00184   1.99565
    A7        1.75793   0.00059  -0.00147   0.01000   0.00851   1.76644
    A8        1.97209  -0.00018   0.00672   0.00009   0.00676   1.97885
    A9        1.77705  -0.00034  -0.00676  -0.00275  -0.00951   1.76754
   A10        1.82845   0.00104   0.00001   0.01202   0.01195   1.84040
   A11        1.97805   0.00038   0.00162   0.00100   0.00272   1.98077
   A12        1.98624  -0.00037  -0.00071  -0.00112  -0.00198   1.98426
   A13        1.90507  -0.00050  -0.00154  -0.00883  -0.01038   1.89469
   A14        2.10385   0.00023   0.00134   0.00098   0.00232   2.10618
   A15        2.10011  -0.00088  -0.00124  -0.00373  -0.00497   2.09514
   A16        2.07849   0.00065  -0.00004   0.00261   0.00256   2.08105
   A17        2.10024  -0.00028  -0.00047  -0.00198  -0.00245   2.09779
   A18        2.08453   0.00007   0.00032   0.00045   0.00076   2.08529
   A19        2.09815   0.00021   0.00014   0.00149   0.00163   2.09977
   A20        2.10760   0.00009   0.00049   0.00013   0.00062   2.10821
   A21        2.09201  -0.00011  -0.00036  -0.00050  -0.00086   2.09115
   A22        2.08358   0.00002  -0.00012   0.00037   0.00025   2.08383
   A23        2.06996   0.00060  -0.00009   0.00340   0.00331   2.07327
   A24        2.11299  -0.00022   0.00025  -0.00115  -0.00090   2.11209
   A25        2.10023  -0.00038  -0.00015  -0.00225  -0.00240   2.09783
   A26        2.08488   0.00066   0.00007   0.00280   0.00287   2.08775
   A27        2.11939  -0.00136  -0.00037  -0.00575  -0.00611   2.11327
   A28        2.07892   0.00070   0.00029   0.00295   0.00324   2.08216
   A29        2.09069   0.00029   0.00048   0.00161   0.00209   2.09277
   A30        2.09930  -0.00007  -0.00018  -0.00029  -0.00047   2.09884
   A31        2.09320  -0.00022  -0.00030  -0.00133  -0.00163   2.09157
   A32        1.83520   0.00010  -0.00636   0.00127  -0.00512   1.83008
   A33        1.90110   0.00126   0.00429   0.00933   0.01363   1.91473
   A34        1.89104   0.00011  -0.00193   0.00060  -0.00138   1.88966
   A35        1.93269  -0.00046   0.00164  -0.00241  -0.00071   1.93198
   A36        1.94025  -0.00035   0.00146  -0.00501  -0.00366   1.93658
   A37        1.95855  -0.00056   0.00054  -0.00303  -0.00250   1.95605
   A38        1.91566  -0.00393  -0.01204  -0.02603  -0.03807   1.87759
    D1       -2.86077  -0.00056  -0.00634  -0.03204  -0.03842  -2.89919
    D2        1.57901  -0.00200  -0.00554  -0.05048  -0.05600   1.52302
    D3       -0.60108  -0.00175  -0.00626  -0.04882  -0.05507  -0.65615
    D4       -2.94710  -0.00048   0.00041   0.00062   0.00095  -2.94615
    D5        1.20861  -0.00064  -0.00088   0.00110   0.00026   1.20887
    D6       -0.77562  -0.00033   0.00348   0.00763   0.01115  -0.76447
    D7       -0.90947  -0.00036  -0.00016   0.00464   0.00441  -0.90506
    D8       -3.03694  -0.00052  -0.00145   0.00512   0.00372  -3.03323
    D9        1.26201  -0.00021   0.00291   0.01165   0.01461   1.27662
   D10        0.95420   0.00096  -0.00194   0.02464   0.02262   0.97682
   D11       -1.17328   0.00080  -0.00323   0.02513   0.02193  -1.15134
   D12        3.12568   0.00111   0.00113   0.03166   0.03282  -3.12468
   D13       -1.17611   0.00046  -0.00152  -0.03588  -0.03745  -1.21356
   D14        3.03496   0.00031  -0.00225  -0.03838  -0.04061   2.99435
   D15        0.89984   0.00016  -0.00434  -0.04075  -0.04506   0.85478
   D16       -3.01190  -0.00006   0.00039  -0.04290  -0.04252  -3.05443
   D17        1.19917  -0.00021  -0.00034  -0.04540  -0.04568   1.15348
   D18       -0.93596  -0.00036  -0.00243  -0.04777  -0.05013  -0.98609
   D19        1.22063  -0.00040   0.00127  -0.04979  -0.04861   1.17202
   D20       -0.85148  -0.00054   0.00054  -0.05229  -0.05177  -0.90325
   D21       -2.98660  -0.00069  -0.00155  -0.05465  -0.05622  -3.04282
   D22       -0.61611  -0.00109  -0.00534  -0.03676  -0.04215  -0.65825
   D23        1.53454  -0.00244  -0.00538  -0.05736  -0.06271   1.47183
   D24       -2.89151  -0.00064  -0.00622  -0.03305  -0.03926  -2.93077
   D25       -1.19490   0.00053   0.00094   0.01808   0.01900  -1.17591
   D26        1.90519   0.00050   0.00263   0.01418   0.01679   1.92198
   D27        0.81521   0.00024  -0.00210   0.01530   0.01323   0.82844
   D28       -2.36788   0.00021  -0.00041   0.01140   0.01102  -2.35686
   D29        3.00573  -0.00043  -0.00343   0.00301  -0.00043   3.00530
   D30       -0.17736  -0.00047  -0.00174  -0.00089  -0.00264  -0.18000
   D31        3.09441   0.00008   0.00074   0.00417   0.00490   3.09931
   D32       -0.02234   0.00013   0.00141   0.00623   0.00764  -0.01470
   D33       -0.00620   0.00015  -0.00090   0.00817   0.00727   0.00107
   D34       -3.12295   0.00021  -0.00022   0.01023   0.01001  -3.11293
   D35       -3.09790  -0.00012  -0.00023  -0.00510  -0.00532  -3.10322
   D36        0.04589  -0.00005  -0.00119  -0.00126  -0.00244   0.04345
   D37        0.00280  -0.00016   0.00148  -0.00898  -0.00751  -0.00471
   D38       -3.13660  -0.00009   0.00052  -0.00514  -0.00463  -3.14122
   D39        0.00442  -0.00004  -0.00019  -0.00196  -0.00215   0.00228
   D40       -3.13591  -0.00005   0.00001  -0.00264  -0.00263  -3.13854
   D41        3.12098  -0.00010  -0.00087  -0.00405  -0.00492   3.11605
   D42       -0.01936  -0.00011  -0.00067  -0.00473  -0.00541  -0.02476
   D43        0.00081  -0.00006   0.00068  -0.00344  -0.00276  -0.00195
   D44        3.13868   0.00000   0.00013   0.00001   0.00014   3.13882
   D45        3.14115  -0.00005   0.00048  -0.00276  -0.00228   3.13887
   D46       -0.00417   0.00001  -0.00007   0.00069   0.00062  -0.00354
   D47        3.13875   0.00005  -0.00076   0.00276   0.00200   3.14075
   D48       -0.00426   0.00005  -0.00008   0.00260   0.00251  -0.00175
   D49        0.00085  -0.00002  -0.00021  -0.00066  -0.00088  -0.00003
   D50        3.14102  -0.00001   0.00047  -0.00083  -0.00036   3.14066
   D51        0.00246   0.00006  -0.00101   0.00366   0.00264   0.00510
   D52       -3.14132  -0.00001  -0.00005  -0.00017  -0.00022  -3.14155
   D53       -3.14055   0.00007  -0.00033   0.00349   0.00316  -3.13740
   D54       -0.00115  -0.00000   0.00063  -0.00034   0.00029  -0.00086
         Item               Value     Threshold  Converged?
 Maximum Force            0.008452     0.000450     NO 
 RMS     Force            0.001396     0.000300     NO 
 Maximum Displacement     0.181107     0.001800     NO 
 RMS     Displacement     0.033693     0.001200     NO 
 Predicted change in Energy=-7.371774D-04
 GradGradGradGradGradGradGradGradGradGradGradGradGradGradGradGradGradGrad

                          Input orientation:                          
 ---------------------------------------------------------------------
 Center     Atomic      Atomic             Coordinates (Angstroms)
 Number     Number       Type             X           Y           Z
 ---------------------------------------------------------------------
      1          7           0       -4.238589   -1.199980   -0.678596
      2         16           0       -3.233462   -0.397785    0.176633
      3          6           0       -2.024469    0.055451   -1.135630
      4          6           0       -0.757957    0.630885   -0.599911
      5          6           0       -0.752713    1.880007    0.035435
      6          6           0        0.426588    2.385495    0.576765
      7          6           0        1.617421    1.663124    0.494461
      8          6           0        1.606934    0.420933   -0.139044
      9         35           0        3.204148   -0.575075   -0.264798
     10          6           0        0.433973   -0.099984   -0.681628
     11          6           0       -2.212586   -1.411892    1.251518
     12          7           0       -3.609068    0.764895    1.127399
     13          1           0       -5.094979   -1.326838   -0.133121
     14          1           0       -2.612816    0.769437   -1.733097
[...]
 Alpha virt. eigenvalues --    1.62051   1.62839   1.62967   1.63133   1.63973
 Alpha virt. eigenvalues --    1.65639   1.66772   1.67613   1.68464   1.69109
 Alpha virt. eigenvalues --    1.70191   1.70832   1.71376   1.72295   1.73061
 Alpha virt. eigenvalues --    1.74470   1.76178   1.78472   1.80521   1.80713
 Alpha virt. eigenvalues --    1.81259   1.82448   1.84990   1.86202   1.87291
 Alpha virt. eigenvalues --    1.89242   1.91316   1.91544   1.93543   1.95191
 Alpha virt. eigenvalues --    1.95960   1.98073   1.99403   2.00136   2.01112
 Alpha virt. eigenvalues --    2.02618   2.03785   2.04582   2.05511   2.06919
 Alpha virt. eigenvalues --    2.07884   2.08694   2.11623   2.12213   2.13663
 Alpha virt. eigenvalues --    2.14588   2.15997   2.16657   2.18548   2.20669
 Alpha virt. eigenvalues --    2.23873   2.25366   2.27039   2.28240   2.29197
 Alpha virt. eigenvalues --    2.31243   2.33147   2.34533   2.36717   2.39289
 Alpha virt. eigenvalues --    2.40787   2.42429   2.44619   2.46122   2.46801
 Alpha virt. eigenvalues --    2.48119   2.48323   2.50776   2.52066   2.54172
 Alpha virt. eigenvalues --    2.55647   2.57142   2.59244   2.60613   2.61945
 Alpha virt. eigenvalues --    2.63217   2.64310   2.65133   2.65506   2.66925
 Alpha virt. eigenvalues --    2.67853   2.70442   2.70670   2.71547   2.72825
 Alpha virt. eigenvalues --    2.74408   2.75840   2.76523   2.77589   2.78701
 Alpha virt. eigenvalues --    2.79279   2.80843   2.83160   2.83620   2.84403
 Alpha virt. eigenvalues --    2.86256   2.87037   2.89333   2.90350   2.92008
 Alpha virt. eigenvalues --    2.93795   2.98062   2.98639   2.99863   3.02625
 Alpha virt. eigenvalues --    3.04392   3.05111   3.08636   3.10389   3.11453
 Alpha virt. eigenvalues --    3.12415   3.14211   3.14323   3.16107   3.17664
 Alpha virt. eigenvalues --    3.18634   3.19917   3.20980   3.21895   3.22876
 Alpha virt. eigenvalues --    3.24868   3.25225   3.26965   3.28923   3.29957
 Alpha virt. eigenvalues --    3.31059   3.32597   3.36004   3.36931   3.37912
 Alpha virt. eigenvalues --    3.38523   3.40451   3.41262   3.43212   3.44271
 Alpha virt. eigenvalues --    3.45214   3.46546   3.47797   3.49298   3.50543
 Alpha virt. eigenvalues --    3.52188   3.53634   3.54789   3.55985   3.59195
 Alpha virt. eigenvalues --    3.60807   3.61347   3.64089   3.65180   3.68947
 Alpha virt. eigenvalues --    3.70783   3.73654   3.75373   3.78114   3.79591
 Alpha virt. eigenvalues --    3.84191   3.85022   3.88298   3.89210   3.94148
 Alpha virt. eigenvalues --    3.97550   3.97859   4.02774   4.03388   4.04898
 Alpha virt. eigenvalues --    4.06083   4.07033   4.11175   4.11843   4.13875
 Alpha virt. eigenvalues --    4.16182   4.16282   4.17655   4.19258   4.19859
 Alpha virt. eigenvalues --    4.21768   4.22129   4.22971   4.24449   4.25576
 Alpha virt. eigenvalues --    4.26423   4.27347   4.29202   4.31343   4.32293
 Alpha virt. eigenvalues --    4.33991   4.36296   4.39017   4.41310   4.43963
 Alpha virt. eigenvalues --    4.45464   4.47216   4.51856   4.56750   4.57891
 Alpha virt. eigenvalues --    4.59621   4.64775   4.65705   4.66749   4.68724
 Alpha virt. eigenvalues --    4.69789   4.73875   4.74201   4.76310   4.77937
 Alpha virt. eigenvalues --    4.83464   4.89438   4.91057   5.00505   5.01569
 Alpha virt. eigenvalues --    5.07704   5.10232   5.14080   5.15950   5.17918
 Alpha virt. eigenvalues --    5.20151   5.22418   5.23579   5.38194   5.42748
 Alpha virt. eigenvalues --    5.43136   5.54692   5.57460   5.60901   7.79285
 Alpha virt. eigenvalues --    9.42241   9.47277   9.59593  21.54094  22.10171
 Alpha virt. eigenvalues --   22.34794  22.51937  22.69713  22.72918  22.79836
 Alpha virt. eigenvalues --   22.91103  23.24204  31.87884  31.90747
          Condensed to atoms (all electrons):
               1          2          3          4          5          6
     1  N    6.899493   0.529751  -0.110124   0.014478   0.002176  -0.000224
     2  S    0.529751  14.149104   0.230578  -0.035960   0.015283  -0.002673
     3  C   -0.110124   0.230578   5.760814  -0.094006  -0.034081  -0.008190
     4  C    0.014478  -0.035960  -0.094006   5.661479   0.133856   0.167801
     5  C    0.002176   0.015283  -0.034081   0.133856   5.252951   0.292222
     6  C   -0.000224  -0.002673  -0.008190   0.167801   0.292222   5.074206
     7  C    0.000046   0.001210   0.010289  -0.187999   0.131997   0.297735
     8  C   -0.000107  -0.000432   0.005058   0.102775  -0.133198   0.107186
     9  Br  -0.000000   0.000012  -0.001397   0.018369  -0.000599   0.017141
    10  C    0.000663   0.000250  -0.048280   0.265822   0.062177  -0.139331
    11  C   -0.054083   0.272349  -0.126606   0.050727  -0.007539   0.001736
    12  N   -0.078852   0.497328  -0.047686  -0.050805   0.020484  -0.007179
    13  H    0.312163  -0.023547   0.016339  -0.002399  -0.000025   0.000008
    14  H    0.012207  -0.021363   0.348644   0.002767  -0.008512   0.001819
    15  H    0.011371  -0.007983   0.366519  -0.049393   0.012551  -0.001145
    16  H    0.000893   0.006622   0.000662  -0.103216   0.442804  -0.058163
    17  H   -0.000002  -0.000137  -0.000905   0.016452  -0.054749   0.432419
    18  H    0.000000   0.000002   0.000121  -0.003229   0.011121  -0.059896
    19  H    0.000034  -0.000436   0.000059  -0.080860   0.015516  -0.005163
    20  H    0.002099  -0.012355   0.009911  -0.001045  -0.000466   0.000058
    21  H    0.004758  -0.007568   0.009345  -0.007882   0.001421  -0.001699
    22  H    0.003312  -0.021254   0.011369  -0.007039   0.000232  -0.000059
    23  H   -0.002490  -0.022643  -0.009777   0.003605  -0.002329   0.000481
               7          8          9         10         11         12
     1  N    0.000046  -0.000107  -0.000000   0.000663  -0.054083  -0.078852
     2  S    0.001210  -0.000432   0.000012   0.000250   0.272349   0.497328
     3  C    0.010289   0.005058  -0.001397  -0.048280  -0.126606  -0.047686
     4  C   -0.187999   0.102775   0.018369   0.265822   0.050727  -0.050805
     5  C    0.131997  -0.133198  -0.000599   0.062177  -0.007539   0.020484
     6  C    0.297735   0.107186   0.017141  -0.139331   0.001736  -0.007179
     7  C    5.168085   0.362375  -0.071514   0.050673  -0.001099   0.001700
     8  C    0.362375   4.854917   0.315052   0.353437   0.001760  -0.000789
     9  Br  -0.071514   0.315052  34.886970  -0.071989   0.000025  -0.000001
    10  C    0.050673   0.353437  -0.071989   5.329435  -0.003764   0.003554
    11  C   -0.001099   0.001760   0.000025  -0.003764   5.170043  -0.073150
    12  N    0.001700  -0.000789  -0.000001   0.003554  -0.073150   6.932487
    13  H   -0.000001   0.000004   0.000000  -0.000023  -0.008831  -0.003137
    14  H   -0.000389  -0.000172   0.000013  -0.000446   0.009156  -0.003391
    15  H    0.000272   0.001669  -0.000015  -0.001346   0.002141   0.006014
    16  H    0.016980  -0.004244   0.000045   0.014114  -0.000215   0.033509
    17  H   -0.059627   0.010836  -0.000475  -0.001312   0.000050  -0.000537
    18  H    0.436897  -0.060142  -0.004573   0.015379  -0.000003   0.000003
    19  H    0.016519  -0.054729  -0.002954   0.441657   0.000176   0.000022
    20  H   -0.000029   0.000000   0.000001   0.000148   0.367388   0.004810
    21  H    0.001765  -0.000450   0.000028  -0.004103   0.358195   0.000962
    22  H    0.000156  -0.001228   0.000019   0.003782   0.377392   0.005681
    23  H   -0.000063   0.000053  -0.000000  -0.000370   0.012748   0.307947
              13         14         15         16         17         18
     1  N    0.312163   0.012207   0.011371   0.000893  -0.000002   0.000000
     2  S   -0.023547  -0.021363  -0.007983   0.006622  -0.000137   0.000002
     3  C    0.016339   0.348644   0.366519   0.000662  -0.000905   0.000121
     4  C   -0.002399   0.002767  -0.049393  -0.103216   0.016452  -0.003229
     5  C   -0.000025  -0.008512   0.012551   0.442804  -0.054749   0.011121
     6  C    0.000008   0.001819  -0.001145  -0.058163   0.432419  -0.059896
     7  C   -0.000001  -0.000389   0.000272   0.016980  -0.059627   0.436897
     8  C    0.000004  -0.000172   0.001669  -0.004244   0.010836  -0.060142
     9  Br   0.000000   0.000013  -0.000015   0.000045  -0.000475  -0.004573
    10  C   -0.000023  -0.000446  -0.001346   0.014114  -0.001312   0.015379
    11  C   -0.008831   0.009156   0.002141  -0.000215   0.000050  -0.000003
    12  N   -0.003137  -0.003391   0.006014   0.033509  -0.000537   0.000003
    13  H    0.492638  -0.001053  -0.001401  -0.000083   0.000000  -0.000000
    14  H   -0.001053   0.512643  -0.008708   0.000224   0.000023  -0.000003
    15  H   -0.001401  -0.008708   0.500148   0.001351  -0.000004  -0.000003
    16  H   -0.000083   0.000224   0.001351   0.543931  -0.010261  -0.000176
    17  H    0.000000   0.000023  -0.000004  -0.010261   0.547551  -0.007521
    18  H   -0.000000  -0.000003  -0.000003  -0.000176  -0.007521   0.533854
    19  H   -0.000002   0.000261   0.001858  -0.000140   0.000071  -0.000082
    20  H    0.002517  -0.000259  -0.000546  -0.000124   0.000002  -0.000000
    21  H    0.000170  -0.000926   0.000997   0.000250  -0.000064  -0.000001
    22  H   -0.000167  -0.000061  -0.003514  -0.000104   0.000002   0.000001
    23  H   -0.000122   0.002686   0.000186   0.000497   0.000014  -0.000000
              19         20         21         22         23
     1  N    0.000034   0.002099   0.004758   0.003312  -0.002490
     2  S   -0.000436  -0.012355  -0.007568  -0.021254  -0.022643
     3  C    0.000059   0.009911   0.009345   0.011369  -0.009777
     4  C   -0.080860  -0.001045  -0.007882  -0.007039   0.003605
     5  C    0.015516  -0.000466   0.001421   0.000232  -0.002329
     6  C   -0.005163   0.000058  -0.001699  -0.000059   0.000481
     7  C    0.016519  -0.000029   0.001765   0.000156  -0.000063
     8  C   -0.054729   0.000000  -0.000450  -0.001228   0.000053
     9  Br  -0.002954   0.000001   0.000028   0.000019  -0.000000
    10  C    0.441657   0.000148  -0.004103   0.003782  -0.000370
    11  C    0.000176   0.367388   0.358195   0.377392   0.012748
    12  N    0.000022   0.004810   0.000962   0.005681   0.307947
    13  H   -0.000002   0.002517   0.000170  -0.000167  -0.000122
    14  H    0.000261  -0.000259  -0.000926  -0.000061   0.002686
    15  H    0.001858  -0.000546   0.000997  -0.003514   0.000186
    16  H   -0.000140  -0.000124   0.000250  -0.000104   0.000497
    17  H    0.000071   0.000002  -0.000064   0.000002   0.000014
    18  H   -0.000082  -0.000000  -0.000001   0.000001  -0.000000
    19  H    0.535584  -0.000018  -0.000192   0.000677  -0.000006
    20  H   -0.000018   0.491686  -0.007679  -0.012965  -0.000702
    21  H   -0.000192  -0.007679   0.497375  -0.017271  -0.000736
    22  H    0.000677  -0.012965  -0.017271   0.515699  -0.000584
    23  H   -0.000006  -0.000702  -0.000736  -0.000584   0.496094
 Mulliken charges:
               1
     1  N   -0.547563
     2  S    0.453864
     3  C   -0.288655
     4  C    0.185701
     5  C   -0.153293
     6  C   -0.109089
     7  C   -0.175978
     8  C    0.140368
     9  Br  -0.084157
    10  C   -0.270126
    11  C   -0.348596
    12  N   -0.548976
    13  H    0.216953
    14  H    0.154840
    15  H    0.168983
    16  H    0.114844
    17  H    0.128173
    18  H    0.138249
    19  H    0.132151
    20  H    0.157566
    21  H    0.173305
    22  H    0.145925
    23  H    0.215512
 Sum of Mulliken charges =  -0.00000
 Mulliken charges with hydrogens summed into heavy atoms:
               1
     1  N   -0.330610
     2  S    0.453864
     3  C    0.035167
     4  C    0.185701
     5  C   -0.038449
     6  C    0.019084
     7  C   -0.037729
     8  C    0.140368
     9  Br  -0.084157
    10  C   -0.137975
    11  C    0.128200
    12  N   -0.333464
 Electronic spatial extent (au):  <R**2>=           4220.3235
 Charge=             -0.0000 electrons
 Dipole moment (field-independent basis, Debye):
    X=              0.5168    Y=              0.5712    Z=              0.2864  Tot=              0.8218
 Quadrupole moment (field-independent basis, Debye-Ang):
   XX=            -99.3072   YY=            -87.4631   ZZ=            -93.6637
   XY=              0.4486   XZ=             -0.1704   YZ=             -4.4520
 Traceless Quadrupole moment (field-independent basis, Debye-Ang):
   XX=             -5.8292   YY=              6.0149   ZZ=             -0.1857
   XY=              0.4486   XZ=             -0.1704   YZ=             -4.4520
 Octapole moment (field-independent basis, Debye-Ang**2):
  XXX=             94.8063  YYY=             -6.4766  ZZZ=              5.4557  XYY=             40.6758
  XXY=              3.5216  XXZ=             15.0759  XZZ=             33.7138  YZZ=            -14.2103
  YYZ=              7.1922  XYZ=             28.0329
 Hexadecapole moment (field-independent basis, Debye-Ang**3):
 XXXX=          -3721.5160 YYYY=           -769.3554 ZZZZ=           -354.6102 XXXY=           -105.4912
 XXXZ=            -37.8220 YYYX=            -87.4274 YYYZ=              3.8888 ZZZX=              1.0499
 ZZZY=            -13.8130 XXYY=           -765.3558 XXZZ=           -743.4750 YYZZ=           -206.3622
 XXYZ=            -86.2856 YYXZ=              1.7848 ZZXY=            -17.7562
 N-N= 1.079939754561D+03 E-N=-1.023477313476D+04  KE= 3.386302219823D+03
 Breneman (CHELPG) radii used.
 Read replacement radii for each type of atom:
 Rad(35) =   1.850000000000D+00
 Atom Element Radius
    1     7    1.70
    2    16    2.00
    3     6    1.50
    4     6    1.50
    5     6    1.50
    6     6    1.50
    7     6    1.50
    8     6    1.50
    9    35    1.85
   10     6    1.50
   11     6    1.50
   12     7    1.70
   13     1    1.45
   14     1    1.45
   15     1    1.45
   16     1    1.45
   17     1    1.45
   18     1    1.45
   19     1    1.45
   20     1    1.45
   21     1    1.45
   22     1    1.45
   23     1    1.45
 Generate Potential Derived Charges using the Breneman model, NDens= 1.
 Grid spacing= 0.300 Box extension= 2.800
 NStep X,Y,Z=   48     39     34   Total possible points=       63648
 Number of Points to Fit=   14891

 **********************************************************************

            Electrostatic Properties Using The SCF Density.

 **********************************************************************

       Atomic Center    1 is at  -4.035640 -1.311819 -0.643920
       Atomic Center    2 is at  -3.065697 -0.355421  0.094349
       Atomic Center    3 is at  -1.771465 -0.206140 -1.197713
       Atomic Center    4 is at  -0.526785  0.455765 -0.711330
       Atomic Center    5 is at  -0.531475  1.804518 -0.334155
       Atomic Center    6 is at   0.626847  2.395952  0.161633
       Atomic Center    7 is at   1.805262  1.662308  0.286994
       Atomic Center    8 is at   1.805152  0.320738 -0.089890
       Atomic Center    9 is at   3.388325 -0.694555  0.070957
       Atomic Center   10 is at   0.652647 -0.286298 -0.582673
       Atomic Center   11 is at  -2.148012 -1.110544  1.439573
       Atomic Center   12 is at  -3.486812  0.987542  0.751039
       Atomic Center   13 is at  -4.886537 -1.388188 -0.079814
       Atomic Center   14 is at  -2.297145  0.367695 -1.975495
       Atomic Center   15 is at  -1.608169 -1.224432 -1.573161
       Atomic Center   16 is at  -1.455990  2.378995 -0.405448
       Atomic Center   17 is at   0.616422  3.447615  0.456949
       Atomic Center   18 is at   2.716027  2.123908  0.671755
       Atomic Center   19 is at   0.673745 -1.339560 -0.870641
       Atomic Center   20 is at  -2.884221 -1.271267  2.237353
       Atomic Center   21 is at  -1.357928 -0.430260  1.780093
       Atomic Center   22 is at  -1.742351 -2.064740  1.081068
       Atomic Center   23 is at  -4.129931  1.448547  0.099815
   14891 points will be used for fitting atomic charges
 Fitting point charges to electrostatic potential
 Charges from ESP fit, RMS=   0.00423 RRMS=   0.30327:
 ESP charges:
               1
     1  N   -0.833779
     2  S    0.873041
     3  C   -0.236371
     4  C    0.128798
     5  C   -0.140763
     6  C   -0.122171
     7  C   -0.047507
     8  C    0.055572
     9  Br  -0.091498
    10  C   -0.135841
    11  C   -0.296907
    12  N   -0.801877
    13  H    0.331862
    14  H    0.092428
    15  H    0.145270
    16  H    0.128844
    17  H    0.117712
    18  H    0.078392
    19  H    0.086482
    20  H    0.122455
    21  H    0.117870
    22  H    0.103531
    23  H    0.324455
 Sum of ESP charges =   0.00000
 ESP charges with hydrogens summed into heavy atoms:
               1
     1  N   -0.501916
     2  S    0.873041
     3  C    0.001328
     4  C    0.128798
     5  C   -0.011920
     6  C   -0.004459
     7  C    0.030885
     8  C    0.055572
     9  Br  -0.091498
    10  C   -0.049359
    11  C    0.046948
    12  N   -0.477421
 Charge=   0.00000 Dipole=     0.6821     0.6319     0.1528 Tot=     0.9423
 -----------------------------------------------------------------

              Electrostatic Properties (Atomic Units)

 -----------------------------------------------------------------
    Center     Electric         -------- Electric Field --------
               Potential          X             Y             Z
 -----------------------------------------------------------------
    1 Atom    -18.423910
    2 Atom    -59.074237
    3 Atom    -14.720604
    4 Atom    -14.726834
    5 Atom    -14.747576
    6 Atom    -14.742739
    7 Atom    -14.740599
    8 Atom    -14.692692
    9 Atom   -175.796527
   10 Atom    -14.738382
   11 Atom    -14.733414
   12 Atom    -18.421611
   13 Atom     -1.048595
   14 Atom     -1.070634
   15 Atom     -1.074174
   16 Atom     -1.090768
   17 Atom     -1.086037
   18 Atom     -1.081000
   19 Atom     -1.076492
   20 Atom     -1.072074
   21 Atom     -1.074927
   22 Atom     -1.073841
   23 Atom     -1.047329
 -----------------------------------------------------------------
 Unable to Open any file for archive entry.
 1\1\GINC-NOTCH357\SP\RPBE1PBE\def2TZVP\C8H11Br1N2S1\U1414944\07-Jun-20
 25\0\\#N Guess=Read Geom=Check Integral(Ultrafine) Density Pop=(ChelpG
 ,ReadRadii) NMR pbe1pbe EmpiricalDispersion=GD3BJ def2TZVP\\SDI2997_6\
 \0,1\N,0,-4.2380132445,-1.1969606847,-0.6980683802\S,0,-3.2346275004,-
 0.3942373392,0.1675971914\C,0,-2.0258042161,0.0555398898,-1.1374674299
 \C,0,-0.7606864177,0.6302666965,-0.5960954133\C,0,-0.7570807325,1.8687
 153609,0.0578533501\C,0,0.4232487301,2.3704835605,0.5985581608\C,0,1.6
 154955858,1.655893866,0.4960039714\C,0,1.6070360877,0.4242864946,-0.15
 58562039\Br,0,3.2086558315,-0.5631364977,-0.3073059359\C,0,0.432878563
 8,-0.0932210418,-0.6972772967\C,0,-2.225791219,-1.3932620748,1.2658619
 245\N,0,-3.6289937814,0.7694794509,1.1175280402\H,0,-5.0509116282,-1.4
 112495905,-0.113816073\H,0,-2.6057603495,0.767390472,-1.7436769189\H,0
 ,-1.8747868248,-0.8564609411,-1.7290686283\H,0,-1.6907379685,2.4225657
 165,0.1644738646\H,0,0.4193825576,3.3357168715,1.110051228\H,0,2.54328
 59315,2.0481383696,0.9154786055\H,0,0.4478750624,-1.0613034796,-1.2025
 706378\H,0,-2.9086110441,-1.7364290843,2.0534419239\H,0,-1.4237069461,
 -0.7809348514,1.6956162887\H,0,-1.8325706206,-2.240279442,0.6900880938
 \H,0,-4.3169223694,1.3415288756,0.6177936079\\Version=ES64L-G16RevC.01
 \State=1-A\HF=-3392.4955347\RMSD=4.253e-09\Dipole=0.2074131,0.2008154,
 0.1455346\Quadrupole=-4.3349534,5.6425065,-1.3075531,-0.0129165,0.1762
 578,-2.0692872\PG=C01 [X(C8H11Br1N2S1)]\\@
 The archive entry for this job was punched.


 GROWING OLD ISN'T SO BAD -- WHEN YOU CONSIDER THE ALTERNATIVE.

                     -- MAURICE CHEVALIER
 Job cpu time:       0 days  0 hours 21 minutes 34.2 seconds.
 Elapsed time:       0 days  0 hours  1 minutes 27.8 seconds.
 File lengths (MBytes):  RWF=    137 Int=      0 D2E=      0 Chk=     21 Scr=      2
 Normal termination of Gaussian 16 at Sat Jun  7 03:29:31 2025.
