 Entering Gaussian System, Link 0=g16
 Input=SDI-drug_12.com
 Output=SDI-drug_12.log
 Initial command:
 /uufs/chpc.utah.edu/sys/installdir/gaussian16/C01/AVX/g16/l1.exe "/scratch/general/vast/u1414944/6939691-notchpeak.peaks/Gau-1938107.inp" -scrdir="/scratch/general/vast/u1414944/6939691-notchpeak.peaks/"
 Entering Link 1 = /uufs/chpc.utah.edu/sys/installdir/gaussian16/C01/AVX/g16/l1.exe PID=   1938108.
  
 Copyright (c) 1988-2019, Gaussian, Inc.  All Rights Reserved.
  
 This is part of the Gaussian(R) 16 program.  It is based on
 the Gaussian(R) 09 system (copyright 2009, Gaussian, Inc.),
 the Gaussian(R) 03 system (copyright 2003, Gaussian, Inc.),
 the Gaussian(R) 98 system (copyright 1998, Gaussian, Inc.),
 the Gaussian(R) 94 system (copyright 1995, Gaussian, Inc.),
 the Gaussian 92(TM) system (copyright 1992, Gaussian, Inc.),
 the Gaussian 90(TM) system (copyright 1990, Gaussian, Inc.),
 the Gaussian 88(TM) system (copyright 1988, Gaussian, Inc.),
 the Gaussian 86(TM) system (copyright 1986, Carnegie Mellon
 University), and the Gaussian 82(TM) system (copyright 1983,
 Carnegie Mellon University). Gaussian is a federally registered
 trademark of Gaussian, Inc.
  
 This software contains proprietary and confidential information,
 including trade secrets, belonging to Gaussian, Inc.
  
 This software is provided under written license and may be
 used, copied, transmitted, or stored only in accord with that
 written license.
  
 The following legend is applicable only to US Government
 contracts under FAR:
  
                    RESTRICTED RIGHTS LEGEND
  
 Use, reproduction and disclosure by the US Government is
 subject to restrictions as set forth in subparagraphs (a)
 and (c) of the Commercial Computer Software - Restricted
 Rights clause in FAR 52.227-19.
  
 Gaussian, Inc.
 340 Quinnipiac St., Bldg. 40, Wallingford CT 06492
  
  
 ---------------------------------------------------------------
 Warning -- This program may not be used in any manner that
 competes with the business of Gaussian, Inc. or will provide
 assistance to any competitor of Gaussian, Inc.  The licensee
 of this program is prohibited from giving any competitor of
 Gaussian, Inc. access to this program.  By using this program,
 the user acknowledges that Gaussian, Inc. is engaged in the
 business of creating and licensing software in the field of
 computational chemistry and represents and warrants to the
 licensee that it is not a competitor of Gaussian, Inc. and that
 it will not use this program in any manner prohibited above.
 ---------------------------------------------------------------
  

 Cite this work as:
 Gaussian 16, Revision C.01,
 M. J. Frisch, G. W. Trucks, H. B. Schlegel, G. E. Scuseria, 
 M. A. Robb, J. R. Cheeseman, G. Scalmani, V. Barone, 
 G. A. Petersson, H. Nakatsuji, X. Li, M. Caricato, A. V. Marenich, 
 J. Bloino, B. G. Janesko, R. Gomperts, B. Mennucci, H. P. Hratchian, 
 J. V. Ortiz, A. F. Izmaylov, J. L. Sonnenberg, D. Williams-Young, 
 F. Ding, F. Lipparini, F. Egidi, J. Goings, B. Peng, A. Petrone, 
 T. Henderson, D. Ranasinghe, V. G. Zakrzewski, J. Gao, N. Rega, 
 G. Zheng, W. Liang, M. Hada, M. Ehara, K. Toyota, R. Fukuda, 
 J. Hasegawa, M. Ishida, T. Nakajima, Y. Honda, O. Kitao, H. Nakai, 
 T. Vreven, K. Throssell, J. A. Montgomery, Jr., J. E. Peralta, 
 F. Ogliaro, M. J. Bearpark, J. J. Heyd, E. N. Brothers, K. N. Kudin, 
 V. N. Staroverov, T. A. Keith, R. Kobayashi, J. Normand, 
 K. Raghavachari, A. P. Rendell, J. C. Burant, S. S. Iyengar, 
 J. Tomasi, M. Cossi, J. M. Millam, M. Klene, C. Adamo, R. Cammi, 
 J. W. Ochterski, R. L. Martin, K. Morokuma, O. Farkas, 
 J. B. Foresman, and D. J. Fox, Gaussian, Inc., Wallingford CT, 2019.
 
 ******************************************
 Gaussian 16:  ES64L-G16RevC.01  3-Jul-2019
                13-Oct-2025 
 ******************************************
 %NProcShared=16
 Will use up to   16 processors via shared memory.
 %Mem=40GB
 %chk=SDI-drug_12.chk
 ----------------------------------------------------------------------
 #N OPT FREQ=NORAMAN Integral(Ultrafine) pbe1pbe EmpiricalDispersion=GD
 3BJ def2SVP
 ----------------------------------------------------------------------
 1/18=20,19=15,26=4,38=1/1,3;
 2/9=110,12=2,17=6,18=5,40=1/2;
 3/5=43,7=101,11=2,25=1,30=1,71=1,74=-13,75=-5,124=41/1,2,3;
 4//1;
 5/5=2,38=5/2;
 6/7=2,8=2,9=2,10=2,28=1/1;
 7//1,2,3,16;
 1/18=20,19=15,26=4/3(2);
 2/9=110/2;
 99//99;
 2/9=110/2;
 3/5=43,7=101,11=2,25=1,30=1,71=1,74=-13,75=-5,124=41/1,2,3;
 4/5=5,16=3,69=1/1;
 5/5=2,38=5/2;
 7//1,2,3,16;
 1/18=20,19=15,26=4/3(-5);
 2/9=110/2;
 6/7=2,8=2,9=2,10=2,19=2,28=1/1;
 99/9=1/99;
 -----------
 SDI-drug_12
 -----------
 Symbolic Z-matrix:
 Charge =  0 Multiplicity = 1
 O                     0.18448  -4.29817  -1.85194 
 C                     0.451    -3.24942  -1.31094 
 N                     1.73962  -2.86504  -1.09266 
 C                     2.1981   -1.66072  -0.54393 
 C                     3.26602  -1.66613   0.35025 
 C                     3.688    -0.4851    0.92654 
 C                     3.05487   0.71231   0.62325 
 Cl                    3.56755   2.14066   1.43264 
 C                     2.00823   0.74581  -0.30054 
 C                     1.30071   1.98626  -0.66522 
 C                    -0.08218   1.96991  -0.85745 
 C                    -0.72705   3.1467   -1.19545 
 C                     0.02705   4.30195  -1.33394 
 C                     1.3963    4.21523  -1.12513 
 N                     2.01571   3.0975   -0.80037 
 C                     1.60982  -0.45101  -0.8879 
 C                    -0.60646  -2.29991  -0.82392 
 C                    -0.74944  -2.00942   0.53218 
 Cl                    0.2873   -2.75011   1.69646 
 C                    -1.72496  -1.12705   0.96894 
 C                    -1.49629  -1.73437  -1.73175 
 C                    -2.45388  -0.83088  -1.30644 
 C                    -2.54282  -0.51542   0.03763 
 S                    -3.80069   0.67828   0.58772 
 N                    -4.15227   1.37464  -0.73705 
 C                    -2.81161   1.72125   1.71892 
 N                    -4.8248    0.09386   1.56984 
 H                     2.43052  -3.586    -1.26277 
 H                     3.75182  -2.59621   0.60353 
 H                     4.50438  -0.48576   1.63106 
 H                    -0.64059   1.0557   -0.73399 
 H                    -1.79757   3.15021  -1.34391 
 H                    -0.4314    5.24233  -1.59638 
 H                     2.03469   5.08374  -1.2232 
 H                     0.84215  -0.42853  -1.64416 
 H                    -1.83867  -0.91869   2.02015 
 H                    -1.41015  -1.99398  -2.77607 
 H                    -3.12275  -0.33883  -1.99385 
 H                    -5.02956   1.86798  -0.72164 
 H                    -1.82526   1.88211   1.30067 
 H                    -2.77238   1.21584   2.67408 
 H                    -3.33491   2.66479   1.8247 
 H                    -5.60496  -0.37108   1.1358 
 

 GradGradGradGradGradGradGradGradGradGradGradGradGradGradGradGradGradGrad
 Berny optimization.
 Initialization pass.
                           ----------------------------
                           !    Initial Parameters    !
                           ! (Angstroms and Degrees)  !
 --------------------------                            --------------------------
 ! Name  Definition              Value          Derivative Info.                !
 --------------------------------------------------------------------------------
 ! R1    R(1,2)                  1.2098         estimate D2E/DX2                !
 ! R2    R(2,3)                  1.3623         estimate D2E/DX2                !
 ! R3    R(2,17)                 1.5023         estimate D2E/DX2                !
 ! R4    R(3,4)                  1.4006         estimate D2E/DX2                !
 ! R5    R(3,28)                 1.0129         estimate D2E/DX2                !
 ! R6    R(4,5)                  1.3928         estimate D2E/DX2                !
 ! R7    R(4,16)                 1.3884         estimate D2E/DX2                !
 ! R8    R(5,6)                  1.3802         estimate D2E/DX2                !
 ! R9    R(5,29)                 1.0794         estimate D2E/DX2                !
 ! R10   R(6,7)                  1.388          estimate D2E/DX2                !
 ! R11   R(6,30)                 1.0783         estimate D2E/DX2                !
 ! R12   R(7,8)                  1.7199         estimate D2E/DX2                !
 ! R13   R(7,9)                  1.3964         estimate D2E/DX2                !
 ! R14   R(9,10)                 1.4739         estimate D2E/DX2                !
 ! R15   R(9,16)                 1.3914         estimate D2E/DX2                !
 ! R16   R(10,11)                1.3963         estimate D2E/DX2                !
 ! R17   R(10,15)                1.3283         estimate D2E/DX2                !
 ! R18   R(11,12)                1.3838         estimate D2E/DX2                !
 ! R19   R(11,31)                1.0784         estimate D2E/DX2                !
 ! R20   R(12,13)                1.3865         estimate D2E/DX2                !
 ! R21   R(12,32)                1.0808         estimate D2E/DX2                !
 ! R22   R(13,14)                1.3878         estimate D2E/DX2                !
 ! R23   R(13,33)                1.0786         estimate D2E/DX2                !
 ! R24   R(14,15)                1.3185         estimate D2E/DX2                !
 ! R25   R(14,34)                1.0824         estimate D2E/DX2                !
 ! R26   R(16,35)                1.0778         estimate D2E/DX2                !
 ! R27   R(17,18)                1.3942         estimate D2E/DX2                !
 ! R28   R(17,21)                1.3913         estimate D2E/DX2                !
 ! R29   R(18,19)                1.726          estimate D2E/DX2                !
 ! R30   R(18,20)                1.386          estimate D2E/DX2                !
 ! R31   R(20,23)                1.3822         estimate D2E/DX2                !
 ! R32   R(20,36)                1.0777         estimate D2E/DX2                !
 ! R33   R(21,22)                1.3835         estimate D2E/DX2                !
 ! R34   R(21,37)                1.0795         estimate D2E/DX2                !
 ! R35   R(22,23)                1.3835         estimate D2E/DX2                !
 ! R36   R(22,38)                1.078          estimate D2E/DX2                !
 ! R37   R(23,24)                1.8193         estimate D2E/DX2                !
 ! R38   R(24,25)                1.5374         estimate D2E/DX2                !
 ! R39   R(24,26)                1.8291         estimate D2E/DX2                !
 ! R40   R(24,27)                1.5346         estimate D2E/DX2                !
 ! R41   R(25,39)                1.0066         estimate D2E/DX2                !
 ! R42   R(26,40)                1.0834         estimate D2E/DX2                !
 ! R43   R(26,41)                1.0813         estimate D2E/DX2                !
 ! R44   R(26,42)                1.0841         estimate D2E/DX2                !
 ! R45   R(27,43)                1.0066         estimate D2E/DX2                !
 ! A1    A(1,2,3)              121.643          estimate D2E/DX2                !
 ! A2    A(1,2,17)             122.5337         estimate D2E/DX2                !
 ! A3    A(3,2,17)             115.8192         estimate D2E/DX2                !
 ! A4    A(2,3,4)              127.953          estimate D2E/DX2                !
 ! A5    A(2,3,28)             114.6726         estimate D2E/DX2                !
 ! A6    A(4,3,28)             117.0345         estimate D2E/DX2                !
 ! A7    A(3,4,5)              119.9436         estimate D2E/DX2                !
 ! A8    A(3,4,16)             120.8913         estimate D2E/DX2                !
 ! A9    A(5,4,16)             119.1624         estimate D2E/DX2                !
 ! A10   A(4,5,6)              119.9424         estimate D2E/DX2                !
 ! A11   A(4,5,29)             119.9367         estimate D2E/DX2                !
 ! A12   A(6,5,29)             120.1135         estimate D2E/DX2                !
 ! A13   A(5,6,7)              120.4962         estimate D2E/DX2                !
 ! A14   A(5,6,30)             120.2468         estimate D2E/DX2                !
 ! A15   A(7,6,30)             119.2493         estimate D2E/DX2                !
 ! A16   A(6,7,8)              118.5305         estimate D2E/DX2                !
 ! A17   A(6,7,9)              120.4727         estimate D2E/DX2                !
 ! A18   A(8,7,9)              120.9855         estimate D2E/DX2                !
 ! A19   A(7,9,10)             122.9345         estimate D2E/DX2                !
 ! A20   A(7,9,16)             118.2442         estimate D2E/DX2                !
 ! A21   A(10,9,16)            118.817          estimate D2E/DX2                !
 ! A22   A(9,10,11)            119.9767         estimate D2E/DX2                !
 ! A23   A(9,10,15)            118.091          estimate D2E/DX2                !
 ! A24   A(11,10,15)           121.9322         estimate D2E/DX2                !
 ! A25   A(10,11,12)           119.0261         estimate D2E/DX2                !
 ! A26   A(10,11,31)           120.4666         estimate D2E/DX2                !
 ! A27   A(12,11,31)           120.5042         estimate D2E/DX2                !
 ! A28   A(11,12,13)           118.6526         estimate D2E/DX2                !
 ! A29   A(11,12,32)           119.8612         estimate D2E/DX2                !
 ! A30   A(13,12,32)           121.4861         estimate D2E/DX2                !
 ! A31   A(12,13,14)           118.0026         estimate D2E/DX2                !
 ! A32   A(12,13,33)           121.303          estimate D2E/DX2                !
 ! A33   A(14,13,33)           120.6944         estimate D2E/DX2                !
 ! A34   A(13,14,15)           123.6104         estimate D2E/DX2                !
 ! A35   A(13,14,34)           121.2088         estimate D2E/DX2                !
 ! A36   A(15,14,34)           115.1808         estimate D2E/DX2                !
 ! A37   A(10,15,14)           118.7758         estimate D2E/DX2                !
 ! A38   A(4,16,9)             121.568          estimate D2E/DX2                !
 ! A39   A(4,16,35)            119.5883         estimate D2E/DX2                !
 ! A40   A(9,16,35)            118.8273         estimate D2E/DX2                !
 ! A41   A(2,17,18)            121.2776         estimate D2E/DX2                !
 ! A42   A(2,17,21)            119.7059         estimate D2E/DX2                !
 ! A43   A(18,17,21)           118.9719         estimate D2E/DX2                !
 ! A44   A(17,18,19)           120.3386         estimate D2E/DX2                !
 ! A45   A(17,18,20)           120.753          estimate D2E/DX2                !
 ! A46   A(19,18,20)           118.9081         estimate D2E/DX2                !
 ! A47   A(18,20,23)           119.0694         estimate D2E/DX2                !
 ! A48   A(18,20,36)           120.3142         estimate D2E/DX2                !
 ! A49   A(23,20,36)           120.6157         estimate D2E/DX2                !
 ! A50   A(17,21,22)           120.4982         estimate D2E/DX2                !
 ! A51   A(17,21,37)           118.8437         estimate D2E/DX2                !
 ! A52   A(22,21,37)           120.6405         estimate D2E/DX2                !
 ! A53   A(21,22,23)           119.4762         estimate D2E/DX2                !
 ! A54   A(21,22,38)           122.1073         estimate D2E/DX2                !
 ! A55   A(23,22,38)           118.3958         estimate D2E/DX2                !
 ! A56   A(20,23,22)           121.0434         estimate D2E/DX2                !
 ! A57   A(20,23,24)           119.7187         estimate D2E/DX2                !
 ! A58   A(22,23,24)           119.1981         estimate D2E/DX2                !
 ! A59   A(23,24,25)           101.2308         estimate D2E/DX2                !
 ! A60   A(23,24,26)           100.7929         estimate D2E/DX2                !
 ! A61   A(23,24,27)           113.8945         estimate D2E/DX2                !
 ! A62   A(25,24,26)           113.4718         estimate D2E/DX2                !
 ! A63   A(25,24,27)           124.846          estimate D2E/DX2                !
 ! A64   A(26,24,27)           100.4993         estimate D2E/DX2                !
 ! A65   A(24,25,39)           114.086          estimate D2E/DX2                !
 ! A66   A(24,26,40)           109.7681         estimate D2E/DX2                !
 ! A67   A(24,26,41)           107.4207         estimate D2E/DX2                !
 ! A68   A(24,26,42)           107.193          estimate D2E/DX2                !
 ! A69   A(40,26,41)           112.1716         estimate D2E/DX2                !
 ! A70   A(40,26,42)           110.3595         estimate D2E/DX2                !
 ! A71   A(41,26,42)           109.7624         estimate D2E/DX2                !
 ! A72   A(24,27,43)           114.6568         estimate D2E/DX2                !
 ! D1    D(1,2,3,4)            176.5306         estimate D2E/DX2                !
 ! D2    D(1,2,3,28)           -10.4263         estimate D2E/DX2                !
 ! D3    D(17,2,3,4)            -4.1864         estimate D2E/DX2                !
 ! D4    D(17,2,3,28)          168.8568         estimate D2E/DX2                !
 ! D5    D(1,2,17,18)          115.8152         estimate D2E/DX2                !
 ! D6    D(1,2,17,21)          -61.7307         estimate D2E/DX2                !
 ! D7    D(3,2,17,18)          -63.4608         estimate D2E/DX2                !
 ! D8    D(3,2,17,21)          118.9933         estimate D2E/DX2                !
 ! D9    D(2,3,4,5)            139.5588         estimate D2E/DX2                !
 ! D10   D(2,3,4,16)           -41.0378         estimate D2E/DX2                !
 ! D11   D(28,3,4,5)           -33.3432         estimate D2E/DX2                !
 ! D12   D(28,3,4,16)          146.0602         estimate D2E/DX2                !
 ! D13   D(3,4,5,6)           -177.7601         estimate D2E/DX2                !
 ! D14   D(3,4,5,29)             1.2492         estimate D2E/DX2                !
 ! D15   D(16,4,5,6)             2.8262         estimate D2E/DX2                !
 ! D16   D(16,4,5,29)         -178.1646         estimate D2E/DX2                !
 ! D17   D(3,4,16,9)           176.6739         estimate D2E/DX2                !
 ! D18   D(3,4,16,35)           -4.8164         estimate D2E/DX2                !
 ! D19   D(5,4,16,9)            -3.9181         estimate D2E/DX2                !
 ! D20   D(5,4,16,35)          174.5916         estimate D2E/DX2                !
 ! D21   D(4,5,6,7)              0.0652         estimate D2E/DX2                !
 ! D22   D(4,5,6,30)           179.0522         estimate D2E/DX2                !
 ! D23   D(29,5,6,7)          -178.9423         estimate D2E/DX2                !
 ! D24   D(29,5,6,30)            0.0447         estimate D2E/DX2                !
 ! D25   D(5,6,7,8)            176.819          estimate D2E/DX2                !
 ! D26   D(5,6,7,9)             -1.9715         estimate D2E/DX2                !
 ! D27   D(30,6,7,8)            -2.178          estimate D2E/DX2                !
 ! D28   D(30,6,7,9)           179.0314         estimate D2E/DX2                !
 ! D29   D(6,7,9,10)          -179.8443         estimate D2E/DX2                !
 ! D30   D(6,7,9,16)             0.9261         estimate D2E/DX2                !
 ! D31   D(8,7,9,10)             1.3952         estimate D2E/DX2                !
 ! D32   D(8,7,9,16)          -177.8344         estimate D2E/DX2                !
 ! D33   D(7,9,10,11)         -140.5611         estimate D2E/DX2                !
 ! D34   D(7,9,10,15)           39.4088         estimate D2E/DX2                !
 ! D35   D(16,9,10,11)          38.6643         estimate D2E/DX2                !
 ! D36   D(16,9,10,15)        -141.3659         estimate D2E/DX2                !
 ! D37   D(7,9,16,4)             2.0357         estimate D2E/DX2                !
 ! D38   D(7,9,16,35)         -176.485          estimate D2E/DX2                !
 ! D39   D(10,9,16,4)         -177.2263         estimate D2E/DX2                !
 ! D40   D(10,9,16,35)           4.253          estimate D2E/DX2                !
 ! D41   D(9,10,11,12)         179.8054         estimate D2E/DX2                !
 ! D42   D(9,10,11,31)           0.45           estimate D2E/DX2                !
 ! D43   D(15,10,11,12)         -0.1632         estimate D2E/DX2                !
 ! D44   D(15,10,11,31)       -179.5187         estimate D2E/DX2                !
 ! D45   D(9,10,15,14)        -179.9391         estimate D2E/DX2                !
 ! D46   D(11,10,15,14)          0.0301         estimate D2E/DX2                !
 ! D47   D(10,11,12,13)          0.1347         estimate D2E/DX2                !
 ! D48   D(10,11,12,32)       -179.7786         estimate D2E/DX2                !
 ! D49   D(31,11,12,13)        179.4899         estimate D2E/DX2                !
 ! D50   D(31,11,12,32)         -0.4234         estimate D2E/DX2                !
 ! D51   D(11,12,13,14)          0.0137         estimate D2E/DX2                !
 ! D52   D(11,12,13,33)        179.9832         estimate D2E/DX2                !
 ! D53   D(32,12,13,14)        179.9256         estimate D2E/DX2                !
 ! D54   D(32,12,13,33)         -0.105          estimate D2E/DX2                !
 ! D55   D(12,13,14,15)         -0.1545         estimate D2E/DX2                !
 ! D56   D(12,13,14,34)        179.7663         estimate D2E/DX2                !
 ! D57   D(33,13,14,15)        179.8759         estimate D2E/DX2                !
 ! D58   D(33,13,14,34)         -0.2033         estimate D2E/DX2                !
 ! D59   D(13,14,15,10)          0.1324         estimate D2E/DX2                !
 ! D60   D(34,14,15,10)       -179.7927         estimate D2E/DX2                !
 ! D61   D(2,17,18,19)          -0.4709         estimate D2E/DX2                !
 ! D62   D(2,17,18,20)         179.7061         estimate D2E/DX2                !
 ! D63   D(21,17,18,19)        177.0926         estimate D2E/DX2                !
 ! D64   D(21,17,18,20)         -2.7304         estimate D2E/DX2                !
 ! D65   D(2,17,21,22)        -178.2865         estimate D2E/DX2                !
 ! D66   D(2,17,21,37)           0.1982         estimate D2E/DX2                !
 ! D67   D(18,17,21,22)          4.1109         estimate D2E/DX2                !
 ! D68   D(18,17,21,37)       -177.4044         estimate D2E/DX2                !
 ! D69   D(17,18,20,23)         -1.2133         estimate D2E/DX2                !
 ! D70   D(17,18,20,36)        179.0996         estimate D2E/DX2                !
 ! D71   D(19,18,20,23)        178.9611         estimate D2E/DX2                !
 ! D72   D(19,18,20,36)         -0.726          estimate D2E/DX2                !
 ! D73   D(18,20,23,22)          3.884          estimate D2E/DX2                !
 ! D74   D(18,20,23,24)       -178.4309         estimate D2E/DX2                !
 ! D75   D(36,20,23,22)       -176.4299         estimate D2E/DX2                !
 ! D76   D(36,20,23,24)          1.2552         estimate D2E/DX2                !
 ! D77   D(17,21,22,23)         -1.5316         estimate D2E/DX2                !
 ! D78   D(17,21,22,38)        176.7884         estimate D2E/DX2                !
 ! D79   D(37,21,22,23)       -179.9889         estimate D2E/DX2                !
 ! D80   D(37,21,22,38)         -1.6689         estimate D2E/DX2                !
 ! D81   D(21,22,23,20)         -2.5307         estimate D2E/DX2                !
 ! D82   D(21,22,23,24)        179.7723         estimate D2E/DX2                !
 ! D83   D(38,22,23,20)        179.0869         estimate D2E/DX2                !
 ! D84   D(38,22,23,24)          1.39           estimate D2E/DX2                !
 ! D85   D(20,23,24,25)        164.2463         estimate D2E/DX2                !
 ! D86   D(20,23,24,26)         47.4231         estimate D2E/DX2                !
 ! D87   D(20,23,24,27)        -59.2762         estimate D2E/DX2                !
 ! D88   D(22,23,24,25)        -18.0258         estimate D2E/DX2                !
 ! D89   D(22,23,24,26)       -134.8489         estimate D2E/DX2                !
 ! D90   D(22,23,24,27)        118.4517         estimate D2E/DX2                !
 ! D91   D(23,24,25,39)        161.5258         estimate D2E/DX2                !
 ! D92   D(26,24,25,39)        -91.355          estimate D2E/DX2                !
 ! D93   D(27,24,25,39)         31.6272         estimate D2E/DX2                !
 ! D94   D(23,24,26,40)         39.6139         estimate D2E/DX2                !
 ! D95   D(23,24,26,41)        -82.5987         estimate D2E/DX2                !
 ! D96   D(23,24,26,42)        159.4943         estimate D2E/DX2                !
 ! D97   D(25,24,26,40)        -67.7796         estimate D2E/DX2                !
 ! D98   D(25,24,26,41)        170.0079         estimate D2E/DX2                !
 ! D99   D(25,24,26,42)         52.1008         estimate D2E/DX2                !
 ! D100  D(27,24,26,40)        156.6595         estimate D2E/DX2                !
 ! D101  D(27,24,26,41)         34.4469         estimate D2E/DX2                !
 ! D102  D(27,24,26,42)        -83.4601         estimate D2E/DX2                !
 ! D103  D(23,24,27,43)        -85.4059         estimate D2E/DX2                !
 ! D104  D(25,24,27,43)         39.2048         estimate D2E/DX2                !
 ! D105  D(26,24,27,43)        167.7118         estimate D2E/DX2                !
 --------------------------------------------------------------------------------
 Trust Radius=3.00D-01 FncErr=1.00D-07 GrdErr=1.00D-06 EigMax=2.50D+02 EigMin=1.00D-04
 Number of steps in this run=    232 maximum allowed number of steps=    258.
 GradGradGradGradGradGradGradGradGradGradGradGradGradGradGradGradGradGrad

                          Input orientation:                          
 ---------------------------------------------------------------------
 Center     Atomic      Atomic             Coordinates (Angstroms)
 Number     Number       Type             X           Y           Z
 ---------------------------------------------------------------------
      1          8           0        0.184485   -4.298169   -1.851940
      2          6           0        0.451001   -3.249422   -1.310937
      3          7           0        1.739624   -2.865036   -1.092660
      4          6           0        2.198100   -1.660716   -0.543927
      5          6           0        3.266019   -1.666134    0.350245
      6          6           0        3.688001   -0.485101    0.926536
      7          6           0        3.054866    0.712312    0.623248
      8         17           0        3.567553    2.140659    1.432638
      9          6           0        2.008234    0.745812   -0.300543
     10          6           0        1.300710    1.986264   -0.665221
     11          6           0       -0.082179    1.969912   -0.857455
     12          6           0       -0.727047    3.146702   -1.195447
     13          6           0        0.027047    4.301952   -1.333937
     14          6           0        1.396304    4.215225   -1.125132
     15          7           0        2.015714    3.097503   -0.800375
     16          6           0        1.609825   -0.451010   -0.887905
     17          6           0       -0.606464   -2.299913   -0.823915
     18          6           0       -0.749441   -2.009423    0.532178
     19         17           0        0.287299   -2.750109    1.696458
     20          6           0       -1.724959   -1.127050    0.968944
     21          6           0       -1.496293   -1.734373   -1.731754
     22          6           0       -2.453880   -0.830884   -1.306443
     23          6           0       -2.542821   -0.515420    0.037626
     24         16           0       -3.800689    0.678280    0.587723
     25          7           0       -4.152267    1.374644   -0.737051
     26          6           0       -2.811613    1.721252    1.718925
     27          7           0       -4.824802    0.093858    1.569842
     28          1           0        2.430518   -3.585997   -1.262770
     29          1           0        3.751820   -2.596214    0.603527
     30          1           0        4.504375   -0.485764    1.631059
     31          1           0       -0.640592    1.055701   -0.733986
     32          1           0       -1.797570    3.150208   -1.343914
     33          1           0       -0.431405    5.242335   -1.596383
     34          1           0        2.034694    5.083745   -1.223200
     35          1           0        0.842150   -0.428531   -1.644163
     36          1           0       -1.838667   -0.918690    2.020149
     37          1           0       -1.410146   -1.993979   -2.776074
     38          1           0       -3.122746   -0.338835   -1.993854
     39          1           0       -5.029564    1.867982   -0.721642
     40          1           0       -1.825261    1.882112    1.300665
     41          1           0       -2.772378    1.215843    2.674084
     42          1           0       -3.334915    2.664793    1.824696
     43          1           0       -5.604956   -0.371081    1.135801
 ---------------------------------------------------------------------
                    Distance matrix (angstroms):
                    1          2          3          4          5
     1  O    0.000000
     2  C    1.209788   0.000000
     3  N    2.246961   1.362331   0.000000
     4  C    3.566749   2.482870   1.400606   0.000000
     5  C    4.612275   3.631894   2.418517   1.392848   0.000000
     6  C    5.876567   4.808941   3.679323   2.400861   1.380224
     7  C    6.282560   5.120207   4.179907   2.779857   2.403356
     8  Cl   7.980733   6.803901   5.897070   4.498073   3.969153
     9  C    5.583426   4.405425   3.706458   2.426245   2.796969
    10  C    6.492177   5.343347   4.889833   3.757723   4.270085
    11  C    6.352082   5.266058   5.172137   4.298770   5.088202
    12  C    7.529141   6.504731   6.498924   5.665000   6.441827
    13  C    8.617145   7.563300   7.372710   6.394607   6.996104
    14  C    8.629868   7.526558   7.088654   5.958805   6.345310
    15  N    7.691238   6.556863   5.976080   4.768614   5.057611
    16  C    4.214450   3.058257   2.426169   1.388444   2.398442
    17  C    2.382323   1.502328   2.428109   2.890077   4.095907
    18  C    3.434326   2.525021   3.093156   3.157149   4.034212
    19  Cl   3.872749   3.052955   3.146686   3.139627   3.443844
    20  C    4.653962   3.799622   4.390233   4.238392   5.057990
    21  C    3.067981   2.502881   3.486832   3.881352   5.197980
    22  C    4.390969   3.779905   4.665721   4.786541   6.013278
    23  C    5.031684   4.272746   5.013738   4.911846   5.929966
    24  S    6.826317   6.091685   6.787772   6.537354   7.449231
    25  N    7.227115   6.549916   7.267442   7.041155   8.090705
    26  C    7.613219   6.673253   7.046475   6.454101   7.091212
    27  N    7.489422   6.878263   7.676956   7.541067   8.369371
    28  H    2.428780   2.008504   1.012945   2.068202   2.643058
    29  H    4.653155   3.871338   2.645421   2.146126   1.079446
    30  H    6.732545   5.720401   4.552300   3.380825   2.137120
    31  H    5.531229   4.478675   4.600679   3.933600   4.883191
    32  H    7.724309   6.783246   6.982695   6.304788   7.190776
    33  H    9.563777   8.542250   8.408125   7.461506   8.073862
    34  H    9.583261   8.482773   7.955326   6.780550   7.039372
    35  H    3.930622   2.867309   2.654463   2.137148   3.374088
    36  H    5.523322   4.665943   5.126598   4.839480   5.422644
    37  H    2.950620   2.680789   3.676094   4.255935   5.634525
    38  H    5.160838   4.659352   5.553061   5.671073   6.933459
    39  H    8.153852   7.521415   8.268072   8.045024   9.080508
    40  H    7.223148   6.191484   6.400924   5.669355   6.278096
    41  H    7.722193   6.797732   7.155424   6.582996   7.082956
    42  H    8.624770   7.690468   8.052386   7.411791   8.031393
    43  H    7.606987   7.137646   8.070236   8.085315   8.999359
                    6          7          8          9         10
     6  C    0.000000
     7  C    1.388035   0.000000
     8  Cl   2.676801   1.719923   0.000000
     9  C    2.417123   1.396406   2.716797   0.000000
    10  C    3.786884   2.521938   3.092479   1.473873   0.000000
    11  C    4.839831   3.689863   4.312101   2.485638   1.396281
    12  C    6.097987   4.851471   5.134446   3.747918   2.395736
    13  C    6.436474   5.087610   4.986011   4.199897   2.726134
    14  C    5.617320   4.251831   3.944658   3.618180   2.277921
    15  N    4.314373   2.965751   2.882724   2.404233   1.328288
    16  C    2.759017   2.392707   3.991787   1.391441   2.466870
    17  C    4.979964   4.957128   6.498702   4.048087   4.694018
    18  C    4.708499   4.678556   6.055612   3.986166   4.647838
    19  Cl   4.157861   4.560654   5.894852   4.378481   5.388670
    20  C    5.451058   5.133175   6.237276   4.365311   4.638738
    21  C    5.958530   5.678499   7.118412   4.525638   4.775339
    22  C    6.544346   6.037504   7.251916   4.838210   4.737556
    23  C    6.293982   5.760589   6.807164   4.734677   4.639520
    24  S    7.586087   6.855732   7.559326   5.876833   5.413406
    25  N    8.227756   7.364229   8.055429   6.207878   5.487640
    26  C    6.909476   6.052607   6.399345   5.316076   4.760839
    27  N    8.556684   7.960383   8.639435   7.114335   6.789595
    28  H    3.998734   4.735223   6.430604   4.457441   5.716959
    29  H    2.136634   3.381195   4.812416   3.876413   5.349465
    30  H    1.078342   2.133575   2.795551   3.388006   4.652666
    31  H    4.885501   3.951761   4.855911   2.701885   2.153910
    32  H    6.961458   5.775743   6.124783   4.621027   3.378569
    33  H    7.492539   6.132044   5.898052   5.277287   3.803851
    34  H    6.194097   4.853818   4.250280   4.435048   3.231789
    35  H    3.835435   3.367312   4.847191   2.131702   2.645721
    36  H    5.650490   5.343984   6.239551   4.791120   5.050313
    37  H    6.478976   6.230228   7.719195   5.031902   5.258020
    38  H    7.411906   6.790953   7.915102   5.510964   5.170911
    39  H    9.178749   8.276613   8.867113   7.139132   6.331631
    40  H    6.011633   5.063889   5.400620   4.307056   3.694219
    41  H    6.905334   6.198085   6.526193   5.650096   5.323021
    42  H    7.749185   6.788591   6.933432   6.062043   5.305573
    43  H    9.296012   8.742367   9.514824   7.827593   7.515915
                   11         12         13         14         15
    11  C    0.000000
    12  C    1.383809   0.000000
    13  C    2.382725   1.386521   0.000000
    14  C    2.701665   2.378089   1.387799   0.000000
    15  N    2.382409   2.771505   2.385410   1.318498   0.000000
    16  C    2.953754   4.301056   5.029391   4.677138   3.572723
    17  C    4.302023   5.460603   6.651773   6.822671   6.000706
    18  C    4.267484   5.437905   6.627124   6.789487   5.958394
    19  Cl   5.379366   6.645629   7.680013   7.596522   6.589094
    20  C    3.952927   4.893401   6.151979   6.532024   5.913541
    21  C    4.060277   4.970338   6.238273   6.643254   6.045551
    22  C    3.697433   4.337679   5.701032   6.349804   5.972068
    23  C    3.610098   4.269501   5.629608   6.264800   5.876708
    24  S    4.193349   4.326670   5.610289   6.515565   6.450581
    25  N    4.115150   3.883612   5.137321   6.245490   6.404392
    26  C    3.761566   3.856279   4.902854   5.658192   5.616407
    27  N    5.648347   5.810187   7.048434   7.934149   7.837886
    28  H    6.111141   7.436664   8.246301   7.870680   6.712305
    29  H    6.138691   7.501843   8.075420   7.411641   6.115834
    30  H    5.767107   6.967907   7.194435   6.273435   4.994508
    31  H    1.078356   2.143060   3.368061   3.779489   3.351018
    32  H    2.138296   1.080775   2.157740   3.373864   3.852187
    33  H    3.372940   2.154027   1.078599   2.148849   3.349973
    34  H    3.782971   3.373443   2.157338   1.082351   2.030837
    35  H    2.688088   3.930141   4.810208   4.705417   3.810793
    36  H    4.439581   5.301242   6.479652   6.834831   6.240305
    37  H    4.599677   5.421402   6.616951   7.011133   6.446944
    38  H    3.983311   4.304160   5.647441   6.474253   6.295759
    39  H    4.950299   4.513455   5.645214   6.853039   7.152193
    40  H    2.775523   3.005967   4.028375   4.659012   4.543636
    41  H    4.503061   4.783813   5.781443   6.388133   6.207925
    42  H    4.272831   4.019263   4.894899   5.787034   5.975572
    43  H    6.320948   6.450078   7.723750   8.669698   8.593862
                   16         17         18         19         20
    16  C    0.000000
    17  C    2.886948   0.000000
    18  C    3.164082   1.394208   0.000000
    19  Cl   3.703223   2.711783   1.725976   0.000000
    20  C    3.876300   2.416813   1.385995   2.685662   0.000000
    21  C    3.465122   1.391331   2.399755   3.995692   2.777571
    22  C    4.102825   2.409113   2.770306   4.496099   2.407577
    23  C    4.255023   2.770585   2.385966   3.969274   1.382151
    24  S    5.720702   4.589709   4.066565   5.449293   2.777265
    25  N    6.046277   5.107116   4.964078   6.530337   3.880814
    26  C    5.573455   5.243900   4.424800   5.440297   3.139444
    27  N    6.909545   5.408751   4.702032   5.851304   3.385368
    28  H    3.262239   3.327140   3.977381   3.748216   5.319301
    29  H    3.378523   4.595653   4.539908   3.636082   5.682173
    30  H    3.837292   5.953042   5.579575   4.786989   6.297162
    31  H    2.712608   3.356992   3.318132   4.610014   2.973251
    32  H    4.978660   5.602941   5.589283   6.957318   4.863077
    33  H    6.089559   7.583723   7.564384   8.674013   6.987363
    34  H    5.561155   7.851977   7.819577   8.540905   7.583828
    35  H    1.077848   2.504667   3.125514   4.105768   3.729116
    36  H    4.535151   3.393347   2.142468   2.824642   1.077671
    37  H    3.881515   2.133172   3.373618   4.843201   3.856921
    38  H    4.861372   3.397979   3.847633   5.573245   3.369461
    39  H    7.034689   6.078291   5.909804   7.446006   4.769561
    40  H    4.693944   4.846508   4.109989   5.106568   3.029052
    41  H    5.888112   5.411813   4.368338   5.103544   3.081191
    42  H    6.443359   6.253630   5.495778   6.515984   4.207415
    43  H    7.493653   5.704893   5.159899   6.379090   3.956477
                   21         22         23         24         25
    21  C    0.000000
    22  C    1.383531   0.000000
    23  C    2.389931   1.383455   0.000000
    24  S    4.063387   2.771161   1.819275   0.000000
    25  N    4.208280   2.841316   2.600535   1.537386   0.000000
    26  C    5.057529   3.974194   2.810999   1.829119   2.819452
    27  N    5.032090   3.840498   2.815376   1.534573   2.722953
    28  H    4.366726   5.608021   5.987785   7.774080   8.259382
    29  H    5.808528   6.728677   6.653755   8.231826   8.946478
    30  H    6.991105   7.560777   7.225156   8.450896   9.165507
    31  H    3.084198   2.678605   2.585011   3.446096   3.526130
    32  H    4.909208   4.035002   3.987591   3.722114   3.010898
    33  H    7.058808   6.407687   6.346637   6.078897   5.435283
    34  H    7.695013   7.425433   7.341251   7.532546   7.229955
    35  H    2.679778   3.337627   3.780739   5.268994   5.386881
    36  H    3.854781   3.384141   2.142162   2.907179   4.267819
    37  H    1.079547   2.145225   3.374314   4.916381   4.798382
    38  H    2.159068   1.077974   2.120002   2.856339   2.361245
    39  H    5.145998   3.776243   3.527178   2.154057   1.006613
    40  H    4.731041   3.814777   2.803270   2.420705   3.134449
    41  H    5.453767   4.487218   3.162417   2.387320   3.683090
    42  H    5.948237   4.774935   3.732933   2.386060   2.982465
    43  H    5.192548   4.013135   3.256301   2.157992   2.943712
                   26         27         28         29         30
    26  C    0.000000
    27  N    2.592984   0.000000
    28  H    8.033513   8.614214   0.000000
    29  H    7.934941   9.040393   2.491701   0.000000
    30  H    7.642142   9.347366   4.720866   2.464987   0.000000
    31  H    3.342613   4.872410   5.590768   5.866746   5.868580
    32  H    3.528623   5.195708   7.953601   8.222507   7.860361
    33  H    5.390240   7.472197   9.286621   9.153241   8.221279
    34  H    6.591597   8.930438   8.678863   8.078813   6.727968
    35  H    5.411276   6.535829   3.554992   4.268155   4.913476
    36  H    2.829603   3.185127   6.009827   6.006201   6.369694
    37  H    5.997672   5.908124   4.424399   6.199216   7.528552
    38  H    4.257404   3.972927   6.474356   7.687771   8.445980
    39  H    3.301091   2.905227   9.256972   9.939710  10.098085
    40  H    1.083378   3.502507   7.388036   7.186463   6.766114
    41  H    1.081344   2.586628   8.101026   7.834804   7.545496
    42  H    1.084114   2.982352   9.046825   8.910178   8.450916
    43  H    3.538453   1.006578   8.980962   9.632435  10.122105
                   31         32         33         34         35
    31  H    0.000000
    32  H    2.469326   0.000000
    33  H    4.279649   2.511402   0.000000
    34  H    4.860208   4.294110   2.499211   0.000000
    35  H    2.286895   4.457089   5.812309   5.655489   0.000000
    36  H    3.594282   5.279634   7.281341   7.845474   4.566642
    37  H    3.750052   5.353862   7.396880   8.023248   2.967269
    38  H    3.113373   3.788395   6.208925   7.523128   3.981298
    39  H    4.463523   3.532296   5.770139   7.777945   6.371973
    40  H    2.495236   2.933024   4.650465   5.614232   4.596321
    41  H    4.023071   4.564682   6.318994   7.297768   5.866518
    42  H    4.049124   3.555157   5.174734   6.631266   6.248960
    43  H    5.493334   5.748448   8.108076   9.679063   7.021159
                   36         37         38         39         40
    36  H    0.000000
    37  H    4.933927   0.000000
    38  H    4.254094   2.506865   0.000000
    39  H    5.046265   5.677643   3.181905   0.000000
    40  H    2.891770   5.640586   4.179705   3.789127   0.000000
    41  H    2.419852   6.470151   4.932487   4.129301   1.796447
    42  H    3.888228   6.824660   4.862933   3.160788   1.779397
    43  H    3.907286   5.960957   3.994640   2.965564   4.403425
                   41         42         43
    41  H    0.000000
    42  H    1.771260   0.000000
    43  H    3.592790   3.852816   0.000000
 Stoichiometry    C19H16Cl2N4OS
 Framework group  C1[X(C19H16Cl2N4OS)]
 Deg. of freedom   123
 Full point group                 C1      NOp   1
 Largest Abelian subgroup         C1      NOp   1
 Largest concise Abelian subgroup C1      NOp   1
                         Standard orientation:                         
 ---------------------------------------------------------------------
 Center     Atomic      Atomic             Coordinates (Angstroms)
 Number     Number       Type             X           Y           Z
 ---------------------------------------------------------------------
      1          8           0       -0.018207   -4.340342   -1.817738
      2          6           0        0.307595   -3.306574   -1.280371
      3          7           0        1.615857   -2.997089   -1.059885
      4          6           0        2.142349   -1.819183   -0.514873
      5          6           0        3.205692   -1.882992    0.382487
      6          6           0        3.694318   -0.726083    0.955045
      7          6           0        3.132982    0.504896    0.644829
      8         17           0        3.725958    1.904425    1.449710
      9          6           0        2.092610    0.595367   -0.282204
     10          6           0        1.459690    1.873383   -0.654213
     11          6           0        0.078734    1.936916   -0.850489
     12          6           0       -0.495425    3.147840   -1.195357
     13          6           0        0.325188    4.256498   -1.336473
     14          6           0        1.686475    4.090930   -1.123232
     15          7           0        2.238702    2.940401   -0.791923
     16          6           0        1.626624   -0.578729   -0.865697
     17          6           0       -0.693969   -2.294849   -0.800505
     18          6           0       -0.823440   -1.990569    0.553919
     19         17           0        0.165125   -2.785383    1.724391
     20          6           0       -1.746978   -1.050867    0.984058
     21          6           0       -1.546796   -1.682331   -1.713363
     22          6           0       -2.451170   -0.722644   -1.294716
     23          6           0       -2.525206   -0.396640    0.047740
     24         16           0       -3.712749    0.870830    0.589055
     25          7           0       -4.019473    1.580710   -0.739684
     26          6           0       -2.667568    1.859253    1.718786
     27          7           0       -4.771899    0.351477    1.570579
     28          1           0        2.263952   -3.757878   -1.224898
     29          1           0        3.635687   -2.838718    0.641131
     30          1           0        4.507340   -0.771297    1.661989
     31          1           0       -0.532422    1.057400   -0.724828
     32          1           0       -1.563510    3.213161   -1.347021
     33          1           0       -0.076878    5.220872   -1.604245
     34          1           0        2.374734    4.920277   -1.223062
     35          1           0        0.863633   -0.514804   -1.624324
     36          1           0       -1.851193   -0.831622    2.034032
     37          1           0       -1.473104   -1.951096   -2.756319
     38          1           0       -3.088301   -0.195419   -1.986183
     39          1           0       -4.866518    2.124466   -0.728964
     40          1           0       -1.672373    1.960445    1.302788
     41          1           0       -2.660501    1.356608    2.676180
     42          1           0       -3.135191    2.832179    1.819020
     43          1           0       -5.576676   -0.069041    1.136183
 ---------------------------------------------------------------------
 Rotational constants (GHZ):           0.1831897           0.1565930           0.1048732
 Standard basis: def2SVP (5D, 7F)
 There are   497 symmetry adapted cartesian basis functions of A   symmetry.
 There are   470 symmetry adapted basis functions of A   symmetry.
   470 basis functions,   823 primitive gaussians,   497 cartesian basis functions
   108 alpha electrons      108 beta electrons
       nuclear repulsion energy      3026.0150067797 Hartrees.
 NAtoms=   43 NActive=   43 NUniq=   43 SFac= 1.00D+00 NAtFMM=   60 NAOKFM=F Big=F
 Integral buffers will be    131072 words long.
 Raffenetti 2 integral format.
 Two-electron integral symmetry is turned on.
 Nuclear repulsion after empirical dispersion term =     3025.9461521299 Hartrees.
 One-electron integrals computed using PRISM.
   1 Symmetry operations used in ECPInt.
 ECPInt:  NShTT=   23436 NPrTT=   89682 LenC2=   20929 LenP2D=   53059.
 LDataN:  DoStor=T MaxTD1= 4 Len=   56
 NBasis=   470 RedAO= T EigKep=  1.87D-04  NBF=   470
 NBsUse=   470 1.00D-06 EigRej= -1.00D+00 NBFU=   470
 ExpMin= 1.22D-01 ExpMax= 1.04D+04 ExpMxC= 1.57D+03 IAcc=3 IRadAn=         5 AccDes= 0.00D+00
 Harris functional with IExCor= 1009 and IRadAn=       5 diagonalized for initial guess.
 HarFok:  IExCor= 1009 AccDes= 0.00D+00 IRadAn=         5 IDoV= 1 UseB2=F ITyADJ=14
 ICtDFT=  3500011 ScaDFX=  1.000000  1.000000  1.000000  1.000000
 FoFCou: FMM=F IPFlag=           0 FMFlag=      100000 FMFlg1=           0
         NFxFlg=           0 DoJE=T BraDBF=F KetDBF=T FulRan=T
         wScrn=  0.000000 ICntrl=       500 IOpCl=  0 I1Cent=   200000004 NGrid=           0
         NMat0=    1 NMatS0=      1 NMatT0=    0 NMatD0=    1 NMtDS0=    0 NMtDT0=    0
 Petite list used in FoFCou.
 Requested convergence on RMS density matrix=1.00D-08 within 128 cycles.
 Requested convergence on MAX density matrix=1.00D-06.
 Requested convergence on             energy=1.00D-06.
 No special actions if energy rises.
 Integral accuracy reduced to 1.0D-05 until final iterations.
 Initial convergence to 1.0D-05 achieved.  Increase integral accuracy.
 SCF Done:  E(RPBE1PBE) =  -2343.64385853     A.U. after   16 cycles
            NFock= 16  Conv=0.26D-08     -V/T= 2.0050

 **********************************************************************

            Population analysis using the SCF Density.

 **********************************************************************

 Orbital symmetries:
       Occupied  (A) (A) (A) (A) (A) (A) (A) (A) (A) (A) (A) (A)
                 (A) (A) (A) (A) (A) (A) (A) (A) (A) (A) (A) (A)
                 (A) (A) (A) (A) (A) (A) (A) (A) (A) (A) (A) (A)
                 (A) (A) (A) (A) (A) (A) (A) (A) (A) (A) (A) (A)
                 (A) (A) (A) (A) (A) (A) (A) (A) (A) (A) (A) (A)
                 (A) (A) (A) (A) (A) (A) (A) (A) (A) (A) (A) (A)
                 (A) (A) (A) (A) (A) (A) (A) (A) (A) (A) (A) (A)
                 (A) (A) (A) (A) (A) (A) (A) (A) (A) (A) (A) (A)
                 (A) (A) (A) (A) (A) (A) (A) (A) (A) (A) (A) (A)
       Virtual   (A) (A) (A) (A) (A) (A) (A) (A) (A) (A) (A) (A)
                 (A) (A) (A) (A) (A) (A) (A) (A) (A) (A) (A) (A)
                 (A) (A) (A) (A) (A) (A) (A) (A) (A) (A) (A) (A)
                 (A) (A) (A) (A) (A) (A) (A) (A) (A) (A) (A) (A)
                 (A) (A) (A) (A) (A) (A) (A) (A) (A) (A) (A) (A)
                 (A) (A) (A) (A) (A) (A) (A) (A) (A) (A) (A) (A)
                 (A) (A) (A) (A) (A) (A) (A) (A) (A) (A) (A) (A)
                 (A) (A) (A) (A) (A) (A) (A) (A) (A) (A) (A) (A)
                 (A) (A) (A) (A) (A) (A) (A) (A) (A) (A) (A) (A)
                 (A) (A) (A) (A) (A) (A) (A) (A) (A) (A) (A) (A)
                 (A) (A) (A) (A) (A) (A) (A) (A) (A) (A) (A) (A)
                 (A) (A) (A) (A) (A) (A) (A) (A) (A) (A) (A) (A)
                 (A) (A) (A) (A) (A) (A) (A) (A) (A) (A) (A) (A)
                 (A) (A) (A) (A) (A) (A) (A) (A) (A) (A) (A) (A)
                 (A) (A) (A) (A) (A) (A) (A) (A) (A) (A) (A) (A)
                 (A) (A) (A) (A) (A) (A) (A) (A) (A) (A) (A) (A)
                 (A) (A) (A) (A) (A) (A) (A) (A) (A) (A) (A) (A)
                 (A) (A) (A) (A) (A) (A) (A) (A) (A) (A) (A) (A)
                 (A) (A) (A) (A) (A) (A) (A) (A) (A) (A) (A) (A)
                 (A) (A) (A) (A) (A) (A) (A) (A) (A) (A) (A) (A)
                 (A) (A) (A) (A) (A) (A) (A) (A) (A) (A) (A) (A)
                 (A) (A) (A) (A) (A) (A) (A) (A) (A) (A) (A) (A)
                 (A) (A) (A) (A) (A) (A) (A) (A) (A) (A) (A) (A)
                 (A) (A) (A) (A) (A) (A) (A) (A) (A) (A) (A) (A)
                 (A) (A) (A) (A) (A) (A) (A) (A) (A) (A) (A) (A)
                 (A) (A) (A) (A) (A) (A) (A) (A) (A) (A) (A) (A)
                 (A) (A) (A) (A) (A) (A) (A) (A) (A) (A) (A) (A)
                 (A) (A) (A) (A) (A) (A) (A) (A) (A) (A) (A) (A)
                 (A) (A) (A) (A) (A) (A) (A) (A) (A) (A) (A) (A)
                 (A) (A) (A) (A) (A) (A) (A) (A) (A) (A) (A) (A)
                 (A) (A)
 The electronic state is 1-A.
 Alpha  occ. eigenvalues -- -101.70249-101.67656 -89.19744 -19.19478 -14.44380
 Alpha  occ. eigenvalues --  -14.38885 -14.36004 -14.35540 -10.35614 -10.32437
 Alpha  occ. eigenvalues --  -10.29981 -10.29755 -10.28597 -10.28567 -10.28212
 Alpha  occ. eigenvalues --  -10.27886 -10.27278 -10.27199 -10.26865 -10.26661
 Alpha  occ. eigenvalues --  -10.26381 -10.25841 -10.25777 -10.25640 -10.25577
 Alpha  occ. eigenvalues --  -10.25032 -10.25000  -9.55423  -9.52883  -8.17140
 Alpha  occ. eigenvalues --   -7.29558  -7.28577  -7.28535  -7.27022  -7.26048
 Alpha  occ. eigenvalues --   -7.25971  -6.11273  -6.11183  -6.11142  -1.08126
 Alpha  occ. eigenvalues --   -1.01913  -0.98375  -0.97987  -0.94435  -0.92075
 Alpha  occ. eigenvalues --   -0.88776  -0.86568  -0.86289  -0.83119  -0.82440
 Alpha  occ. eigenvalues --   -0.81883  -0.78177  -0.77450  -0.77151  -0.75641
 Alpha  occ. eigenvalues --   -0.70812  -0.67936  -0.66300  -0.65679  -0.65176
 Alpha  occ. eigenvalues --   -0.63216  -0.63035  -0.60728  -0.58307  -0.56556
 Alpha  occ. eigenvalues --   -0.55125  -0.53803  -0.53188  -0.52337  -0.51219
 Alpha  occ. eigenvalues --   -0.51001  -0.49492  -0.49198  -0.48915  -0.47930
 Alpha  occ. eigenvalues --   -0.47192  -0.46926  -0.46189  -0.45869  -0.45132
 Alpha  occ. eigenvalues --   -0.45045  -0.44461  -0.44068  -0.43215  -0.42486
 Alpha  occ. eigenvalues --   -0.42088  -0.41601  -0.40731  -0.39876  -0.39590
 Alpha  occ. eigenvalues --   -0.38422  -0.37707  -0.36159  -0.35717  -0.34354
 Alpha  occ. eigenvalues --   -0.32933  -0.31701  -0.31407  -0.30712  -0.30452
 Alpha  occ. eigenvalues --   -0.28759  -0.28346  -0.28197  -0.26883  -0.26629
 Alpha  occ. eigenvalues --   -0.26299  -0.25342  -0.24164
 Alpha virt. eigenvalues --   -0.06344  -0.04924  -0.03928  -0.02766  -0.02342
 Alpha virt. eigenvalues --    0.00642   0.02801   0.03047   0.05493   0.05624
 Alpha virt. eigenvalues --    0.06404   0.07629   0.08086   0.08511   0.08930
 Alpha virt. eigenvalues --    0.09237   0.09947   0.10526   0.11158   0.11876
 Alpha virt. eigenvalues --    0.12694   0.12922   0.13526   0.14257   0.14898
 Alpha virt. eigenvalues --    0.15306   0.15898   0.16130   0.16832   0.17456
 Alpha virt. eigenvalues --    0.18213   0.20884   0.21718   0.23079   0.23915
 Alpha virt. eigenvalues --    0.24655   0.25508   0.27156   0.27489   0.28136
 Alpha virt. eigenvalues --    0.28675   0.29023   0.29488   0.30204   0.30588
 Alpha virt. eigenvalues --    0.31058   0.31399   0.32661   0.33674   0.35824
 Alpha virt. eigenvalues --    0.36225   0.37257   0.38108   0.38879   0.39537
 Alpha virt. eigenvalues --    0.40478   0.41044   0.41276   0.41826   0.42103
 Alpha virt. eigenvalues --    0.42604   0.43172   0.44169   0.44345   0.45665
 Alpha virt. eigenvalues --    0.46378   0.46876   0.47374   0.47711   0.48612
 Alpha virt. eigenvalues --    0.49357   0.49902   0.50396   0.50588   0.51179
 Alpha virt. eigenvalues --    0.52486   0.53097   0.53616   0.55088   0.55958
 Alpha virt. eigenvalues --    0.56453   0.56674   0.58104   0.58290   0.58842
 Alpha virt. eigenvalues --    0.59181   0.59342   0.60136   0.60883   0.62064
 Alpha virt. eigenvalues --    0.62254   0.62622   0.62682   0.63140   0.64113
 Alpha virt. eigenvalues --    0.64548   0.65006   0.65277   0.65710   0.66171
 Alpha virt. eigenvalues --    0.66895   0.67132   0.67304   0.67648   0.68595
 Alpha virt. eigenvalues --    0.68677   0.69028   0.69552   0.69962   0.70219
 Alpha virt. eigenvalues --    0.70508   0.70844   0.71327   0.72047   0.72176
 Alpha virt. eigenvalues --    0.72760   0.73610   0.74238   0.74265   0.74790
 Alpha virt. eigenvalues --    0.75004   0.75552   0.76261   0.77265   0.77854
 Alpha virt. eigenvalues --    0.78116   0.78780   0.79007   0.79711   0.80869
 Alpha virt. eigenvalues --    0.81320   0.81893   0.82459   0.83047   0.83137
 Alpha virt. eigenvalues --    0.84020   0.84443   0.84930   0.85870   0.86603
 Alpha virt. eigenvalues --    0.87371   0.88522   0.88826   0.89761   0.89830
 Alpha virt. eigenvalues --    0.90824   0.91956   0.92485   0.93231   0.93835
 Alpha virt. eigenvalues --    0.94627   0.95530   0.96852   0.97375   0.99071
 Alpha virt. eigenvalues --    1.00294   1.00804   1.01180   1.02599   1.05041
 Alpha virt. eigenvalues --    1.05142   1.05717   1.06617   1.06989   1.08160
 Alpha virt. eigenvalues --    1.09518   1.10844   1.11613   1.12091   1.12956
 Alpha virt. eigenvalues --    1.15090   1.16258   1.17118   1.18416   1.19155
 Alpha virt. eigenvalues --    1.19735   1.20874   1.21791   1.22181   1.22339
 Alpha virt. eigenvalues --    1.22595   1.23757   1.24579   1.25618   1.26152
 Alpha virt. eigenvalues --    1.26579   1.27368   1.28178   1.28764   1.29571
 Alpha virt. eigenvalues --    1.30974   1.31956   1.33026   1.33278   1.34499
 Alpha virt. eigenvalues --    1.36349   1.37917   1.38584   1.41185   1.41509
 Alpha virt. eigenvalues --    1.42132   1.43102   1.43982   1.45725   1.46931
 Alpha virt. eigenvalues --    1.47262   1.49166   1.49817   1.50212   1.51548
 Alpha virt. eigenvalues --    1.53781   1.54519   1.55321   1.58108   1.60926
 Alpha virt. eigenvalues --    1.63153   1.65323   1.66570   1.68614   1.69467
 Alpha virt. eigenvalues --    1.69752   1.71547   1.71948   1.72486   1.72659
 Alpha virt. eigenvalues --    1.73154   1.73920   1.74989   1.75701   1.76261
 Alpha virt. eigenvalues --    1.76455   1.76644   1.77267   1.78370   1.78983
 Alpha virt. eigenvalues --    1.79321   1.80509   1.80753   1.81370   1.81707
 Alpha virt. eigenvalues --    1.82975   1.83295   1.83638   1.84431   1.85658
 Alpha virt. eigenvalues --    1.86162   1.87345   1.87887   1.88407   1.89851
 Alpha virt. eigenvalues --    1.92392   1.92684   1.94359   1.94938   1.96389
 Alpha virt. eigenvalues --    1.96710   1.97756   1.98557   1.98833   1.99541
 Alpha virt. eigenvalues --    2.00861   2.00943   2.02980   2.04559   2.05792
 Alpha virt. eigenvalues --    2.07250   2.09333   2.09545   2.11653   2.12836
 Alpha virt. eigenvalues --    2.13438   2.13758   2.14500   2.14849   2.15949
 Alpha virt. eigenvalues --    2.17810   2.18303   2.19112   2.19563   2.21958
 Alpha virt. eigenvalues --    2.22765   2.25447   2.25690   2.26754   2.28159
 Alpha virt. eigenvalues --    2.29458   2.29919   2.30353   2.30789   2.32280
 Alpha virt. eigenvalues --    2.32964   2.33145   2.34326   2.36005   2.36431
 Alpha virt. eigenvalues --    2.38564   2.38750   2.39558   2.41837   2.42371
 Alpha virt. eigenvalues --    2.43023   2.45304   2.46036   2.47024   2.48787
 Alpha virt. eigenvalues --    2.51764   2.53090   2.54019   2.54793   2.56440
 Alpha virt. eigenvalues --    2.56634   2.57976   2.58992   2.59591   2.60391
 Alpha virt. eigenvalues --    2.62481   2.62976   2.64986   2.65155   2.65751
 Alpha virt. eigenvalues --    2.67941   2.69404   2.71074   2.71432   2.73509
 Alpha virt. eigenvalues --    2.74357   2.76472   2.79065   2.80909   2.82348
 Alpha virt. eigenvalues --    2.83311   2.84192   2.85047   2.86638   2.86720
 Alpha virt. eigenvalues --    2.88796   2.89139   2.89779   2.91591   2.93575
 Alpha virt. eigenvalues --    2.95391   2.95742   2.96421   2.98869   3.03413
 Alpha virt. eigenvalues --    3.06430   3.08371   3.09589   3.13619   3.16179
 Alpha virt. eigenvalues --    3.16850   3.21031   3.22768   3.27193   3.30734
 Alpha virt. eigenvalues --    3.40466   3.43092   3.46802   3.54947   3.60866
 Alpha virt. eigenvalues --    3.67980   3.72165
          Condensed to atoms (all electrons):
               1          2          3          4          5          6
     1  O    7.656752   0.772872  -0.108575   0.002319  -0.000041   0.000000
     2  C    0.772872   4.708408   0.329859  -0.038254   0.006481  -0.000298
     3  N   -0.108575   0.329859   6.607958   0.313539  -0.087452   0.008703
     4  C    0.002319  -0.038254   0.313539   5.291799   0.216953   0.133744
     5  C   -0.000041   0.006481  -0.087452   0.216953   5.183816   0.258366
     6  C    0.000000  -0.000298   0.008703   0.133744   0.258366   5.004897
     7  C    0.000000   0.000111   0.000103  -0.191558   0.109066   0.309519
     8  Cl   0.000000  -0.000000   0.000001   0.001123   0.003301  -0.063951
     9  C   -0.000004   0.000304   0.009208   0.122421  -0.148729   0.081543
    10  C    0.000000   0.000010  -0.000171   0.017861  -0.001745   0.013384
    11  C   -0.000000  -0.000077   0.000010   0.000496   0.000027  -0.000336
    12  C   -0.000000  -0.000000  -0.000000  -0.000060   0.000004  -0.000006
    13  C   -0.000000  -0.000000   0.000000   0.000004   0.000000  -0.000002
    14  C   -0.000000  -0.000000  -0.000000   0.000002  -0.000001   0.000023
    15  N    0.000000   0.000000   0.000000  -0.000092  -0.000000  -0.000053
    16  C   -0.000109  -0.021822  -0.073984   0.216432   0.061098  -0.120954
    17  C   -0.097588   0.111382  -0.160579   0.009854   0.000152   0.000007
    18  C   -0.004118  -0.065268  -0.009596  -0.008767  -0.002844   0.000793
    19  Cl  -0.000648   0.014398  -0.004089  -0.008488   0.009709  -0.001186
    20  C    0.000030   0.006881  -0.000161  -0.001732   0.000002  -0.000000
    21  C    0.001979  -0.035737   0.001080   0.001822  -0.000165   0.000020
    22  C    0.000326   0.007834  -0.000088  -0.000158   0.000011  -0.000003
    23  C   -0.000066  -0.000018  -0.000015   0.000124  -0.000025   0.000008
    24  S    0.000000   0.000018  -0.000000  -0.000001   0.000000  -0.000000
    25  N   -0.000000   0.000000  -0.000000   0.000000  -0.000000   0.000000
    26  C   -0.000000  -0.000000  -0.000000   0.000002  -0.000000   0.000000
    27  N   -0.000000  -0.000000   0.000000   0.000000  -0.000000   0.000000
    28  H    0.007518  -0.009429   0.330596  -0.018566  -0.013411   0.000441
    29  H   -0.000048  -0.000386  -0.008621  -0.085076   0.454385  -0.061008
    30  H   -0.000000   0.000001  -0.000145   0.016041  -0.061240   0.442668
    31  H    0.000000  -0.000006   0.000029   0.000527  -0.000043   0.000056
    32  H    0.000000   0.000000  -0.000000  -0.000001  -0.000000   0.000000
    33  H   -0.000000  -0.000000  -0.000000   0.000000  -0.000000   0.000000
    34  H    0.000000   0.000000  -0.000000  -0.000000  -0.000000   0.000000
    35  H   -0.000246  -0.001225  -0.005574  -0.079100   0.016917  -0.003242
    36  H    0.000003  -0.000095   0.000008   0.000048  -0.000003   0.000000
    37  H    0.003293  -0.010255   0.000605   0.000098   0.000003   0.000000
    38  H   -0.000002  -0.000197   0.000002   0.000001  -0.000000   0.000000
    39  H    0.000000  -0.000000   0.000000  -0.000000   0.000000  -0.000000
    40  H    0.000000   0.000001  -0.000000  -0.000009  -0.000000   0.000000
    41  H    0.000000  -0.000000  -0.000000  -0.000000  -0.000000   0.000000
    42  H   -0.000000  -0.000000   0.000000  -0.000000   0.000000  -0.000000
    43  H    0.000000  -0.000000   0.000000  -0.000000  -0.000000  -0.000000
               7          8          9         10         11         12
     1  O    0.000000   0.000000  -0.000004   0.000000  -0.000000  -0.000000
     2  C    0.000111  -0.000000   0.000304   0.000010  -0.000077  -0.000000
     3  N    0.000103   0.000001   0.009208  -0.000171   0.000010  -0.000000
     4  C   -0.191558   0.001123   0.122421   0.017861   0.000496  -0.000060
     5  C    0.109066   0.003301  -0.148729  -0.001745   0.000027   0.000004
     6  C    0.309519  -0.063951   0.081543   0.013384  -0.000336  -0.000006
     7  C    5.270770   0.268261   0.251081  -0.086032   0.010020  -0.000256
     8  Cl   0.268261  16.924561  -0.059954   0.002407  -0.002094   0.000178
     9  C    0.251081  -0.059954   5.365246   0.218382  -0.111263   0.011815
    10  C   -0.086032   0.002407   0.218382   5.206024   0.374277   0.000988
    11  C    0.010020  -0.002094  -0.111263   0.374277   5.117841   0.391009
    12  C   -0.000256   0.000178   0.011815   0.000988   0.391009   4.929374
    13  C    0.000127  -0.000305   0.001973  -0.083337   0.029371   0.362067
    14  C    0.000390   0.001762   0.008091  -0.042850  -0.093429   0.005000
    15  N   -0.004560  -0.016933  -0.098688   0.540322  -0.047789  -0.048480
    16  C    0.063433   0.002366   0.352102  -0.077897  -0.022013   0.001905
    17  C    0.000187   0.000000  -0.001344  -0.000923   0.000219   0.000058
    18  C   -0.000780   0.000001   0.003532   0.000208   0.000608  -0.000024
    19  Cl   0.000243  -0.000001  -0.000513  -0.000056   0.000002  -0.000000
    20  C    0.000062  -0.000001   0.000807  -0.000582   0.000643   0.000195
    21  C   -0.000064   0.000000  -0.000171   0.000513  -0.000202  -0.000063
    22  C    0.000017  -0.000000  -0.000042  -0.000349  -0.000065   0.000524
    23  C   -0.000042   0.000000   0.000378  -0.000272  -0.000201   0.000511
    24  S    0.000000   0.000000  -0.000001   0.000029  -0.000691  -0.000030
    25  N   -0.000000  -0.000000  -0.000002   0.000068  -0.001137  -0.005334
    26  C   -0.000003  -0.000001  -0.000054  -0.000299  -0.002391  -0.001344
    27  N   -0.000000  -0.000000   0.000000   0.000000  -0.000011  -0.000008
    28  H   -0.000000  -0.000000  -0.000219   0.000010   0.000001   0.000000
    29  H    0.016567  -0.000163  -0.002453   0.000051  -0.000002   0.000000
    30  H   -0.074663   0.003481   0.018380  -0.000272   0.000015  -0.000000
    31  H   -0.000034  -0.000024  -0.022428  -0.041104   0.423398  -0.065966
    32  H   -0.000001   0.000000  -0.000442   0.015680  -0.063429   0.426821
    33  H   -0.000001   0.000000   0.000105   0.000781   0.011779  -0.059012
    34  H   -0.000041   0.000374  -0.000461   0.006655   0.001139   0.006510
    35  H    0.020080  -0.000106  -0.057256  -0.027928   0.004447   0.000512
    36  H    0.000000  -0.000000  -0.000014  -0.000022   0.000006   0.000002
    37  H   -0.000001  -0.000000  -0.000035   0.000020  -0.000027  -0.000005
    38  H   -0.000000  -0.000000  -0.000003   0.000024  -0.000133  -0.000075
    39  H    0.000000   0.000000   0.000000  -0.000001   0.000037   0.000110
    40  H   -0.000003   0.000017   0.000118   0.000764   0.005909   0.002971
    41  H    0.000000   0.000000   0.000001   0.000015   0.000016   0.000043
    42  H    0.000000   0.000000   0.000002   0.000006  -0.000085   0.000232
    43  H    0.000000   0.000000  -0.000000  -0.000000   0.000001   0.000001
              13         14         15         16         17         18
     1  O   -0.000000  -0.000000   0.000000  -0.000109  -0.097588  -0.004118
     2  C   -0.000000  -0.000000   0.000000  -0.021822   0.111382  -0.065268
     3  N    0.000000  -0.000000   0.000000  -0.073984  -0.160579  -0.009596
     4  C    0.000004   0.000002  -0.000092   0.216432   0.009854  -0.008767
     5  C    0.000000  -0.000001  -0.000000   0.061098   0.000152  -0.002844
     6  C   -0.000002   0.000023  -0.000053  -0.120954   0.000007   0.000793
     7  C    0.000127   0.000390  -0.004560   0.063433   0.000187  -0.000780
     8  Cl  -0.000305   0.001762  -0.016933   0.002366   0.000000   0.000001
     9  C    0.001973   0.008091  -0.098688   0.352102  -0.001344   0.003532
    10  C   -0.083337  -0.042850   0.540322  -0.077897  -0.000923   0.000208
    11  C    0.029371  -0.093429  -0.047789  -0.022013   0.000219   0.000608
    12  C    0.362067   0.005000  -0.048480   0.001905   0.000058  -0.000024
    13  C    5.068287   0.402155  -0.034429  -0.000193  -0.000001  -0.000000
    14  C    0.402155   4.740747   0.526291  -0.000144   0.000000   0.000000
    15  N   -0.034429   0.526291   6.352625   0.000257  -0.000002  -0.000000
    16  C   -0.000193  -0.000144   0.000257   5.176235   0.007913  -0.019541
    17  C   -0.000001   0.000000  -0.000002   0.007913   6.059920   0.176543
    18  C   -0.000000   0.000000  -0.000000  -0.019541   0.176543   5.160472
    19  Cl   0.000000  -0.000000  -0.000000  -0.002205  -0.090037   0.294322
    20  C   -0.000004   0.000000  -0.000001   0.002057   0.096167   0.341980
    21  C   -0.000001   0.000000   0.000000  -0.013745   0.180960   0.116640
    22  C   -0.000002  -0.000001  -0.000002   0.000105   0.141380  -0.174343
    23  C    0.000021  -0.000002  -0.000004  -0.000697  -0.243852   0.165035
    24  S   -0.000005  -0.000000  -0.000000   0.000004   0.000151   0.001450
    25  N    0.000161  -0.000001   0.000000  -0.000001  -0.000038  -0.000029
    26  C   -0.000097   0.000012   0.000000  -0.000005  -0.000149  -0.000829
    27  N    0.000000  -0.000000   0.000000  -0.000000  -0.000041   0.000595
    28  H    0.000000   0.000000  -0.000000   0.007195   0.017511   0.000138
    29  H   -0.000000   0.000000  -0.000000   0.017843  -0.000225  -0.000005
    30  H    0.000000  -0.000001   0.000034  -0.001974   0.000001  -0.000001
    31  H    0.014084  -0.000451   0.006482   0.002657  -0.001570  -0.000162
    32  H   -0.060657   0.009532  -0.000163  -0.000012  -0.000006  -0.000001
    33  H    0.422822  -0.045370   0.005816   0.000002   0.000000  -0.000000
    34  H   -0.075741   0.426481  -0.042763   0.000025   0.000000  -0.000000
    35  H   -0.000042  -0.000032  -0.000122   0.456756   0.016400  -0.009212
    36  H   -0.000000   0.000000  -0.000000   0.000072   0.020816  -0.055066
    37  H   -0.000000   0.000000   0.000000  -0.000206  -0.082459   0.016253
    38  H    0.000004  -0.000000   0.000000  -0.000021   0.015552  -0.002137
    39  H   -0.000007   0.000000  -0.000000   0.000000   0.000008  -0.000008
    40  H   -0.000125  -0.000037  -0.000010   0.000042   0.000081  -0.000095
    41  H    0.000004  -0.000000  -0.000000  -0.000003   0.000008   0.000774
    42  H    0.000013  -0.000000  -0.000000   0.000000   0.000003  -0.000008
    43  H   -0.000000   0.000000   0.000000  -0.000000  -0.000004  -0.000020
              19         20         21         22         23         24
     1  O   -0.000648   0.000030   0.001979   0.000326  -0.000066   0.000000
     2  C    0.014398   0.006881  -0.035737   0.007834  -0.000018   0.000018
     3  N   -0.004089  -0.000161   0.001080  -0.000088  -0.000015  -0.000000
     4  C   -0.008488  -0.001732   0.001822  -0.000158   0.000124  -0.000001
     5  C    0.009709   0.000002  -0.000165   0.000011  -0.000025   0.000000
     6  C   -0.001186  -0.000000   0.000020  -0.000003   0.000008  -0.000000
     7  C    0.000243   0.000062  -0.000064   0.000017  -0.000042   0.000000
     8  Cl  -0.000001  -0.000001   0.000000  -0.000000   0.000000   0.000000
     9  C   -0.000513   0.000807  -0.000171  -0.000042   0.000378  -0.000001
    10  C   -0.000056  -0.000582   0.000513  -0.000349  -0.000272   0.000029
    11  C    0.000002   0.000643  -0.000202  -0.000065  -0.000201  -0.000691
    12  C   -0.000000   0.000195  -0.000063   0.000524   0.000511  -0.000030
    13  C    0.000000  -0.000004  -0.000001  -0.000002   0.000021  -0.000005
    14  C   -0.000000   0.000000   0.000000  -0.000001  -0.000002  -0.000000
    15  N   -0.000000  -0.000001   0.000000  -0.000002  -0.000004  -0.000000
    16  C   -0.002205   0.002057  -0.013745   0.000105  -0.000697   0.000004
    17  C   -0.090037   0.096167   0.180960   0.141380  -0.243852   0.000151
    18  C    0.294322   0.341980   0.116640  -0.174343   0.165035   0.001450
    19  Cl  16.899205  -0.068012   0.003576   0.000410   0.004676  -0.000038
    20  C   -0.068012   5.104191  -0.130642   0.080402   0.105922  -0.051936
    21  C    0.003576  -0.130642   5.114871   0.194184   0.142646   0.005846
    22  C    0.000410   0.080402   0.194184   5.174853   0.195619  -0.025908
    23  C    0.004676   0.105922   0.142646   0.195619   6.074986   0.058138
    24  S   -0.000038  -0.051936   0.005846  -0.025908   0.058138  14.675880
    25  N    0.000000   0.008484   0.002326  -0.007205  -0.101543   0.351917
    26  C    0.000007  -0.001635   0.000190   0.006484  -0.125191   0.309265
    27  N    0.000000   0.009030  -0.000010  -0.004952  -0.043354   0.342081
    28  H    0.000114   0.000027  -0.000359   0.000010   0.000005   0.000000
    29  H    0.000485   0.000004   0.000007   0.000000  -0.000000   0.000000
    30  H   -0.000015  -0.000000  -0.000000   0.000000  -0.000000  -0.000000
    31  H   -0.000072  -0.003685   0.000409  -0.006956  -0.008845  -0.000243
    32  H    0.000000  -0.000103   0.000055  -0.000090   0.000158   0.000421
    33  H   -0.000000   0.000000  -0.000000   0.000000   0.000000   0.000000
    34  H   -0.000000  -0.000000  -0.000000  -0.000000  -0.000000   0.000000
    35  H    0.000421   0.000157  -0.006914   0.002557  -0.001846  -0.000002
    36  H    0.003554   0.442085  -0.002278   0.012589  -0.078139  -0.009280
    37  H   -0.000097  -0.002286   0.472561  -0.074320   0.017354  -0.000146
    38  H    0.000009   0.015005  -0.068753   0.452138  -0.067432  -0.012098
    39  H   -0.000000  -0.000414  -0.000058   0.000817   0.010045  -0.013942
    40  H    0.000006  -0.003232   0.000008  -0.000008   0.009690  -0.019114
    41  H   -0.000039   0.004089  -0.000028  -0.000835  -0.002033  -0.003020
    42  H   -0.000000   0.000191  -0.000008  -0.000113   0.006849  -0.007637
    43  H    0.000000  -0.001229   0.000007   0.001334  -0.005881  -0.008362
              25         26         27         28         29         30
     1  O   -0.000000  -0.000000  -0.000000   0.007518  -0.000048  -0.000000
     2  C    0.000000  -0.000000  -0.000000  -0.009429  -0.000386   0.000001
     3  N   -0.000000  -0.000000   0.000000   0.330596  -0.008621  -0.000145
     4  C    0.000000   0.000002   0.000000  -0.018566  -0.085076   0.016041
     5  C   -0.000000  -0.000000  -0.000000  -0.013411   0.454385  -0.061240
     6  C    0.000000   0.000000   0.000000   0.000441  -0.061008   0.442668
     7  C   -0.000000  -0.000003  -0.000000  -0.000000   0.016567  -0.074663
     8  Cl  -0.000000  -0.000001  -0.000000  -0.000000  -0.000163   0.003481
     9  C   -0.000002  -0.000054   0.000000  -0.000219  -0.002453   0.018380
    10  C    0.000068  -0.000299   0.000000   0.000010   0.000051  -0.000272
    11  C   -0.001137  -0.002391  -0.000011   0.000001  -0.000002   0.000015
    12  C   -0.005334  -0.001344  -0.000008   0.000000   0.000000  -0.000000
    13  C    0.000161  -0.000097   0.000000   0.000000  -0.000000   0.000000
    14  C   -0.000001   0.000012  -0.000000   0.000000   0.000000  -0.000001
    15  N    0.000000   0.000000   0.000000  -0.000000  -0.000000   0.000034
    16  C   -0.000001  -0.000005  -0.000000   0.007195   0.017843  -0.001974
    17  C   -0.000038  -0.000149  -0.000041   0.017511  -0.000225   0.000001
    18  C   -0.000029  -0.000829   0.000595   0.000138  -0.000005  -0.000001
    19  Cl   0.000000   0.000007   0.000000   0.000114   0.000485  -0.000015
    20  C    0.008484  -0.001635   0.009030   0.000027   0.000004  -0.000000
    21  C    0.002326   0.000190  -0.000010  -0.000359   0.000007  -0.000000
    22  C   -0.007205   0.006484  -0.004952   0.000010   0.000000   0.000000
    23  C   -0.101543  -0.125191  -0.043354   0.000005  -0.000000  -0.000000
    24  S    0.351917   0.309265   0.342081   0.000000   0.000000  -0.000000
    25  N    6.884763  -0.053658  -0.039098   0.000000  -0.000000   0.000000
    26  C   -0.053658   4.947363  -0.099320   0.000000  -0.000000   0.000000
    27  N   -0.039098  -0.099320   6.905754  -0.000000  -0.000000  -0.000000
    28  H    0.000000   0.000000  -0.000000   0.523805   0.004081  -0.000022
    29  H   -0.000000  -0.000000  -0.000000   0.004081   0.674666  -0.013469
    30  H    0.000000   0.000000  -0.000000  -0.000022  -0.013469   0.656324
    31  H    0.002741   0.000370   0.000071  -0.000001  -0.000001  -0.000000
    32  H    0.021399  -0.000822   0.000075   0.000000   0.000000   0.000000
    33  H   -0.000007  -0.000002  -0.000000   0.000000  -0.000000  -0.000000
    34  H   -0.000000   0.000000  -0.000000  -0.000000   0.000000  -0.000000
    35  H   -0.000005  -0.000010  -0.000000  -0.000468  -0.000265   0.000025
    36  H    0.000428   0.004607   0.004578  -0.000002  -0.000000   0.000000
    37  H   -0.000018   0.000005   0.000002  -0.000081   0.000000   0.000000
    38  H    0.035345   0.001212   0.000155  -0.000000  -0.000000   0.000000
    39  H    0.330131  -0.004442  -0.000089   0.000000   0.000000  -0.000000
    40  H    0.000665   0.369025   0.005541  -0.000000   0.000000  -0.000000
    41  H    0.004002   0.348588   0.009201  -0.000000   0.000000  -0.000000
    42  H    0.002138   0.366143   0.003639  -0.000000   0.000000  -0.000000
    43  H   -0.002203   0.009281   0.327368  -0.000000   0.000000  -0.000000
              31         32         33         34         35         36
     1  O    0.000000   0.000000  -0.000000   0.000000  -0.000246   0.000003
     2  C   -0.000006   0.000000  -0.000000   0.000000  -0.001225  -0.000095
     3  N    0.000029  -0.000000  -0.000000  -0.000000  -0.005574   0.000008
     4  C    0.000527  -0.000001   0.000000  -0.000000  -0.079100   0.000048
     5  C   -0.000043  -0.000000  -0.000000  -0.000000   0.016917  -0.000003
     6  C    0.000056   0.000000   0.000000   0.000000  -0.003242   0.000000
     7  C   -0.000034  -0.000001  -0.000001  -0.000041   0.020080   0.000000
     8  Cl  -0.000024   0.000000   0.000000   0.000374  -0.000106  -0.000000
     9  C   -0.022428  -0.000442   0.000105  -0.000461  -0.057256  -0.000014
    10  C   -0.041104   0.015680   0.000781   0.006655  -0.027928  -0.000022
    11  C    0.423398  -0.063429   0.011779   0.001139   0.004447   0.000006
    12  C   -0.065966   0.426821  -0.059012   0.006510   0.000512   0.000002
    13  C    0.014084  -0.060657   0.422822  -0.075741  -0.000042  -0.000000
    14  C   -0.000451   0.009532  -0.045370   0.426481  -0.000032   0.000000
    15  N    0.006482  -0.000163   0.005816  -0.042763  -0.000122  -0.000000
    16  C    0.002657  -0.000012   0.000002   0.000025   0.456756   0.000072
    17  C   -0.001570  -0.000006   0.000000   0.000000   0.016400   0.020816
    18  C   -0.000162  -0.000001  -0.000000  -0.000000  -0.009212  -0.055066
    19  Cl  -0.000072   0.000000  -0.000000  -0.000000   0.000421   0.003554
    20  C   -0.003685  -0.000103   0.000000  -0.000000   0.000157   0.442085
    21  C    0.000409   0.000055  -0.000000  -0.000000  -0.006914  -0.002278
    22  C   -0.006956  -0.000090   0.000000  -0.000000   0.002557   0.012589
    23  C   -0.008845   0.000158   0.000000  -0.000000  -0.001846  -0.078139
    24  S   -0.000243   0.000421   0.000000   0.000000  -0.000002  -0.009280
    25  N    0.002741   0.021399  -0.000007  -0.000000  -0.000005   0.000428
    26  C    0.000370  -0.000822  -0.000002   0.000000  -0.000010   0.004607
    27  N    0.000071   0.000075  -0.000000  -0.000000  -0.000000   0.004578
    28  H   -0.000001   0.000000   0.000000  -0.000000  -0.000468  -0.000002
    29  H   -0.000001   0.000000  -0.000000   0.000000  -0.000265  -0.000000
    30  H   -0.000000   0.000000  -0.000000  -0.000000   0.000025   0.000000
    31  H    0.695605  -0.012468  -0.000184   0.000111   0.000157   0.000046
    32  H   -0.012468   0.645878  -0.011077  -0.000283   0.000043  -0.000013
    33  H   -0.000184  -0.011077   0.654270  -0.005872  -0.000001   0.000000
    34  H    0.000111  -0.000283  -0.005872   0.654348  -0.000001   0.000000
    35  H    0.000157   0.000043  -0.000001  -0.000001   0.667960   0.000000
    36  H    0.000046  -0.000013   0.000000   0.000000   0.000000   0.639527
    37  H    0.000098  -0.000001  -0.000000   0.000000   0.000416   0.000027
    38  H    0.000491   0.000243  -0.000000  -0.000000   0.000084  -0.000206
    39  H   -0.000162  -0.000390   0.000000  -0.000000   0.000000  -0.000031
    40  H    0.000413   0.000640  -0.000004  -0.000001  -0.000003  -0.001114
    41  H    0.000068   0.000075  -0.000000  -0.000000   0.000001   0.001213
    42  H   -0.000137   0.000212  -0.000000  -0.000000   0.000000  -0.000139
    43  H    0.000000  -0.000007   0.000000   0.000000  -0.000000  -0.000053
              37         38         39         40         41         42
     1  O    0.003293  -0.000002   0.000000   0.000000   0.000000  -0.000000
     2  C   -0.010255  -0.000197  -0.000000   0.000001  -0.000000  -0.000000
     3  N    0.000605   0.000002   0.000000  -0.000000  -0.000000   0.000000
     4  C    0.000098   0.000001  -0.000000  -0.000009  -0.000000  -0.000000
     5  C    0.000003  -0.000000   0.000000  -0.000000  -0.000000   0.000000
     6  C    0.000000   0.000000  -0.000000   0.000000   0.000000  -0.000000
     7  C   -0.000001  -0.000000   0.000000  -0.000003   0.000000   0.000000
[...]
    18  C    0.008636  -0.000069  -0.000000   0.000000  -0.004467  -0.075966
    19  Cl  -0.000534   0.000000   0.000000  -0.000000   0.000521   0.006403
    20  C    0.007951   0.000038   0.000000   0.000000   0.001521   0.459677
    21  C    0.015156  -0.000256   0.000000   0.000000  -0.006351  -0.006695
    22  C   -0.022540   0.001234  -0.000001  -0.000001   0.001188   0.016854
    23  C   -0.000022  -0.003114   0.000005  -0.000000  -0.001779  -0.093736
    24  S    0.001608   0.003317   0.000001  -0.000000   0.000038  -0.001382
    25  N   -0.002530   0.016833  -0.000004   0.000000   0.000014   0.000938
    26  C   -0.003625   0.000241  -0.000022   0.000000  -0.000016   0.003494
    27  N    0.000060   0.000281  -0.000000  -0.000000   0.000001   0.007115
    28  H   -0.000029   0.000000   0.000000  -0.000000  -0.000179  -0.000002
    29  H    0.000008  -0.000000   0.000000   0.000000  -0.000248  -0.000002
    30  H   -0.000007   0.000000  -0.000000  -0.000000   0.000044   0.000000
    31  H    0.677348  -0.014853   0.000133   0.000332   0.001479  -0.000125
    32  H   -0.014853   0.487923  -0.006344  -0.000257   0.000066  -0.000019
    33  H    0.000133  -0.006344   0.543893  -0.001925   0.000004   0.000000
    34  H    0.000332  -0.000257  -0.001925   0.557928   0.000007  -0.000000
    35  H    0.001479   0.000066   0.000004   0.000007   0.505454   0.000014
    36  H   -0.000125  -0.000019   0.000000  -0.000000   0.000014   0.523314
    37  H    0.000151  -0.000025   0.000000   0.000000   0.001540   0.000048
    38  H   -0.001621   0.000615  -0.000000  -0.000000   0.000056  -0.000003
    39  H   -0.000128  -0.000510   0.000001  -0.000000  -0.000000  -0.000077
    40  H   -0.003824  -0.000396   0.000041   0.000002  -0.000014  -0.000173
    41  H    0.000123  -0.000010   0.000000   0.000000   0.000004  -0.002275
    42  H   -0.000059  -0.000072   0.000003   0.000000  -0.000000  -0.000306
    43  H    0.000010  -0.000002  -0.000000  -0.000000  -0.000000  -0.000275
              37         38         39         40         41         42
     1  O    0.003275  -0.000028   0.000000   0.000000   0.000000  -0.000000
     2  C   -0.005642  -0.000220   0.000000   0.000009   0.000005  -0.000000
     3  N   -0.000119   0.000005   0.000000   0.000000  -0.000000   0.000000
     4  C    0.000045   0.000049  -0.000000  -0.000016  -0.000016  -0.000000
     5  C    0.000062  -0.000002  -0.000000   0.000004   0.000002  -0.000000
     6  C   -0.000005   0.000000   0.000000  -0.000016  -0.000002   0.000000
     7  C    0.000018  -0.000000  -0.000000   0.000004   0.000030  -0.000000
     8  Cl  -0.000000   0.000000   0.000000   0.000081   0.000002   0.000000
     9  C    0.000029  -0.000009   0.000002   0.000476  -0.000009   0.000009
    10  C   -0.000054   0.000001   0.000027   0.002434   0.000070   0.000080
    11  C   -0.000025   0.000937   0.000271   0.000465   0.000356   0.000342
    12  C   -0.000071   0.000514   0.000006   0.001998  -0.000089  -0.000270
    13  C   -0.000000   0.000064  -0.000089   0.000946  -0.000071  -0.000066
    14  C    0.000001  -0.000007  -0.000000  -0.000052   0.000005  -0.000005
    15  N    0.000001  -0.000000  -0.000000  -0.000035  -0.000001   0.000001
    16  C   -0.001042   0.000032   0.000001   0.000162  -0.000043   0.000001
    17  C   -0.058565   0.015173  -0.000010   0.000109  -0.000312   0.000003
    18  C    0.015029  -0.005163   0.000085   0.000421   0.001621  -0.000108
    19  Cl  -0.000191   0.000030  -0.000000   0.000012  -0.000020  -0.000002
    20  C   -0.002442   0.015096  -0.001413  -0.004225   0.002113   0.000020
    21  C    0.455114  -0.070838  -0.000023   0.000467   0.000394   0.000002
    22  C   -0.078315   0.451744  -0.001526  -0.003290  -0.003048  -0.000505
    23  C    0.015913  -0.060230   0.014819   0.011140   0.000703   0.007917
    24  S   -0.000274  -0.005515  -0.015289  -0.019098  -0.007116  -0.012709
    25  N   -0.000138   0.023081   0.312728  -0.005303   0.005485   0.001772
    26  C    0.000008   0.001516  -0.007002   0.364282   0.365897   0.366974
    27  N    0.000015   0.000828  -0.001364   0.006642  -0.001245   0.004695
    28  H   -0.000070  -0.000001   0.000000   0.000000  -0.000000  -0.000000
    29  H    0.000001  -0.000000   0.000000   0.000000   0.000000   0.000000
    30  H   -0.000000   0.000000   0.000000  -0.000000  -0.000000   0.000000
    31  H    0.000151  -0.001621  -0.000128  -0.003824   0.000123  -0.000059
    32  H   -0.000025   0.000615  -0.000510  -0.000396  -0.000010  -0.000072
    33  H    0.000000  -0.000000   0.000001   0.000041   0.000000   0.000003
    34  H    0.000000  -0.000000  -0.000000   0.000002   0.000000   0.000000
    35  H    0.001540   0.000056  -0.000000  -0.000014   0.000004  -0.000000
    36  H    0.000048  -0.000003  -0.000077  -0.000173  -0.002275  -0.000306
    37  H    0.519285  -0.007090  -0.000005  -0.000003   0.000002  -0.000000
    38  H   -0.007090   0.471145  -0.001432  -0.000220  -0.000107  -0.000066
    39  H   -0.000005  -0.001432   0.476593   0.000302   0.000112   0.002203
    40  H   -0.000003  -0.000220   0.000302   0.516354  -0.021696  -0.010594
    41  H    0.000002  -0.000107   0.000112  -0.021696   0.511431  -0.007735
    42  H   -0.000000  -0.000066   0.002203  -0.010594  -0.007735   0.494675
    43  H   -0.000002   0.000310  -0.000123  -0.000635  -0.000778  -0.000661
              43
     1  O    0.000000
     2  C   -0.000001
     3  N   -0.000000
     4  C    0.000000
     5  C   -0.000000
     6  C    0.000000
     7  C   -0.000000
     8  Cl   0.000000
     9  C   -0.000000
    10  C   -0.000001
    11  C   -0.000009
    12  C    0.000010
    13  C    0.000000
    14  C   -0.000000
    15  N    0.000000
    16  C    0.000000
    17  C    0.000025
    18  C    0.000129
    19  Cl   0.000001
    20  C   -0.004658
    21  C   -0.000277
    22  C    0.003913
    23  C   -0.005879
    24  S   -0.017575
    25  N   -0.001908
    26  C    0.013299
    27  N    0.308357
    28  H   -0.000000
    29  H   -0.000000
    30  H    0.000000
    31  H    0.000010
    32  H   -0.000002
    33  H   -0.000000
    34  H   -0.000000
    35  H   -0.000000
    36  H   -0.000275
    37  H   -0.000002
    38  H    0.000310
    39  H   -0.000123
    40  H   -0.000635
    41  H   -0.000778
    42  H   -0.000661
    43  H    0.487307
 Mulliken charges:
               1
     1  O   -0.310502
     2  C    0.188147
     3  N   -0.227386
     4  C    0.250303
     5  C   -0.233155
     6  C   -0.173928
     7  C    0.053422
     8  Cl  -0.077946
     9  C    0.150320
    10  C    0.226713
    11  C   -0.238025
    12  C   -0.170791
    13  C   -0.078474
    14  C   -0.074155
    15  N   -0.218202
    16  C   -0.334429
    17  C    0.025971
    18  C    0.225150
    19  Cl  -0.074161
    20  C   -0.293806
    21  C   -0.153554
    22  C   -0.166156
    23  C    0.110740
    24  S    0.471361
    25  N   -0.578912
    26  C   -0.345909
    27  N   -0.540573
    28  H    0.239973
    29  H    0.123309
    30  H    0.129140
    31  H    0.148381
    32  H    0.163245
    33  H    0.130456
    34  H    0.122358
    35  H    0.162052
    36  H    0.138940
    37  H    0.143543
    38  H    0.171358
    39  H    0.221842
    40  H    0.163242
    41  H    0.156215
    42  H    0.154461
    43  H    0.219423
 Sum of Mulliken charges =  -0.00000
 Mulliken charges with hydrogens summed into heavy atoms:
               1
     1  O   -0.310502
     2  C    0.188147
     3  N    0.012586
     4  C    0.250303
     5  C   -0.109846
     6  C   -0.044789
     7  C    0.053422
     8  Cl  -0.077946
     9  C    0.150320
    10  C    0.226713
    11  C   -0.089644
    12  C   -0.007546
    13  C    0.051982
    14  C    0.048203
    15  N   -0.218202
    16  C   -0.172378
    17  C    0.025971
    18  C    0.225150
    19  Cl  -0.074161
    20  C   -0.154866
    21  C   -0.010011
    22  C    0.005202
    23  C    0.110740
    24  S    0.471361
    25  N   -0.357070
    26  C    0.128010
    27  N   -0.321150
 Electronic spatial extent (au):  <R**2>=          10595.7798
 Charge=              0.0000 electrons
 Dipole moment (field-independent basis, Debye):
    X=              0.2934    Y=              1.9408    Z=              0.3726  Tot=              1.9979
 Quadrupole moment (field-independent basis, Debye-Ang):
   XX=           -181.5224   YY=           -175.9935   ZZ=           -179.6263
   XY=            -17.6107   XZ=              3.9128   YZ=             -7.0994
 Traceless Quadrupole moment (field-independent basis, Debye-Ang):
   XX=             -2.4749   YY=              3.0539   ZZ=             -0.5789
   XY=            -17.6107   XZ=              3.9128   YZ=             -7.0994
 Octapole moment (field-independent basis, Debye-Ang**2):
  XXX=              6.8909  YYY=            125.5748  ZZZ=             13.4578  XYY=             26.2461
  XXY=            -48.8972  XXZ=            -14.5169  XZZ=             16.6352  YZZ=             10.0362
  YYZ=             30.8134  XYZ=             -4.0413
 Hexadecapole moment (field-independent basis, Debye-Ang**3):
 XXXX=          -6794.7489 YYYY=          -5568.0103 ZZZZ=          -1773.9502 XXXY=           -161.8205
 XXXZ=            239.4432 YYYX=           -206.1598 YYYZ=           -282.4764 ZZZX=             75.2004
 ZZZY=              4.5368 XXYY=          -1890.6141 XXZZ=          -1528.5978 YYZZ=          -1295.7033
 XXYZ=              0.0532 YYXZ=            -59.3979 ZZXY=            -16.8836
 N-N= 3.006922615797D+03 E-N=-1.153723542619D+04  KE= 2.338136978181D+03
 Breneman (CHELPG) radii used.
 Read replacement radii for each type of atom:
 Atom Element Radius
    1     8    1.70
    2     6    1.50
    3     7    1.70
    4     6    1.50
    5     6    1.50
    6     6    1.50
    7     6    1.50
    8    17    2.00
    9     6    1.50
   10     6    1.50
   11     6    1.50
   12     6    1.50
   13     6    1.50
   14     6    1.50
   15     7    1.70
   16     6    1.50
   17     6    1.50
   18     6    1.50
   19    17    2.00
   20     6    1.50
   21     6    1.50
   22     6    1.50
   23     6    1.50
   24    16    2.00
   25     7    1.70
   26     6    1.50
   27     7    1.70
   28     1    1.45
   29     1    1.45
   30     1    1.45
   31     1    1.45
   32     1    1.45
   33     1    1.45
   34     1    1.45
   35     1    1.45
   36     1    1.45
   37     1    1.45
   38     1    1.45
   39     1    1.45
   40     1    1.45
   41     1    1.45
   42     1    1.45
   43     1    1.45
 Generate Potential Derived Charges using the Breneman model, NDens= 1.
 Grid spacing= 0.300 Box extension= 2.800
 NStep X,Y,Z=   52     52     38   Total possible points=      102752
 Number of Points to Fit=   22961

 **********************************************************************

            Electrostatic Properties Using The SCF Density.

 **********************************************************************

       Atomic Center    1 is at  -0.139690 -4.242980 -1.995020
       Atomic Center    2 is at   0.220306 -3.269710 -1.371446
       Atomic Center    3 is at   1.543209 -3.009750 -1.123764
       Atomic Center    4 is at   2.108967 -1.867596 -0.530648
       Atomic Center    5 is at   3.115150 -1.994547  0.431338
       Atomic Center    6 is at   3.640919 -0.860748  1.036207
       Atomic Center    7 is at   3.156988  0.409864  0.717301
       Atomic Center    8 is at   3.780102  1.753147  1.607191
       Atomic Center    9 is at   2.161481  0.565108 -0.261186
       Atomic Center   10 is at   1.560797  1.867400 -0.648083
       Atomic Center   11 is at   0.171245  1.948347 -0.822169
       Atomic Center   12 is at  -0.398052  3.156110 -1.211149
       Atomic Center   13 is at   0.443421  4.247687 -1.409883
       Atomic Center   14 is at   1.813678  4.067684 -1.210778
       Atomic Center   15 is at   2.362347  2.915529 -0.842263
       Atomic Center   16 is at   1.679007 -0.589661 -0.886708
       Atomic Center   17 is at  -0.770540 -2.264728 -0.843619
       Atomic Center   18 is at  -0.951094 -2.026296  0.524622
       Atomic Center   19 is at  -0.070556 -2.938885  1.699901
       Atomic Center   20 is at  -1.845839 -1.056520  0.968424
       Atomic Center   21 is at  -1.561161 -1.562036 -1.756810
       Atomic Center   22 is at  -2.426369 -0.557732 -1.335146
       Atomic Center   23 is at  -2.531018 -0.293348  0.028091
       Atomic Center   24 is at  -3.650120  0.991575  0.626454
       Atomic Center   25 is at  -3.925641  1.762002 -0.693318
       Atomic Center   26 is at  -2.604065  1.914590  1.756684
       Atomic Center   27 is at  -4.728525  0.467905  1.604195
       Atomic Center   28 is at   2.158184 -3.779144 -1.369991
       Atomic Center   29 is at   3.468113 -2.985560  0.724680
       Atomic Center   30 is at   4.414130 -0.950986  1.800584
       Atomic Center   31 is at  -0.454562  1.073969 -0.646811
       Atomic Center   32 is at  -1.482327  3.222746 -1.343650
       Atomic Center   33 is at   0.052851  5.220934 -1.714231
       Atomic Center   34 is at   2.504972  4.905001 -1.362239
       Atomic Center   35 is at   0.949354 -0.477316 -1.687548
       Atomic Center   36 is at  -1.990365 -0.905527  2.039243
       Atomic Center   37 is at  -1.453388 -1.784324 -2.820995
       Atomic Center   38 is at  -3.000562  0.054614 -2.032240
       Atomic Center   39 is at  -4.677237  2.430624 -0.509133
       Atomic Center   40 is at  -1.715619  2.254205  1.211144
       Atomic Center   41 is at  -2.345279  1.307368  2.631280
       Atomic Center   42 is at  -3.221988  2.766734  2.069155
       Atomic Center   43 is at  -5.411792 -0.070144  1.062892
   22961 points will be used for fitting atomic charges
 Fitting point charges to electrostatic potential
 Charges from ESP fit, RMS=   0.00382 RRMS=   0.25145:
 ESP charges:
               1
     1  O   -0.557894
     2  C    0.639050
     3  N   -0.557095
     4  C    0.309953
     5  C   -0.250909
     6  C   -0.045191
     7  C    0.014415
     8  Cl  -0.094733
     9  C   -0.012790
    10  C    0.491191
    11  C   -0.351560
    12  C    0.203915
    13  C   -0.360392
    14  C    0.335214
    15  N   -0.559447
    16  C   -0.190738
    17  C    0.024444
    18  C    0.055696
    19  Cl  -0.092930
    20  C   -0.180130
    21  C   -0.139448
    22  C   -0.065091
    23  C    0.119481
    24  S    0.603859
    25  N   -0.721628
    26  C   -0.167430
    27  N   -0.736633
    28  H    0.330172
    29  H    0.160594
    30  H    0.100176
    31  H    0.116900
    32  H    0.048940
    33  H    0.136601
    34  H    0.038894
    35  H    0.074141
    36  H    0.142134
    37  H    0.136893
    38  H    0.095109
    39  H    0.331400
    40  H    0.020922
    41  H    0.104058
    42  H    0.130924
    43  H    0.318962
 Sum of ESP charges =  -0.00000
 ESP charges with hydrogens summed into heavy atoms:
               1
     1  O   -0.557894
     2  C    0.639050
     3  N   -0.226923
     4  C    0.309953
     5  C   -0.090315
     6  C    0.054985
     7  C    0.014415
     8  Cl  -0.094733
     9  C   -0.012790
    10  C    0.491191
    11  C   -0.234660
    12  C    0.252855
    13  C   -0.223791
    14  C    0.374108
    15  N   -0.559447
    16  C   -0.116596
    17  C    0.024444
    18  C    0.055696
    19  Cl  -0.092930
    20  C   -0.037996
    21  C   -0.002554
    22  C    0.030018
    23  C    0.119481
    24  S    0.603859
    25  N   -0.390228
    26  C    0.088473
    27  N   -0.417671
 Charge=  -0.00000 Dipole=     0.2983     1.9397     0.1276 Tot=     1.9667
 -----------------------------------------------------------------

              Electrostatic Properties (Atomic Units)

 -----------------------------------------------------------------
    Center     Electric         -------- Electric Field --------
               Potential          X             Y             Z
 -----------------------------------------------------------------
    1 Atom    -22.365311
    2 Atom    -14.639539
    3 Atom    -18.319708
    4 Atom    -14.695576
    5 Atom    -14.738138
    6 Atom    -14.739365
    7 Atom    -14.688111
    8 Atom    -64.421251
    9 Atom    -14.726929
   10 Atom    -14.707902
   11 Atom    -14.747785
   12 Atom    -14.739226
   13 Atom    -14.746808
   14 Atom    -14.723435
   15 Atom    -18.381753
   16 Atom    -14.740391
   17 Atom    -14.712470
   18 Atom    -14.667561
   19 Atom    -64.400400
   20 Atom    -14.718681
   21 Atom    -14.725168
   22 Atom    -14.729505
   23 Atom    -14.706958
   24 Atom    -59.058435
   25 Atom    -18.410249
   26 Atom    -14.724297
   27 Atom    -18.413119
   28 Atom     -0.992362
   29 Atom     -1.074148
   30 Atom     -1.080415
   31 Atom     -1.083416
   32 Atom     -1.083986
   33 Atom     -1.083677
   34 Atom     -1.096726
   35 Atom     -1.077984
   36 Atom     -1.058333
   37 Atom     -1.071498
   38 Atom     -1.076411
   39 Atom     -1.034691
   40 Atom     -1.066760
   41 Atom     -1.065497
   42 Atom     -1.062555
   43 Atom     -1.039021
 -----------------------------------------------------------------
 Unable to Open any file for archive entry.
 1\1\GINC-NOTCH407\SP\RPBE1PBE\def2TZVP\C19H16Cl2N4O1S1\U1414944\13-Oct
 -2025\0\\#N Guess=Read Geom=Check Integral(Ultrafine) Density Pop=(Che
 lpG,ReadRadii) NMR pbe1pbe EmpiricalDispersion=GD3BJ def2TZVP\\SDI-dru
 g_12\\0,1\O,0,0.187887057,-4.2299694612,-1.9760197181\C,0,0.4588273688
 ,-3.224601767,-1.3583437408\N,0,1.7529614976,-2.8453571075,-1.11260447
 75\C,0,2.2136625889,-1.6534840829,-0.5264509947\C,0,3.2269549035,-1.68
 37937855,0.4359716776\C,0,3.6485768057,-0.503764368,1.0339403656\C,0,3
 .0525087003,0.7163067936,0.7076383741\Cl,0,3.5521912754,2.1154091891,1
 .5893490733\C,0,2.0473100594,0.7756558195,-0.2714565934\C,0,1.33213033
 35,2.0163844004,-0.665901761\C,0,-0.059032396,1.9711104832,-0.84005124
 77\C,0,-0.7344582071,3.1205012761,-1.2360271877\C,0,0.0055752606,4.282
 0733339,-1.4414909927\C,0,1.3864166016,4.2271077399,-1.2417287619\N,0,
 2.0363055326,3.1311234993,-0.8665414679\C,0,1.6706979021,-0.4214900824
 ,-0.8899660183\C,0,-0.6184380775,-2.3095989388,-0.8361990751\C,0,-0.82
 00103267,-2.0802295651,0.5306556164\Cl,0,0.1386888303,-2.9030077296,1.
 7110702515\C,0,-1.7983796406,-1.1921541224,0.9689572333\C,0,-1.4687850
 695,-1.6862286464,-1.7533114716\C,0,-2.4208349035,-0.7612419988,-1.337
 3612678\C,0,-2.5491387697,-0.4992358379,0.0243126191\S,0,-3.7793121995
 ,0.6834656934,0.6153676955\N,0,-4.1226323986,1.4181643711,-0.708873735
 7\C,0,-2.8206935001,1.7034384629,1.7397846204\N,0,-4.8065317274,0.0708
 327388,1.5965225509\H,0,2.4346410722,-3.557830679,-1.3544412021\H,0,3.
 6674682522,-2.6373223923,0.7350889134\H,0,4.426586875,-0.5196181142,1.
 798608929\H,0,-0.6037829801,1.0450949503,-0.6593164768\H,0,-1.82030261
 67,3.088652337,-1.3685982091\H,0,-0.4707936205,5.2144630022,-1.7514963
 23\H,0,1.9997125264,5.1222389857,-1.3983657118\H,0,0.9340906459,-0.379
 9224564,-1.6912417028\H,0,-1.956142038,-1.0483980007,2.0389038475\H,0,
 -1.341222674,-1.9042515844,-2.816190159\H,0,-3.0475617471,-0.207119139
 3,-2.0379082709\H,0,-4.93131111,2.0176294779,-0.5284386131\H,0,-1.9662
 274624,2.1182632759,1.1919720949\H,0,-2.5085995279,1.1271331911,2.6178
 938109\H,0,-3.512760054,2.4984542975,2.0473737197\H,0,-5.438560224,-0.
 5296403112,1.0586282874\\Version=ES64L-G16RevC.01\State=1-A\HF=-2345.2
 434309\RMSD=8.119e-09\Dipole=0.0463055,0.7717185,0.1420356\Quadrupole=
 0.5349655,-0.165558,-0.3694075,-13.2280862,3.4504404,-5.0001837\PG=C01
  [X(C19H16Cl2N4O1S1)]\\@
 The archive entry for this job was punched.


 A COMPUTER IS LIKE A HORSE, IT WILL SENSE WEAKNESS.
     -- GREG WETTSTEIN
 Job cpu time:       0 days  2 hours 55 minutes  1.9 seconds.
 Elapsed time:       0 days  0 hours 11 minutes 48.9 seconds.
 File lengths (MBytes):  RWF=    525 Int=      0 D2E=      0 Chk=     83 Scr=      2
 Normal termination of Gaussian 16 at Mon Oct 13 23:43:36 2025.
