 Entering Gaussian System, Link 0=g16
 Input=SDI-drug_3.com
 Output=SDI-drug_3.log
 Initial command:
 /uufs/chpc.utah.edu/sys/installdir/gaussian16/C01/AVX/g16/l1.exe "/scratch/general/vast/u1414944/6939696-notchpeak.peaks/Gau-2993317.inp" -scrdir="/scratch/general/vast/u1414944/6939696-notchpeak.peaks/"
 Entering Link 1 = /uufs/chpc.utah.edu/sys/installdir/gaussian16/C01/AVX/g16/l1.exe PID=   2993318.
  
 Copyright (c) 1988-2019, Gaussian, Inc.  All Rights Reserved.
  
 This is part of the Gaussian(R) 16 program.  It is based on
 the Gaussian(R) 09 system (copyright 2009, Gaussian, Inc.),
 the Gaussian(R) 03 system (copyright 2003, Gaussian, Inc.),
 the Gaussian(R) 98 system (copyright 1998, Gaussian, Inc.),
 the Gaussian(R) 94 system (copyright 1995, Gaussian, Inc.),
 the Gaussian 92(TM) system (copyright 1992, Gaussian, Inc.),
 the Gaussian 90(TM) system (copyright 1990, Gaussian, Inc.),
 the Gaussian 88(TM) system (copyright 1988, Gaussian, Inc.),
 the Gaussian 86(TM) system (copyright 1986, Carnegie Mellon
 University), and the Gaussian 82(TM) system (copyright 1983,
 Carnegie Mellon University). Gaussian is a federally registered
 trademark of Gaussian, Inc.
  
 This software contains proprietary and confidential information,
 including trade secrets, belonging to Gaussian, Inc.
  
 This software is provided under written license and may be
 used, copied, transmitted, or stored only in accord with that
 written license.
  
 The following legend is applicable only to US Government
 contracts under FAR:
  
                    RESTRICTED RIGHTS LEGEND
  
 Use, reproduction and disclosure by the US Government is
 subject to restrictions as set forth in subparagraphs (a)
 and (c) of the Commercial Computer Software - Restricted
 Rights clause in FAR 52.227-19.
  
 Gaussian, Inc.
 340 Quinnipiac St., Bldg. 40, Wallingford CT 06492
  
  
 ---------------------------------------------------------------
 Warning -- This program may not be used in any manner that
 competes with the business of Gaussian, Inc. or will provide
 assistance to any competitor of Gaussian, Inc.  The licensee
 of this program is prohibited from giving any competitor of
 Gaussian, Inc. access to this program.  By using this program,
 the user acknowledges that Gaussian, Inc. is engaged in the
 business of creating and licensing software in the field of
 computational chemistry and represents and warrants to the
 licensee that it is not a competitor of Gaussian, Inc. and that
 it will not use this program in any manner prohibited above.
 ---------------------------------------------------------------
  

 Cite this work as:
 Gaussian 16, Revision C.01,
 M. J. Frisch, G. W. Trucks, H. B. Schlegel, G. E. Scuseria, 
 M. A. Robb, J. R. Cheeseman, G. Scalmani, V. Barone, 
 G. A. Petersson, H. Nakatsuji, X. Li, M. Caricato, A. V. Marenich, 
 J. Bloino, B. G. Janesko, R. Gomperts, B. Mennucci, H. P. Hratchian, 
 J. V. Ortiz, A. F. Izmaylov, J. L. Sonnenberg, D. Williams-Young, 
 F. Ding, F. Lipparini, F. Egidi, J. Goings, B. Peng, A. Petrone, 
 T. Henderson, D. Ranasinghe, V. G. Zakrzewski, J. Gao, N. Rega, 
 G. Zheng, W. Liang, M. Hada, M. Ehara, K. Toyota, R. Fukuda, 
 J. Hasegawa, M. Ishida, T. Nakajima, Y. Honda, O. Kitao, H. Nakai, 
 T. Vreven, K. Throssell, J. A. Montgomery, Jr., J. E. Peralta, 
 F. Ogliaro, M. J. Bearpark, J. J. Heyd, E. N. Brothers, K. N. Kudin, 
 V. N. Staroverov, T. A. Keith, R. Kobayashi, J. Normand, 
 K. Raghavachari, A. P. Rendell, J. C. Burant, S. S. Iyengar, 
 J. Tomasi, M. Cossi, J. M. Millam, M. Klene, C. Adamo, R. Cammi, 
 J. W. Ochterski, R. L. Martin, K. Morokuma, O. Farkas, 
 J. B. Foresman, and D. J. Fox, Gaussian, Inc., Wallingford CT, 2019.
 
 ******************************************
 Gaussian 16:  ES64L-G16RevC.01  3-Jul-2019
                13-Oct-2025 
 ******************************************
 %NProcShared=16
 Will use up to   16 processors via shared memory.
 %Mem=40GB
 %chk=SDI-drug_3.chk
 ----------------------------------------------------------------------
 #N OPT FREQ=NORAMAN Integral(Ultrafine) pbe1pbe EmpiricalDispersion=GD
 3BJ def2SVP
 ----------------------------------------------------------------------
 1/18=20,19=15,26=4,38=1/1,3;
 2/9=110,12=2,17=6,18=5,40=1/2;
 3/5=43,7=101,11=2,25=1,30=1,71=1,74=-13,75=-5,124=41/1,2,3;
 4//1;
 5/5=2,38=5/2;
 6/7=2,8=2,9=2,10=2,28=1/1;
 7//1,2,3,16;
 1/18=20,19=15,26=4/3(2);
 2/9=110/2;
 99//99;
 2/9=110/2;
 3/5=43,7=101,11=2,25=1,30=1,71=1,74=-13,75=-5,124=41/1,2,3;
 4/5=5,16=3,69=1/1;
 5/5=2,38=5/2;
 7//1,2,3,16;
 1/18=20,19=15,26=4/3(-5);
 2/9=110/2;
 6/7=2,8=2,9=2,10=2,19=2,28=1/1;
 99/9=1/99;
 ----------
 SDI-drug_3
 ----------
 Symbolic Z-matrix:
 Charge =  0 Multiplicity = 1
 O                     0.03572  -4.43532  -1.17425 
 C                     0.34909  -3.30247  -0.87612 
 N                     1.66291  -2.93785  -0.85487 
 C                     2.27477  -1.71821  -0.5655 
 C                     3.57616  -1.72622  -0.06204 
 C                     4.1964   -0.54342   0.28408 
 C                     3.52729   0.66405   0.14623 
 Cl                    4.30731   2.10085   0.70705 
 C                     2.24139   0.69974  -0.38785 
 C                     1.41368   1.91563  -0.48763 
 C                     1.8806    3.13822  -0.96265 
 C                     1.00719   4.21329  -0.98062 
 C                    -0.28936   4.03788  -0.52357 
 C                    -0.66578   2.77281  -0.09307 
 N                     0.1556    1.74201  -0.08613 
 C                     1.64517  -0.49818  -0.76709 
 C                    -0.68454  -2.26973  -0.54223 
 C                    -0.75738  -1.64245   0.70193 
 Cl                    0.39572  -2.01242   1.92763 
 C                    -1.75488  -0.71853   0.97026 
 C                    -1.65456  -1.99008  -1.50114 
 C                    -2.65147  -1.06881  -1.24097 
 C                    -2.68645  -0.44344  -0.00889 
 S                    -4.02483   0.73729   0.29897 
 N                    -3.49297   1.53945   1.49735 
 C                    -5.3427   -0.45505   0.72521 
 N                    -4.59371   1.35823  -0.9861 
 H                     2.29221  -3.72452  -0.97386 
 H                     4.09384  -2.66353   0.07761 
 H                     5.19588  -0.55314   0.68959 
 H                     2.89139   3.24079  -1.32373 
 H                     1.33729   5.17591  -1.3443 
 H                    -0.99061   4.8576   -0.50706 
 H                    -1.6624    2.56557   0.27646 
 H                     0.66337  -0.44257  -1.20425 
 H                    -1.81236  -0.19861   1.91189 
 H                    -1.60593  -2.49886  -2.45199 
 H                    -3.39858  -0.81733  -1.97837 
 H                    -4.01222   2.37866   1.69691 
 H                    -5.00836  -1.04535   1.5698 
 H                    -5.51781  -1.07096  -0.14667 
 H                    -6.23736   0.10392   0.97249 
 H                    -4.12005   2.19316  -1.29016 
 

 GradGradGradGradGradGradGradGradGradGradGradGradGradGradGradGradGradGrad
 Berny optimization.
 Initialization pass.
                           ----------------------------
                           !    Initial Parameters    !
                           ! (Angstroms and Degrees)  !
 --------------------------                            --------------------------
 ! Name  Definition              Value          Derivative Info.                !
 --------------------------------------------------------------------------------
 ! R1    R(1,2)                  1.2126         estimate D2E/DX2                !
 ! R2    R(2,3)                  1.3636         estimate D2E/DX2                !
 ! R3    R(2,17)                 1.4988         estimate D2E/DX2                !
 ! R4    R(3,4)                  1.3949         estimate D2E/DX2                !
 ! R5    R(3,28)                 1.0144         estimate D2E/DX2                !
 ! R6    R(4,5)                  1.3954         estimate D2E/DX2                !
 ! R7    R(4,16)                 1.3876         estimate D2E/DX2                !
 ! R8    R(5,6)                  1.3797         estimate D2E/DX2                !
 ! R9    R(5,29)                 1.0798         estimate D2E/DX2                !
 ! R10   R(6,7)                  1.3873         estimate D2E/DX2                !
 ! R11   R(6,30)                 1.0787         estimate D2E/DX2                !
 ! R12   R(7,8)                  1.7284         estimate D2E/DX2                !
 ! R13   R(7,9)                  1.3929         estimate D2E/DX2                !
 ! R14   R(9,10)                 1.4743         estimate D2E/DX2                !
 ! R15   R(9,16)                 1.3908         estimate D2E/DX2                !
 ! R16   R(10,11)                1.3923         estimate D2E/DX2                !
 ! R17   R(10,15)                1.332          estimate D2E/DX2                !
 ! R18   R(11,12)                1.3853         estimate D2E/DX2                !
 ! R19   R(11,31)                1.0782         estimate D2E/DX2                !
 ! R20   R(12,13)                1.3859         estimate D2E/DX2                !
 ! R21   R(12,32)                1.0807         estimate D2E/DX2                !
 ! R22   R(13,14)                1.3883         estimate D2E/DX2                !
 ! R23   R(13,33)                1.0789         estimate D2E/DX2                !
 ! R24   R(14,15)                1.3181         estimate D2E/DX2                !
 ! R25   R(14,34)                1.0829         estimate D2E/DX2                !
 ! R26   R(16,35)                1.0762         estimate D2E/DX2                !
 ! R27   R(17,18)                1.3952         estimate D2E/DX2                !
 ! R28   R(17,21)                1.3924         estimate D2E/DX2                !
 ! R29   R(18,19)                1.723          estimate D2E/DX2                !
 ! R30   R(18,20)                1.3859         estimate D2E/DX2                !
 ! R31   R(20,23)                1.3792         estimate D2E/DX2                !
 ! R32   R(20,36)                1.0772         estimate D2E/DX2                !
 ! R33   R(21,22)                1.3821         estimate D2E/DX2                !
 ! R34   R(21,37)                1.0795         estimate D2E/DX2                !
 ! R35   R(22,23)                1.3821         estimate D2E/DX2                !
 ! R36   R(22,38)                1.0794         estimate D2E/DX2                !
 ! R37   R(23,24)                1.8111         estimate D2E/DX2                !
 ! R38   R(24,25)                1.537          estimate D2E/DX2                !
 ! R39   R(24,26)                1.8276         estimate D2E/DX2                !
 ! R40   R(24,27)                1.5364         estimate D2E/DX2                !
 ! R41   R(25,39)                1.0068         estimate D2E/DX2                !
 ! R42   R(26,40)                1.0833         estimate D2E/DX2                !
 ! R43   R(26,41)                1.0818         estimate D2E/DX2                !
 ! R44   R(26,42)                1.0835         estimate D2E/DX2                !
 ! R45   R(27,43)                1.0069         estimate D2E/DX2                !
 ! A1    A(1,2,3)              120.1731         estimate D2E/DX2                !
 ! A2    A(1,2,17)             121.3498         estimate D2E/DX2                !
 ! A3    A(3,2,17)             118.4721         estimate D2E/DX2                !
 ! A4    A(2,3,4)              131.2738         estimate D2E/DX2                !
 ! A5    A(2,3,28)             112.862          estimate D2E/DX2                !
 ! A6    A(4,3,28)             115.4858         estimate D2E/DX2                !
 ! A7    A(3,4,5)              118.6155         estimate D2E/DX2                !
 ! A8    A(3,4,16)             122.6569         estimate D2E/DX2                !
 ! A9    A(5,4,16)             118.726          estimate D2E/DX2                !
 ! A10   A(4,5,6)              120.3219         estimate D2E/DX2                !
 ! A11   A(4,5,29)             119.918          estimate D2E/DX2                !
 ! A12   A(6,5,29)             119.7473         estimate D2E/DX2                !
 ! A13   A(5,6,7)              120.292          estimate D2E/DX2                !
 ! A14   A(5,6,30)             120.2084         estimate D2E/DX2                !
 ! A15   A(7,6,30)             119.4783         estimate D2E/DX2                !
 ! A16   A(6,7,8)              118.2695         estimate D2E/DX2                !
 ! A17   A(6,7,9)              120.3752         estimate D2E/DX2                !
 ! A18   A(8,7,9)              121.3162         estimate D2E/DX2                !
 ! A19   A(7,9,10)             124.4309         estimate D2E/DX2                !
 ! A20   A(7,9,16)             118.5718         estimate D2E/DX2                !
 ! A21   A(10,9,16)            116.8224         estimate D2E/DX2                !
 ! A22   A(9,10,11)            123.9893         estimate D2E/DX2                !
 ! A23   A(9,10,15)            113.7282         estimate D2E/DX2                !
 ! A24   A(11,10,15)           122.2811         estimate D2E/DX2                !
 ! A25   A(10,11,12)           118.3252         estimate D2E/DX2                !
 ! A26   A(10,11,31)           120.8087         estimate D2E/DX2                !
 ! A27   A(12,11,31)           120.8572         estimate D2E/DX2                !
 ! A28   A(11,12,13)           119.1665         estimate D2E/DX2                !
 ! A29   A(11,12,32)           120.2033         estimate D2E/DX2                !
 ! A30   A(13,12,32)           120.6299         estimate D2E/DX2                !
 ! A31   A(12,13,14)           118.1157         estimate D2E/DX2                !
 ! A32   A(12,13,33)           121.1285         estimate D2E/DX2                !
 ! A33   A(14,13,33)           120.7548         estimate D2E/DX2                !
 ! A34   A(13,14,15)           123.0453         estimate D2E/DX2                !
 ! A35   A(13,14,34)           121.986          estimate D2E/DX2                !
 ! A36   A(15,14,34)           114.9642         estimate D2E/DX2                !
 ! A37   A(10,15,14)           119.0183         estimate D2E/DX2                !
 ! A38   A(4,16,9)             121.5451         estimate D2E/DX2                !
 ! A39   A(4,16,35)            121.2239         estimate D2E/DX2                !
 ! A40   A(9,16,35)            117.2169         estimate D2E/DX2                !
 ! A41   A(2,17,18)            122.9857         estimate D2E/DX2                !
 ! A42   A(2,17,21)            117.7376         estimate D2E/DX2                !
 ! A43   A(18,17,21)           119.1732         estimate D2E/DX2                !
 ! A44   A(17,18,19)           120.1891         estimate D2E/DX2                !
 ! A45   A(17,18,20)           120.6606         estimate D2E/DX2                !
 ! A46   A(19,18,20)           119.1502         estimate D2E/DX2                !
 ! A47   A(18,20,23)           118.7943         estimate D2E/DX2                !
 ! A48   A(18,20,36)           121.9678         estimate D2E/DX2                !
 ! A49   A(23,20,36)           119.2288         estimate D2E/DX2                !
 ! A50   A(17,21,22)           120.4469         estimate D2E/DX2                !
 ! A51   A(17,21,37)           118.7228         estimate D2E/DX2                !
 ! A52   A(22,21,37)           120.8276         estimate D2E/DX2                !
 ! A53   A(21,22,23)           119.1864         estimate D2E/DX2                !
 ! A54   A(21,22,38)           121.7303         estimate D2E/DX2                !
 ! A55   A(23,22,38)           119.0806         estimate D2E/DX2                !
 ! A56   A(20,23,22)           121.7029         estimate D2E/DX2                !
 ! A57   A(20,23,24)           120.5628         estimate D2E/DX2                !
 ! A58   A(22,23,24)           117.7236         estimate D2E/DX2                !
 ! A59   A(23,24,25)           102.5366         estimate D2E/DX2                !
 ! A60   A(23,24,26)            98.464          estimate D2E/DX2                !
 ! A61   A(23,24,27)           113.261          estimate D2E/DX2                !
 ! A62   A(25,24,26)           114.0897         estimate D2E/DX2                !
 ! A63   A(25,24,27)           124.7029         estimate D2E/DX2                !
 ! A64   A(26,24,27)           101.0547         estimate D2E/DX2                !
 ! A65   A(24,25,39)           114.2729         estimate D2E/DX2                !
 ! A66   A(24,26,40)           108.3477         estimate D2E/DX2                !
 ! A67   A(24,26,41)           107.4699         estimate D2E/DX2                !
 ! A68   A(24,26,42)           108.184          estimate D2E/DX2                !
 ! A69   A(40,26,41)           111.5983         estimate D2E/DX2                !
 ! A70   A(40,26,42)           110.9781         estimate D2E/DX2                !
 ! A71   A(41,26,42)           110.1205         estimate D2E/DX2                !
 ! A72   A(24,27,43)           114.4254         estimate D2E/DX2                !
 ! D1    D(1,2,3,4)            179.2278         estimate D2E/DX2                !
 ! D2    D(1,2,3,28)            -8.2901         estimate D2E/DX2                !
 ! D3    D(17,2,3,4)             0.0289         estimate D2E/DX2                !
 ! D4    D(17,2,3,28)          172.511          estimate D2E/DX2                !
 ! D5    D(1,2,17,18)          118.5636         estimate D2E/DX2                !
 ! D6    D(1,2,17,21)          -57.7028         estimate D2E/DX2                !
 ! D7    D(3,2,17,18)          -62.2474         estimate D2E/DX2                !
 ! D8    D(3,2,17,21)          121.4862         estimate D2E/DX2                !
 ! D9    D(2,3,4,5)            152.7812         estimate D2E/DX2                !
 ! D10   D(2,3,4,16)           -27.6926         estimate D2E/DX2                !
 ! D11   D(28,3,4,5)           -19.5438         estimate D2E/DX2                !
 ! D12   D(28,3,4,16)          159.9823         estimate D2E/DX2                !
 ! D13   D(3,4,5,6)           -177.5294         estimate D2E/DX2                !
 ! D14   D(3,4,5,29)             1.1643         estimate D2E/DX2                !
 ! D15   D(16,4,5,6)             2.9255         estimate D2E/DX2                !
 ! D16   D(16,4,5,29)         -178.3808         estimate D2E/DX2                !
 ! D17   D(3,4,16,9)           175.643          estimate D2E/DX2                !
 ! D18   D(3,4,16,35)           -2.9542         estimate D2E/DX2                !
 ! D19   D(5,4,16,9)            -4.8314         estimate D2E/DX2                !
 ! D20   D(5,4,16,35)          176.5714         estimate D2E/DX2                !
 ! D21   D(4,5,6,7)              0.5927         estimate D2E/DX2                !
 ! D22   D(4,5,6,30)           178.9053         estimate D2E/DX2                !
 ! D23   D(29,5,6,7)          -178.1033         estimate D2E/DX2                !
 ! D24   D(29,5,6,30)            0.2094         estimate D2E/DX2                !
 ! D25   D(5,6,7,8)            175.423          estimate D2E/DX2                !
 ! D26   D(5,6,7,9)             -2.3319         estimate D2E/DX2                !
 ! D27   D(30,6,7,8)            -2.902          estimate D2E/DX2                !
 ! D28   D(30,6,7,9)           179.3432         estimate D2E/DX2                !
 ! D29   D(6,7,9,10)           175.5247         estimate D2E/DX2                !
 ! D30   D(6,7,9,16)             0.4933         estimate D2E/DX2                !
 ! D31   D(8,7,9,10)            -2.1607         estimate D2E/DX2                !
 ! D32   D(8,7,9,16)          -177.192          estimate D2E/DX2                !
 ! D33   D(7,9,10,11)           46.3122         estimate D2E/DX2                !
 ! D34   D(7,9,10,15)         -134.1088         estimate D2E/DX2                !
 ! D35   D(16,9,10,11)        -138.5773         estimate D2E/DX2                !
 ! D36   D(16,9,10,15)          41.0017         estimate D2E/DX2                !
 ! D37   D(7,9,16,4)             3.1327         estimate D2E/DX2                !
 ! D38   D(7,9,16,35)         -178.2163         estimate D2E/DX2                !
 ! D39   D(10,9,16,4)         -172.2759         estimate D2E/DX2                !
 ! D40   D(10,9,16,35)           6.3752         estimate D2E/DX2                !
 ! D41   D(9,10,11,12)        -178.7162         estimate D2E/DX2                !
 ! D42   D(9,10,11,31)           2.356          estimate D2E/DX2                !
 ! D43   D(15,10,11,12)          1.7397         estimate D2E/DX2                !
 ! D44   D(15,10,11,31)       -177.1881         estimate D2E/DX2                !
 ! D45   D(9,10,15,14)         177.9644         estimate D2E/DX2                !
 ! D46   D(11,10,15,14)         -2.4485         estimate D2E/DX2                !
 ! D47   D(10,11,12,13)          0.2675         estimate D2E/DX2                !
 ! D48   D(10,11,12,32)       -179.923          estimate D2E/DX2                !
 ! D49   D(31,11,12,13)        179.1949         estimate D2E/DX2                !
 ! D50   D(31,11,12,32)         -0.9957         estimate D2E/DX2                !
 ! D51   D(11,12,13,14)         -1.458          estimate D2E/DX2                !
 ! D52   D(11,12,13,33)        178.9081         estimate D2E/DX2                !
 ! D53   D(32,12,13,14)        178.7333         estimate D2E/DX2                !
 ! D54   D(32,12,13,33)         -0.9005         estimate D2E/DX2                !
 ! D55   D(12,13,14,15)          0.7889         estimate D2E/DX2                !
 ! D56   D(12,13,14,34)        179.9738         estimate D2E/DX2                !
 ! D57   D(33,13,14,15)       -179.5758         estimate D2E/DX2                !
 ! D58   D(33,13,14,34)         -0.3909         estimate D2E/DX2                !
 ! D59   D(13,14,15,10)          1.1573         estimate D2E/DX2                !
 ! D60   D(34,14,15,10)       -178.0802         estimate D2E/DX2                !
 ! D61   D(2,17,18,19)           1.5532         estimate D2E/DX2                !
 ! D62   D(2,17,18,20)        -178.3325         estimate D2E/DX2                !
 ! D63   D(21,17,18,19)        177.7684         estimate D2E/DX2                !
 ! D64   D(21,17,18,20)         -2.1173         estimate D2E/DX2                !
 ! D65   D(2,17,21,22)         178.5875         estimate D2E/DX2                !
 ! D66   D(2,17,21,37)          -2.0094         estimate D2E/DX2                !
 ! D67   D(18,17,21,22)          2.1741         estimate D2E/DX2                !
 ! D68   D(18,17,21,37)       -178.4228         estimate D2E/DX2                !
 ! D69   D(17,18,20,23)          0.891          estimate D2E/DX2                !
 ! D70   D(17,18,20,36)       -178.0064         estimate D2E/DX2                !
 ! D71   D(19,18,20,23)       -178.9958         estimate D2E/DX2                !
 ! D72   D(19,18,20,36)          2.1067         estimate D2E/DX2                !
 ! D73   D(18,20,23,22)          0.306          estimate D2E/DX2                !
 ! D74   D(18,20,23,24)        179.0854         estimate D2E/DX2                !
 ! D75   D(36,20,23,22)        179.2342         estimate D2E/DX2                !
 ! D76   D(36,20,23,24)         -1.9864         estimate D2E/DX2                !
 ! D77   D(17,21,22,23)         -1.0119         estimate D2E/DX2                !
 ! D78   D(17,21,22,38)        178.3861         estimate D2E/DX2                !
 ! D79   D(37,21,22,23)        179.5976         estimate D2E/DX2                !
 ! D80   D(37,21,22,38)         -1.0043         estimate D2E/DX2                !
 ! D81   D(21,22,23,20)         -0.2468         estimate D2E/DX2                !
 ! D82   D(21,22,23,24)       -179.0594         estimate D2E/DX2                !
 ! D83   D(38,22,23,20)       -179.6609         estimate D2E/DX2                !
 ! D84   D(38,22,23,24)          1.5264         estimate D2E/DX2                !
 ! D85   D(20,23,24,25)         19.2558         estimate D2E/DX2                !
 ! D86   D(20,23,24,26)        -97.8625         estimate D2E/DX2                !
 ! D87   D(20,23,24,27)        156.1769         estimate D2E/DX2                !
 ! D88   D(22,23,24,25)       -161.9174         estimate D2E/DX2                !
 ! D89   D(22,23,24,26)         80.9643         estimate D2E/DX2                !
 ! D90   D(22,23,24,27)        -24.9962         estimate D2E/DX2                !
 ! D91   D(23,24,25,39)        167.5587         estimate D2E/DX2                !
 ! D92   D(26,24,25,39)        -87.0988         estimate D2E/DX2                !
 ! D93   D(27,24,25,39)         37.311          estimate D2E/DX2                !
 ! D94   D(23,24,26,40)         58.028          estimate D2E/DX2                !
 ! D95   D(23,24,26,41)        -62.6985         estimate D2E/DX2                !
 ! D96   D(23,24,26,42)        178.4224         estimate D2E/DX2                !
 ! D97   D(25,24,26,40)        -49.8459         estimate D2E/DX2                !
 ! D98   D(25,24,26,41)       -170.5723         estimate D2E/DX2                !
 ! D99   D(25,24,26,42)         70.5485         estimate D2E/DX2                !
 ! D100  D(27,24,26,40)        173.8699         estimate D2E/DX2                !
 ! D101  D(27,24,26,41)         53.1435         estimate D2E/DX2                !
 ! D102  D(27,24,26,42)        -65.7357         estimate D2E/DX2                !
 ! D103  D(23,24,27,43)        -88.5152         estimate D2E/DX2                !
 ! D104  D(25,24,27,43)         37.293          estimate D2E/DX2                !
 ! D105  D(26,24,27,43)        167.1717         estimate D2E/DX2                !
 --------------------------------------------------------------------------------
 Trust Radius=3.00D-01 FncErr=1.00D-07 GrdErr=1.00D-06 EigMax=2.50D+02 EigMin=1.00D-04
 Number of steps in this run=    232 maximum allowed number of steps=    258.
 GradGradGradGradGradGradGradGradGradGradGradGradGradGradGradGradGradGrad

                          Input orientation:                          
 ---------------------------------------------------------------------
 Center     Atomic      Atomic             Coordinates (Angstroms)
 Number     Number       Type             X           Y           Z
 ---------------------------------------------------------------------
      1          8           0        0.035717   -4.435315   -1.174254
      2          6           0        0.349093   -3.302465   -0.876117
      3          7           0        1.662908   -2.937849   -0.854872
      4          6           0        2.274773   -1.718207   -0.565500
      5          6           0        3.576157   -1.726223   -0.062041
      6          6           0        4.196403   -0.543420    0.284083
      7          6           0        3.527293    0.664054    0.146235
      8         17           0        4.307309    2.100850    0.707049
      9          6           0        2.241394    0.699740   -0.387851
     10          6           0        1.413681    1.915628   -0.487634
     11          6           0        1.880603    3.138225   -0.962653
     12          6           0        1.007191    4.213294   -0.980620
     13          6           0       -0.289357    4.037879   -0.523570
     14          6           0       -0.665778    2.772811   -0.093072
     15          7           0        0.155604    1.742015   -0.086131
     16          6           0        1.645173   -0.498179   -0.767088
     17          6           0       -0.684541   -2.269729   -0.542228
     18          6           0       -0.757383   -1.642452    0.701930
     19         17           0        0.395718   -2.012418    1.927626
     20          6           0       -1.754884   -0.718527    0.970258
     21          6           0       -1.654560   -1.990076   -1.501143
     22          6           0       -2.651473   -1.068807   -1.240968
     23          6           0       -2.686453   -0.443442   -0.008894
     24         16           0       -4.024828    0.737290    0.298968
     25          7           0       -3.492969    1.539455    1.497345
     26          6           0       -5.342697   -0.455051    0.725215
     27          7           0       -4.593711    1.358231   -0.986099
     28          1           0        2.292215   -3.724525   -0.973860
     29          1           0        4.093842   -2.663527    0.077612
     30          1           0        5.195883   -0.553139    0.689592
     31          1           0        2.891392    3.240787   -1.323726
     32          1           0        1.337289    5.175915   -1.344301
     33          1           0       -0.990613    4.857605   -0.507062
     34          1           0       -1.662400    2.565573    0.276462
     35          1           0        0.663373   -0.442571   -1.204247
     36          1           0       -1.812357   -0.198605    1.911892
     37          1           0       -1.605931   -2.498858   -2.451990
     38          1           0       -3.398580   -0.817330   -1.978368
     39          1           0       -4.012223    2.378658    1.696911
     40          1           0       -5.008359   -1.045348    1.569805
     41          1           0       -5.517811   -1.070958   -0.146671
     42          1           0       -6.237364    0.103916    0.972491
     43          1           0       -4.120051    2.193159   -1.290164
 ---------------------------------------------------------------------
                    Distance matrix (angstroms):
                    1          2          3          4          5
     1  O    0.000000
     2  C    1.212616   0.000000
     3  N    2.234314   1.363638   0.000000
     4  C    3.573042   2.512887   1.394862   0.000000
     5  C    4.594661   3.682554   2.399404   1.395398   0.000000
     6  C    5.880893   4.874443   3.667302   2.407193   1.379685
     7  C    6.319680   5.184538   4.177541   2.783979   2.399831
     8  Cl   8.031640   6.882565   5.900926   4.509521   3.971469
     9  C    5.643778   4.453859   3.712790   2.424694   2.788017
    10  C    6.534884   5.339734   4.873726   3.735277   4.256819
    11  C    7.797877   6.620838   6.080927   4.888561   5.229613
    12  C    8.705154   7.545241   7.182244   6.079621   6.536148
    13  C    8.504357   7.376487   7.251336   6.301511   6.955579
    14  C    7.322440   6.209034   6.214077   5.388810   6.183549
    15  N    6.273579   5.109628   4.976349   4.085806   4.871287
    16  C    4.272842   3.091236   2.441313   1.387625   2.394552
    17  C    2.368120   1.498808   2.460620   3.010359   4.321982
    18  C    3.456755   2.543652   3.155866   3.287261   4.401163
    19  Cl   3.952429   3.086644   3.194447   3.135775   3.762430
    20  C    4.649699   3.809535   4.465176   4.426743   5.522780
    21  C    2.990500   2.475409   3.510204   4.048333   5.431485
    22  C    4.307995   3.758423   4.717655   5.014566   6.372239
    23  C    4.970245   4.259182   5.084751   5.152534   6.392859
    24  S    6.739011   6.068907   6.869377   6.816286   7.998387
    25  N    7.435520   6.621099   7.222343   6.937906   7.941592
    26  C    6.955417   6.562659   7.598649   7.828624   9.043318
    27  N    7.418369   6.794520   7.590706   7.537735   8.781486
    28  H    2.374270   1.990832   1.014418   2.047528   2.544235
    29  H    4.601606   3.916758   2.618056   2.148542   1.079833
    30  H    6.721050   5.788058   4.533665   3.386078   2.136490
    31  H    8.191445   7.034045   6.317003   5.054379   5.170294
    32  H    9.700451   8.548606   8.135030   7.001023   7.368597
    33  H    9.373199   8.277545   8.242041   7.342170   8.024975
    34  H    7.348511   6.309391   6.528801   5.878861   6.780603
    35  H    4.041888   2.895762   2.710635   2.152175   3.381820
    36  H    5.557822   4.698809   5.218803   5.015107   5.938528
    37  H    2.842092   2.636528   3.664534   4.384988   5.758720
    38  H    5.052803   4.629893   5.601563   5.915632   7.290086
    39  H    8.429688   7.610303   8.184372   7.837673   8.804968
    40  H    6.668166   6.307091   7.346184   7.619467   8.764726
    41  H    6.573926   6.319199   7.453158   7.830627   9.117938
    42  H    8.035215   7.642133   8.660594   8.839798  10.036178
    43  H    7.824354   7.095531   7.743341   7.531115   8.723615
                    6          7          8          9         10
     6  C    0.000000
     7  C    1.387336   0.000000
     8  Cl   2.680179   1.728386   0.000000
     9  C    2.412260   1.392859   2.725787   0.000000
    10  C    3.792888   2.536845   3.136025   1.474262   0.000000
    11  C    4.524575   3.172182   3.122971   2.531161   1.392265
    12  C    5.864884   4.496423   4.266312   3.770901   2.384857
    13  C    6.462402   5.137913   5.137688   4.191216   2.721320
    14  C    5.897493   4.699571   5.081664   3.582760   2.283548
    15  N    4.657072   3.547433   4.241998   2.351147   1.331955
    16  C    2.759670   2.393181   4.001873   1.390795   2.440931
    17  C    5.242762   5.178862   6.751386   4.171652   4.682172
    18  C    5.091410   4.897674   6.297891   3.958049   4.334572
    19  Cl   4.393676   4.488164   5.805973   4.015440   4.722211
    20  C    5.993272   5.521951   6.690915   4.452660   4.370815
    21  C    6.285985   6.050608   7.560136   4.863434   5.069105
    22  C    7.035283   6.565385   7.890889   5.272164   5.099003
    23  C    6.889814   6.313577   7.476543   5.072884   4.754525
    24  S    8.320401   7.554020   8.452830   6.303862   5.620018
    25  N    8.058338   7.202493   7.860284   6.094424   5.306304
    26  C    9.549702   8.959036   9.982763   7.751831   7.262214
    27  N    9.082717   8.228899   9.091006   6.892763   6.053753
    28  H    3.915071   4.694641   6.389135   4.463195   5.728835
    29  H    2.132605   3.376163   4.810513   3.867787   5.335861
    30  H    1.078653   2.135647   2.798844   3.385202   4.667518
    31  H    4.313736   3.033926   2.725495   2.784830   2.153770
    32  H    6.598253   5.232084   4.741843   4.665656   3.371822
    33  H    7.530080   6.198721   6.094402   5.267629   3.799505
    34  H    6.632606   5.528621   6.003232   4.377471   3.235514
    35  H    3.835048   3.354170   4.837386   2.112233   2.576353
    36  H    6.234890   5.689779   6.647515   4.746445   4.542580
    37  H    6.706483   6.565422   8.130390   5.412357   5.697757
    38  H    7.929531   7.394332   8.666484   6.053144   5.731422
    39  H    8.827013   7.885985   8.382816   6.802406   5.867459
    40  H    9.307666   8.820769   9.870389   7.709518   7.364987
    41  H    9.738059   9.214661  10.359642   7.962337   7.555232
    42  H   10.476471   9.815548  10.735377   8.607838   7.997047
    43  H    8.895534   7.929898   8.661280   6.596397   5.598506
                   11         12         13         14         15
    11  C    0.000000
    12  C    1.385260   0.000000
    13  C    2.389749   1.385894   0.000000
    14  C    2.715466   2.379404   1.388315   0.000000
    15  N    2.386067   2.762704   2.379146   1.318050   0.000000
    16  C    3.649260   4.759264   4.937360   4.061301   2.775065
    17  C    6.000224   6.714443   6.320003   5.062539   4.124071
    18  C    5.708299   6.343064   5.829842   4.487200   3.592937
    19  Cl   6.089969   6.898644   6.563824   5.301737   4.267158
    20  C    5.641582   5.979787   5.196411   3.808709   3.289405
    21  C    6.251945   6.770352   6.257449   5.064133   4.382631
    22  C    6.190015   6.430723   5.672080   4.474223   4.136913
    23  C    5.881836   6.022662   5.108151   3.799276   3.586011
    24  S    6.498484   6.248294   5.052148   3.947184   4.316687
    25  N    6.122331   5.791474   4.537549   3.470389   3.982526
    26  C    8.242365   8.063771   6.876200   5.741276   5.976344
    27  N    6.714587   6.286615   5.091357   4.269332   4.849044
    28  H    6.875091   8.041163   8.192813   7.193113   5.936011
    29  H    6.296101   7.611697   8.030111   7.227508   5.911457
    30  H    5.229451   6.561527   7.255141   6.784805   5.592306
    31  H    1.078233   2.147954   3.375318   3.793016   3.355964
    32  H    2.143135   1.080679   2.148186   3.369386   3.843311
    33  H    3.377531   2.151887   1.078880   2.150179   3.346326
    34  H    3.796868   3.379639   2.166329   1.082940   2.028512
    35  H    3.789738   4.673896   4.630923   3.652401   2.506078
    36  H    5.747643   5.981751   5.118477   3.763487   3.410421
    37  H    6.793434   7.351620   6.941261   5.851399   5.165781
    38  H    6.674419   6.761176   5.946155   4.889955   4.771062
    39  H    6.509656   5.977423   4.641474   3.815506   4.577700
    40  H    8.448279   8.387183   7.245026   6.016769   6.097379
    41  H    8.550999   8.437680   7.319768   6.190287   6.332781
    42  H    8.879933   8.554836   7.286498   6.269051   6.683868
    43  H    6.083442   5.519546   4.320287   3.701490   4.464802
                   16         17         18         19         20
    16  C    0.000000
    17  C    2.935392   0.000000
    18  C    3.039679   1.395246   0.000000
    19  Cl   3.333998   2.708016   1.723035   0.000000
    20  C    3.824567   2.416501   1.385874   2.686224   0.000000
    21  C    3.694975   1.392358   2.404017   3.995072   2.781137
    22  C    4.360200   2.408168   2.773355   4.496194   2.411656
    23  C    4.397823   2.761779   2.379960   3.963783   1.379214
    24  S    5.900151   4.572449   4.062235   5.454783   2.778971
    25  N    5.973284   5.153349   4.270908   5.284206   2.897800
    26  C    7.145569   5.157313   4.736620   6.066349   3.605810
    27  N    6.512903   5.351704   5.154703   6.689206   4.024823
    28  H    3.297078   3.341229   4.055039   3.866087   5.403205
    29  H    3.376126   4.834483   4.996673   4.186002   6.227956
    30  H    3.838291   6.248476   6.052118   5.167572   6.958397
    31  H    3.980298   6.615424   6.423617   6.663020   6.521228
    32  H    5.711681   7.756851   7.420568   7.953879   7.047209
    33  H    5.974897   7.133990   6.615648   7.419356   5.818920
    34  H    4.627701   5.000661   4.325223   5.283957   3.357859
    35  H    1.076166   2.365090   2.663038   3.513501   3.263831
    36  H    4.384198   3.403561   2.159091   2.857580   1.077170
    37  H    4.172684   2.132757   3.376489   4.839862   3.860511
    38  H    5.196971   3.396758   3.852369   5.575099   3.377261
    39  H    6.808349   6.139602   5.268140   6.226132   3.900789
    40  H    7.073186   4.965399   4.379559   5.501574   3.324359
    41  H    7.212582   4.995400   4.869128   6.337104   3.940984
    42  H    8.094631   6.225946   5.757882   7.027726   4.557307
    43  H    6.383942   5.681506   5.476120   6.959398   4.379661
                   21         22         23         24         25
    21  C    0.000000
    22  C    1.382123   0.000000
    23  C    2.384049   1.382140   0.000000
    24  S    4.036966   2.742170   1.811120   0.000000
    25  N    4.982797   3.874210   2.617461   1.537026   0.000000
    26  C    4.573327   3.388991   2.755844   1.827605   2.827672
    27  N    4.484980   3.118936   2.799748   1.536422   2.722494
    28  H    4.343198   5.618205   6.040182   7.837915   8.202725
    29  H    5.999177   7.055569   7.135031   8.804962   8.788652
    30  H    7.334349   8.097775   7.913984   9.318761   8.973715
    31  H    6.932466   7.021595   6.812833   7.532246   7.184222
    32  H    7.767058   7.410631   7.039246   7.152204   6.680583
    33  H    6.951241   6.198340   5.587946   5.180071   4.614060
    34  H    4.890182   4.060736   3.191283   2.987338   2.427850
    35  H    2.802808   3.373681   3.556713   5.062703   5.338746
    36  H    3.857858   3.376668   2.124478   2.893519   2.452990
    37  H    1.079507   2.145875   3.370606   4.887892   5.955345
    38  H    2.155153   1.079430   2.127380   2.827594   4.200467
    39  H    5.905248   4.729459   3.554107   2.156035   1.006833
    40  H    4.644480   3.668229   2.871554   2.400033   2.997143
    41  H    4.195721   3.068124   2.903334   2.386913   3.690126
    42  H    5.612999   4.374162   3.724471   2.397939   3.141329
    43  H    4.860310   3.577647   3.263207   2.157304   2.931001
                   26         27         28         29         30
    26  C    0.000000
    27  N    2.603376   0.000000
    28  H    8.477511   8.558653   0.000000
    29  H    9.713136   9.632217   2.340336   0.000000
    30  H   10.539096  10.114219   4.610428   2.458200   0.000000
    31  H    9.255139   7.725593   6.999785   6.186320   4.874218
    32  H    8.978467   7.062562   8.959181   8.430733   7.200523
    33  H    6.977352   5.045533   9.200424   9.097304   8.305472
    34  H    4.782272   3.412377   7.534429   7.779290   7.545402
    35  H    6.308395   5.561242   3.671161   4.282981   4.913502
    36  H    3.733264   4.307903   6.132469   6.657597   7.122860
    37  H    5.313680   5.094389   4.345419   6.238062   7.740803
    38  H    3.349656   2.673201   6.468845   7.985730   9.002922
    39  H    3.277843   2.928812   9.172120   9.682667   9.715932
    40  H    1.083312   3.532955   8.182090   9.364571  10.253955
    41  H    1.081754   2.731220   8.289883   9.745278  10.758751
    42  H    1.083522   2.847978   9.549814  10.732817  11.455605
    43  H    3.545367   1.006932   8.731333   9.639826   9.912024
                   31         32         33         34         35
    31  H    0.000000
    32  H    2.482011   0.000000
    33  H    4.283807   2.494277   0.000000
    34  H    4.873760   4.294053   2.513686   0.000000
    35  H    4.306445   5.660491   5.595855   4.080521   0.000000
    36  H    6.665126   7.029120   5.664968   3.215245   3.987365
    37  H    7.378510   8.294073   7.634062   5.752921   3.306799
    38  H    7.514028   7.664821   6.337817   4.420702   4.152008
    39  H    7.584683   6.759504   4.486959   2.752141   6.183627
    40  H    9.441903   9.352186   7.436431   5.089885   6.342495
    41  H    9.523198   9.351478   7.468150   5.316728   6.302410
    42  H    9.922034   9.405747   7.232913   5.241613   7.256515
    43  H    7.089358   6.219512   4.184006   2.938207   5.462197
                   36         37         38         39         40
    36  H    0.000000
    37  H    4.937331   0.000000
    38  H    4.246533   2.503087   0.000000
    39  H    3.395278   6.840598   4.909029   0.000000
    40  H    3.323917   5.464800   3.902936   3.568229   0.000000
    41  H    4.327710   4.759853   2.812575   4.191114   1.790667
    42  H    4.533727   6.320734   4.197018   3.263508   1.785510
    43  H    4.615100   5.448455   3.171307   2.994771   4.410945
                   41         42         43
    41  H    0.000000
    42  H    1.774995   0.000000
    43  H    3.730384   3.737319   0.000000
 Stoichiometry    C19H16Cl2N4OS
 Framework group  C1[X(C19H16Cl2N4OS)]
 Deg. of freedom   123
 Full point group                 C1      NOp   1
 Largest Abelian subgroup         C1      NOp   1
 Largest concise Abelian subgroup C1      NOp   1
                         Standard orientation:                         
 ---------------------------------------------------------------------
 Center     Atomic      Atomic             Coordinates (Angstroms)
 Number     Number       Type             X           Y           Z
 ---------------------------------------------------------------------
      1          8           0       -0.173049   -4.460104   -1.115345
      2          6           0        0.207097   -3.346022   -0.824229
      3          7           0        1.540726   -3.063235   -0.793022
      4          6           0        2.224237   -1.881090   -0.508442
      5          6           0        3.517782   -1.964821    0.008149
      6          6           0        4.206835   -0.819418    0.349890
      7          6           0        3.615196    0.425780    0.194497
      8         17           0        4.477410    1.816842    0.750241
      9          6           0        2.339112    0.535876   -0.352810
     10          6           0        1.589342    1.799652   -0.471814
     11          6           0        2.135638    2.986405   -0.953042
     12          6           0        1.330754    4.113252   -0.989437
     13          6           0        0.021544    4.022801   -0.543913
     14          6           0       -0.436639    2.787633   -0.105910
     15          7           0        0.319167    1.708088   -0.081462
     16          6           0        1.673414   -0.626417   -0.727284
     17          6           0       -0.763660   -2.248144   -0.510033
     18          6           0       -0.809292   -1.605687    0.727657
     19         17           0        0.306968   -2.034571    1.968170
     20          6           0       -1.750109   -0.619269    0.977637
     21          6           0       -1.705329   -1.918175   -1.481136
     22          6           0       -2.645646   -0.934522   -1.239279
     23          6           0       -2.653495   -0.296434   -0.013272
     24         16           0       -3.918973    0.967763    0.270503
     25          7           0       -3.349819    1.746899    1.466941
     26          6           0       -5.312202   -0.136591    0.694123
     27          7           0       -4.436044    1.610402   -1.025740
     28          1           0        2.121162   -3.888455   -0.898613
     29          1           0        3.975023   -2.930990    0.161402
     30          1           0        5.199895   -0.887101    0.765515
     31          1           0        3.154224    3.022750   -1.304822
     32          1           0        1.723323    5.050072   -1.358385
     33          1           0       -0.627679    4.884479   -0.541814
     34          1           0       -1.447655    2.646022    0.255410
     35          1           0        0.701144   -0.514333   -1.174789
     36          1           0       -1.784184   -0.087803    1.913948
     37          1           0       -1.679302   -2.438064   -2.426849
     38          1           0       -3.368692   -0.644352   -1.986389
     39          1           0       -3.817929    2.618502    1.653739
     40          1           0       -5.023132   -0.738344    1.547292
     41          1           0       -5.516869   -0.748792   -0.173929
     42          1           0       -6.172810    0.479018    0.927358
     43          1           0       -3.908676    2.411465   -1.332488
 ---------------------------------------------------------------------
 Rotational constants (GHZ):           0.2122607           0.1392818           0.0962991
 Standard basis: def2SVP (5D, 7F)
 There are   497 symmetry adapted cartesian basis functions of A   symmetry.
 There are   470 symmetry adapted basis functions of A   symmetry.
   470 basis functions,   823 primitive gaussians,   497 cartesian basis functions
   108 alpha electrons      108 beta electrons
       nuclear repulsion energy      3008.9328459810 Hartrees.
 NAtoms=   43 NActive=   43 NUniq=   43 SFac= 1.00D+00 NAtFMM=   60 NAOKFM=F Big=F
 Integral buffers will be    131072 words long.
 Raffenetti 2 integral format.
 Two-electron integral symmetry is turned on.
 Nuclear repulsion after empirical dispersion term =     3008.8652923664 Hartrees.
 One-electron integrals computed using PRISM.
   1 Symmetry operations used in ECPInt.
 ECPInt:  NShTT=   23436 NPrTT=   89682 LenC2=   20629 LenP2D=   52146.
 LDataN:  DoStor=T MaxTD1= 4 Len=   56
 NBasis=   470 RedAO= T EigKep=  1.85D-04  NBF=   470
 NBsUse=   470 1.00D-06 EigRej= -1.00D+00 NBFU=   470
 ExpMin= 1.22D-01 ExpMax= 1.04D+04 ExpMxC= 1.57D+03 IAcc=3 IRadAn=         5 AccDes= 0.00D+00
 Harris functional with IExCor= 1009 and IRadAn=       5 diagonalized for initial guess.
 HarFok:  IExCor= 1009 AccDes= 0.00D+00 IRadAn=         5 IDoV= 1 UseB2=F ITyADJ=14
 ICtDFT=  3500011 ScaDFX=  1.000000  1.000000  1.000000  1.000000
 FoFCou: FMM=F IPFlag=           0 FMFlag=      100000 FMFlg1=           0
         NFxFlg=           0 DoJE=T BraDBF=F KetDBF=T FulRan=T
         wScrn=  0.000000 ICntrl=       500 IOpCl=  0 I1Cent=   200000004 NGrid=           0
         NMat0=    1 NMatS0=      1 NMatT0=    0 NMatD0=    1 NMtDS0=    0 NMtDT0=    0
 Petite list used in FoFCou.
 Requested convergence on RMS density matrix=1.00D-08 within 128 cycles.
 Requested convergence on MAX density matrix=1.00D-06.
 Requested convergence on             energy=1.00D-06.
 No special actions if energy rises.
 Integral accuracy reduced to 1.0D-05 until final iterations.
 Initial convergence to 1.0D-05 achieved.  Increase integral accuracy.
 SCF Done:  E(RPBE1PBE) =  -2343.65102991     A.U. after   16 cycles
            NFock= 16  Conv=0.23D-08     -V/T= 2.0051

 **********************************************************************

            Population analysis using the SCF Density.

 **********************************************************************

 Orbital symmetries:
       Occupied  (A) (A) (A) (A) (A) (A) (A) (A) (A) (A) (A) (A)
                 (A) (A) (A) (A) (A) (A) (A) (A) (A) (A) (A) (A)
                 (A) (A) (A) (A) (A) (A) (A) (A) (A) (A) (A) (A)
                 (A) (A) (A) (A) (A) (A) (A) (A) (A) (A) (A) (A)
                 (A) (A) (A) (A) (A) (A) (A) (A) (A) (A) (A) (A)
                 (A) (A) (A) (A) (A) (A) (A) (A) (A) (A) (A) (A)
                 (A) (A) (A) (A) (A) (A) (A) (A) (A) (A) (A) (A)
                 (A) (A) (A) (A) (A) (A) (A) (A) (A) (A) (A) (A)
                 (A) (A) (A) (A) (A) (A) (A) (A) (A) (A) (A) (A)
       Virtual   (A) (A) (A) (A) (A) (A) (A) (A) (A) (A) (A) (A)
                 (A) (A) (A) (A) (A) (A) (A) (A) (A) (A) (A) (A)
                 (A) (A) (A) (A) (A) (A) (A) (A) (A) (A) (A) (A)
                 (A) (A) (A) (A) (A) (A) (A) (A) (A) (A) (A) (A)
                 (A) (A) (A) (A) (A) (A) (A) (A) (A) (A) (A) (A)
                 (A) (A) (A) (A) (A) (A) (A) (A) (A) (A) (A) (A)
                 (A) (A) (A) (A) (A) (A) (A) (A) (A) (A) (A) (A)
                 (A) (A) (A) (A) (A) (A) (A) (A) (A) (A) (A) (A)
                 (A) (A) (A) (A) (A) (A) (A) (A) (A) (A) (A) (A)
                 (A) (A) (A) (A) (A) (A) (A) (A) (A) (A) (A) (A)
                 (A) (A) (A) (A) (A) (A) (A) (A) (A) (A) (A) (A)
                 (A) (A) (A) (A) (A) (A) (A) (A) (A) (A) (A) (A)
                 (A) (A) (A) (A) (A) (A) (A) (A) (A) (A) (A) (A)
                 (A) (A) (A) (A) (A) (A) (A) (A) (A) (A) (A) (A)
                 (A) (A) (A) (A) (A) (A) (A) (A) (A) (A) (A) (A)
                 (A) (A) (A) (A) (A) (A) (A) (A) (A) (A) (A) (A)
                 (A) (A) (A) (A) (A) (A) (A) (A) (A) (A) (A) (A)
                 (A) (A) (A) (A) (A) (A) (A) (A) (A) (A) (A) (A)
                 (A) (A) (A) (A) (A) (A) (A) (A) (A) (A) (A) (A)
                 (A) (A) (A) (A) (A) (A) (A) (A) (A) (A) (A) (A)
                 (A) (A) (A) (A) (A) (A) (A) (A) (A) (A) (A) (A)
                 (A) (A) (A) (A) (A) (A) (A) (A) (A) (A) (A) (A)
                 (A) (A) (A) (A) (A) (A) (A) (A) (A) (A) (A) (A)
                 (A) (A) (A) (A) (A) (A) (A) (A) (A) (A) (A) (A)
                 (A) (A) (A) (A) (A) (A) (A) (A) (A) (A) (A) (A)
                 (A) (A) (A) (A) (A) (A) (A) (A) (A) (A) (A) (A)
                 (A) (A) (A) (A) (A) (A) (A) (A) (A) (A) (A) (A)
                 (A) (A) (A) (A) (A) (A) (A) (A) (A) (A) (A) (A)
                 (A) (A) (A) (A) (A) (A) (A) (A) (A) (A) (A) (A)
                 (A) (A) (A) (A) (A) (A) (A) (A) (A) (A) (A) (A)
                 (A) (A)
 The electronic state is 1-A.
 Alpha  occ. eigenvalues -- -101.69105-101.68566 -89.19295 -19.18998 -14.44152
 Alpha  occ. eigenvalues --  -14.38780 -14.35727 -14.35312 -10.35181 -10.31195
 Alpha  occ. eigenvalues --  -10.29788 -10.29521 -10.28174 -10.27523 -10.27340
 Alpha  occ. eigenvalues --  -10.26496 -10.26438 -10.26378 -10.26211 -10.26161
 Alpha  occ. eigenvalues --  -10.25986 -10.25721 -10.25509 -10.25389 -10.24817
 Alpha  occ. eigenvalues --  -10.24638 -10.24605  -9.54287  -9.53772  -8.16690
 Alpha  occ. eigenvalues --   -7.28418  -7.27893  -7.27442  -7.27400  -7.26930
 Alpha  occ. eigenvalues --   -7.26893  -6.10826  -6.10728  -6.10694  -1.07702
 Alpha  occ. eigenvalues --   -1.01564  -0.97995  -0.97524  -0.93393  -0.92189
 Alpha  occ. eigenvalues --   -0.87832  -0.86331  -0.86251  -0.82877  -0.81726
 Alpha  occ. eigenvalues --   -0.81001  -0.77442  -0.76936  -0.76831  -0.75557
 Alpha  occ. eigenvalues --   -0.70175  -0.67332  -0.66270  -0.64948  -0.64561
 Alpha  occ. eigenvalues --   -0.62839  -0.62476  -0.59977  -0.57960  -0.55623
 Alpha  occ. eigenvalues --   -0.54969  -0.53312  -0.52352  -0.51242  -0.51083
 Alpha  occ. eigenvalues --   -0.50775  -0.49167  -0.48378  -0.48043  -0.47800
 Alpha  occ. eigenvalues --   -0.46736  -0.46230  -0.45723  -0.45251  -0.44958
 Alpha  occ. eigenvalues --   -0.44585  -0.44032  -0.43599  -0.42495  -0.42362
 Alpha  occ. eigenvalues --   -0.41504  -0.41030  -0.40423  -0.39472  -0.38995
 Alpha  occ. eigenvalues --   -0.37938  -0.37173  -0.35741  -0.35592  -0.33373
 Alpha  occ. eigenvalues --   -0.32831  -0.31511  -0.30856  -0.30366  -0.29677
 Alpha  occ. eigenvalues --   -0.28211  -0.28117  -0.27374  -0.27217  -0.26331
 Alpha  occ. eigenvalues --   -0.25986  -0.25113  -0.23744
 Alpha virt. eigenvalues --   -0.05333  -0.04645  -0.03033  -0.02152  -0.01572
 Alpha virt. eigenvalues --    0.01026   0.03705   0.04262   0.05126   0.06160
 Alpha virt. eigenvalues --    0.07348   0.07752   0.08130   0.08318   0.09422
 Alpha virt. eigenvalues --    0.10095   0.10328   0.11086   0.11723   0.12754
 Alpha virt. eigenvalues --    0.13051   0.13231   0.14234   0.14516   0.14638
 Alpha virt. eigenvalues --    0.15123   0.15744   0.17184   0.17409   0.18116
 Alpha virt. eigenvalues --    0.19055   0.21178   0.21772   0.23209   0.23433
 Alpha virt. eigenvalues --    0.25702   0.27101   0.27712   0.27894   0.28286
 Alpha virt. eigenvalues --    0.28919   0.29623   0.29930   0.30308   0.30717
 Alpha virt. eigenvalues --    0.31582   0.31975   0.33048   0.33408   0.34360
 Alpha virt. eigenvalues --    0.35608   0.37329   0.38335   0.38990   0.39736
 Alpha virt. eigenvalues --    0.40482   0.41106   0.41523   0.41828   0.42148
 Alpha virt. eigenvalues --    0.43109   0.43331   0.44617   0.45388   0.46058
 Alpha virt. eigenvalues --    0.46541   0.47157   0.47279   0.48220   0.48697
 Alpha virt. eigenvalues --    0.49007   0.50005   0.50290   0.51017   0.51648
 Alpha virt. eigenvalues --    0.52472   0.53034   0.53670   0.54897   0.55178
 Alpha virt. eigenvalues --    0.56107   0.56494   0.57375   0.58325   0.58648
 Alpha virt. eigenvalues --    0.59680   0.60251   0.60811   0.61057   0.61927
 Alpha virt. eigenvalues --    0.62095   0.62917   0.63738   0.64268   0.64344
 Alpha virt. eigenvalues --    0.64753   0.65059   0.65716   0.66260   0.66669
 Alpha virt. eigenvalues --    0.66921   0.67023   0.67385   0.67609   0.68439
 Alpha virt. eigenvalues --    0.68686   0.68757   0.69147   0.69750   0.69874
 Alpha virt. eigenvalues --    0.70542   0.71039   0.71373   0.71748   0.72202
 Alpha virt. eigenvalues --    0.72350   0.72834   0.73080   0.73996   0.74742
 Alpha virt. eigenvalues --    0.75061   0.75327   0.76317   0.76952   0.77286
 Alpha virt. eigenvalues --    0.78446   0.79285   0.79492   0.80285   0.80749
 Alpha virt. eigenvalues --    0.81429   0.81832   0.82504   0.82986   0.83666
 Alpha virt. eigenvalues --    0.83873   0.84369   0.85351   0.85942   0.86508
 Alpha virt. eigenvalues --    0.86598   0.88297   0.89068   0.89475   0.90813
 Alpha virt. eigenvalues --    0.91808   0.92505   0.93218   0.94065   0.95295
 Alpha virt. eigenvalues --    0.95674   0.97082   0.97281   0.97956   0.99432
 Alpha virt. eigenvalues --    0.99883   1.01325   1.02066   1.02410   1.04781
 Alpha virt. eigenvalues --    1.05445   1.06379   1.07807   1.08810   1.09632
 Alpha virt. eigenvalues --    1.11812   1.12530   1.13037   1.13330   1.14503
 Alpha virt. eigenvalues --    1.15642   1.16484   1.16685   1.19028   1.19615
 Alpha virt. eigenvalues --    1.20022   1.20731   1.21873   1.22514   1.22838
 Alpha virt. eigenvalues --    1.23856   1.24542   1.25217   1.26374   1.26531
 Alpha virt. eigenvalues --    1.27477   1.27970   1.28449   1.29273   1.29636
 Alpha virt. eigenvalues --    1.30679   1.32184   1.33890   1.35207   1.35998
 Alpha virt. eigenvalues --    1.36825   1.37712   1.38286   1.40359   1.41880
 Alpha virt. eigenvalues --    1.42793   1.44045   1.45445   1.47728   1.48080
 Alpha virt. eigenvalues --    1.48645   1.49798   1.50083   1.50900   1.52120
 Alpha virt. eigenvalues --    1.53069   1.55632   1.56521   1.57476   1.60984
 Alpha virt. eigenvalues --    1.64111   1.64494   1.65472   1.67732   1.69099
 Alpha virt. eigenvalues --    1.69661   1.70752   1.71652   1.73014   1.73385
 Alpha virt. eigenvalues --    1.73980   1.74628   1.74930   1.75636   1.76224
 Alpha virt. eigenvalues --    1.76309   1.77066   1.77357   1.77825   1.78723
 Alpha virt. eigenvalues --    1.78816   1.79825   1.81165   1.81687   1.82048
 Alpha virt. eigenvalues --    1.82779   1.83542   1.84536   1.85221   1.85556
 Alpha virt. eigenvalues --    1.86659   1.87824   1.88053   1.90090   1.91307
 Alpha virt. eigenvalues --    1.92355   1.93047   1.94752   1.95501   1.96821
 Alpha virt. eigenvalues --    1.97707   1.98769   1.99316   1.99870   2.00312
 Alpha virt. eigenvalues --    2.01254   2.01351   2.01933   2.03681   2.07063
 Alpha virt. eigenvalues --    2.07507   2.09253   2.10138   2.10682   2.12712
 Alpha virt. eigenvalues --    2.13539   2.14337   2.14658   2.16030   2.16838
 Alpha virt. eigenvalues --    2.17449   2.18621   2.19499   2.20547   2.22418
 Alpha virt. eigenvalues --    2.22596   2.25124   2.26014   2.27092   2.28154
 Alpha virt. eigenvalues --    2.29511   2.29985   2.30753   2.31423   2.32239
 Alpha virt. eigenvalues --    2.32723   2.33154   2.35297   2.36033   2.36800
 Alpha virt. eigenvalues --    2.39282   2.39678   2.40347   2.42007   2.42664
 Alpha virt. eigenvalues --    2.42957   2.44634   2.45941   2.46569   2.49401
 Alpha virt. eigenvalues --    2.51924   2.52919   2.54617   2.55160   2.56987
 Alpha virt. eigenvalues --    2.57565   2.58256   2.58939   2.61988   2.62213
 Alpha virt. eigenvalues --    2.63152   2.64259   2.64883   2.65526   2.67407
 Alpha virt. eigenvalues --    2.68363   2.69861   2.70194   2.71114   2.73566
 Alpha virt. eigenvalues --    2.73935   2.75899   2.77139   2.81041   2.83432
 Alpha virt. eigenvalues --    2.84145   2.84684   2.85097   2.86271   2.86804
 Alpha virt. eigenvalues --    2.88186   2.89399   2.91808   2.92762   2.93567
 Alpha virt. eigenvalues --    2.95122   2.95480   2.96841   2.98932   3.04358
 Alpha virt. eigenvalues --    3.07401   3.07837   3.11098   3.13781   3.15988
 Alpha virt. eigenvalues --    3.17139   3.20650   3.21957   3.27968   3.31671
 Alpha virt. eigenvalues --    3.42086   3.42472   3.49547   3.55958   3.61766
 Alpha virt. eigenvalues --    3.68406   3.72407
          Condensed to atoms (all electrons):
               1          2          3          4          5          6
     1  O    7.678359   0.768248  -0.112080   0.002358  -0.000052   0.000000
     2  C    0.768248   4.705864   0.327021  -0.023950   0.006200  -0.000450
     3  N   -0.112080   0.327021   6.589512   0.330475  -0.090512   0.008074
     4  C    0.002358  -0.023950   0.330475   5.280661   0.198921   0.137486
     5  C   -0.000052   0.006200  -0.090512   0.198921   5.213779   0.280695
     6  C    0.000000  -0.000450   0.008074   0.137486   0.280695   4.966543
     7  C    0.000000   0.000113  -0.000097  -0.199774   0.114257   0.307629
     8  Cl   0.000000   0.000000   0.000001   0.001207   0.002824  -0.061513
     9  C    0.000000   0.000253   0.008262   0.149808  -0.156552   0.085826
    10  C    0.000000  -0.000039  -0.000120   0.016265  -0.002344   0.013610
    11  C    0.000000   0.000000   0.000001  -0.000806  -0.000021  -0.000228
    12  C   -0.000000  -0.000000   0.000000   0.000007   0.000001  -0.000005
    13  C    0.000000   0.000000   0.000000  -0.000001  -0.000000  -0.000002
    14  C   -0.000000  -0.000000  -0.000000   0.000023   0.000002   0.000005
    15  N   -0.000000  -0.000022   0.000004  -0.000365  -0.000057   0.000007
    16  C   -0.000115  -0.024561  -0.078918   0.174839   0.063828  -0.122498
    17  C   -0.105171   0.120077  -0.151227  -0.000299   0.000277   0.000100
    18  C   -0.003930  -0.069919  -0.006179  -0.005463  -0.000767   0.000223
    19  Cl  -0.000469   0.015451  -0.007546  -0.004429   0.006299  -0.001822
    20  C    0.000048   0.006964  -0.000087  -0.000267  -0.000062   0.000005
    21  C    0.003407  -0.033585   0.001073   0.002012  -0.000006   0.000002
    22  C    0.000327   0.008608  -0.000185  -0.000137  -0.000001  -0.000000
    23  C   -0.000052  -0.000029  -0.000039   0.000108  -0.000003   0.000001
    24  S    0.000000   0.000013  -0.000000  -0.000000   0.000000  -0.000000
    25  N   -0.000000  -0.000000  -0.000000   0.000000  -0.000000   0.000000
    26  C   -0.000000  -0.000001   0.000000  -0.000000  -0.000000   0.000000
    27  N    0.000000   0.000000  -0.000000   0.000000  -0.000000   0.000000
    28  H    0.009267  -0.009165   0.323665  -0.011597  -0.019436   0.000606
    29  H   -0.000065  -0.000569  -0.010148  -0.084515   0.448943  -0.057066
    30  H   -0.000000   0.000001  -0.000129   0.016020  -0.062394   0.444790
    31  H    0.000000   0.000000  -0.000000   0.000046  -0.000017  -0.000064
    32  H   -0.000000  -0.000000   0.000000  -0.000000  -0.000000  -0.000000
    33  H    0.000000  -0.000000  -0.000000   0.000000   0.000000   0.000000
    34  H    0.000000  -0.000001  -0.000000  -0.000002  -0.000000   0.000000
    35  H   -0.000058  -0.003326  -0.007356  -0.092985   0.015636  -0.003055
    36  H    0.000003  -0.000091   0.000007   0.000039  -0.000003   0.000002
    37  H    0.004222  -0.010941   0.000626   0.000067   0.000002   0.000000
    38  H   -0.000005  -0.000251   0.000003  -0.000001  -0.000000  -0.000000
    39  H   -0.000000  -0.000000   0.000000  -0.000000   0.000000  -0.000000
    40  H    0.000000   0.000000  -0.000000   0.000000   0.000000  -0.000000
    41  H    0.000000  -0.000000   0.000000   0.000000  -0.000000   0.000000
    42  H    0.000000   0.000000  -0.000000  -0.000000   0.000000  -0.000000
    43  H   -0.000000  -0.000000   0.000000  -0.000000   0.000000  -0.000000
               7          8          9         10         11         12
     1  O    0.000000   0.000000   0.000000   0.000000   0.000000  -0.000000
     2  C    0.000113   0.000000   0.000253  -0.000039   0.000000  -0.000000
     3  N   -0.000097   0.000001   0.008262  -0.000120   0.000001   0.000000
     4  C   -0.199774   0.001207   0.149808   0.016265  -0.000806   0.000007
     5  C    0.114257   0.002824  -0.156552  -0.002344  -0.000021   0.000001
     6  C    0.307629  -0.061513   0.085826   0.013610  -0.000228  -0.000005
     7  C    5.314749   0.252016   0.269986  -0.100254  -0.017997   0.000782
     8  Cl   0.252016  16.948357  -0.063335  -0.008050  -0.000547  -0.001184
     9  C    0.269986  -0.063335   5.366888   0.237632  -0.114881   0.009380
    10  C   -0.100254  -0.008050   0.237632   5.164081   0.409972  -0.002292
    11  C   -0.017997  -0.000547  -0.114881   0.409972   5.032158   0.419307
    12  C    0.000782  -0.001184   0.009380  -0.002292   0.419307   4.853818
    13  C   -0.000164  -0.000066   0.002025  -0.077865   0.017513   0.395358
    14  C   -0.000153   0.000039   0.009166  -0.052970  -0.083982  -0.000958
    15  N   -0.001649  -0.000500  -0.110361   0.551383  -0.050330  -0.045743
    16  C    0.073677   0.002306   0.329537  -0.071909   0.009548  -0.000522
    17  C    0.000027   0.000000  -0.000938  -0.000107  -0.000009  -0.000001
    18  C   -0.000309   0.000000   0.002148   0.000461   0.000011  -0.000001
    19  Cl   0.000867  -0.000001   0.000063  -0.000636  -0.000007   0.000000
    20  C   -0.000069  -0.000000  -0.000822   0.000252   0.000079  -0.000005
    21  C   -0.000019   0.000000  -0.000155   0.000186  -0.000003   0.000001
    22  C    0.000001   0.000000  -0.000125  -0.000036  -0.000001   0.000001
    23  C   -0.000003  -0.000000   0.000135   0.000098  -0.000018  -0.000002
    24  S    0.000000   0.000000   0.000003   0.000003  -0.000001  -0.000001
    25  N   -0.000000  -0.000000  -0.000001  -0.000019   0.000001  -0.000006
    26  C   -0.000000  -0.000000  -0.000000  -0.000000   0.000000  -0.000000
    27  N   -0.000000   0.000000   0.000000  -0.000000  -0.000000   0.000000
    28  H   -0.000014  -0.000000  -0.000222   0.000011  -0.000000   0.000000
    29  H    0.016416  -0.000167  -0.002194   0.000064   0.000002  -0.000000
    30  H   -0.075291   0.002058   0.018486  -0.000245   0.000008  -0.000000
    31  H   -0.003167   0.013773  -0.013430  -0.041861   0.419413  -0.050560
    32  H   -0.000004  -0.000016  -0.000475   0.012767  -0.059254   0.440771
    33  H    0.000001   0.000000   0.000102   0.000747   0.011717  -0.059168
    34  H    0.000032   0.000001  -0.000195   0.006768   0.000473   0.007172
    35  H    0.020084  -0.000116  -0.061680  -0.025150   0.001624   0.000092
    36  H   -0.000012   0.000000  -0.000015  -0.000008   0.000001   0.000001
    37  H   -0.000001  -0.000000  -0.000001   0.000005   0.000000   0.000000
    38  H    0.000000   0.000000   0.000000  -0.000002   0.000000  -0.000000
    39  H    0.000000   0.000000   0.000000   0.000002   0.000000  -0.000001
    40  H    0.000000   0.000000   0.000000  -0.000000  -0.000000   0.000000
    41  H    0.000000   0.000000   0.000000   0.000000  -0.000000   0.000000
    42  H    0.000000   0.000000  -0.000000   0.000000   0.000000  -0.000000
    43  H   -0.000000  -0.000000  -0.000000  -0.000004  -0.000000   0.000000
              13         14         15         16         17         18
     1  O    0.000000  -0.000000  -0.000000  -0.000115  -0.105171  -0.003930
     2  C    0.000000  -0.000000  -0.000022  -0.024561   0.120077  -0.069919
     3  N    0.000000  -0.000000   0.000004  -0.078918  -0.151227  -0.006179
     4  C   -0.000001   0.000023  -0.000365   0.174839  -0.000299  -0.005463
     5  C   -0.000000   0.000002  -0.000057   0.063828   0.000277  -0.000767
     6  C   -0.000002   0.000005   0.000007  -0.122498   0.000100   0.000223
     7  C   -0.000164  -0.000153  -0.001649   0.073677   0.000027  -0.000309
     8  Cl  -0.000066   0.000039  -0.000500   0.002306   0.000000   0.000000
     9  C    0.002025   0.009166  -0.110361   0.329537  -0.000938   0.002148
    10  C   -0.077865  -0.052970   0.551383  -0.071909  -0.000107   0.000461
    11  C    0.017513  -0.083982  -0.050330   0.009548  -0.000009   0.000011
    12  C    0.395358  -0.000958  -0.045743  -0.000522  -0.000001  -0.000001
    13  C    5.037308   0.401828  -0.035288   0.000208  -0.000002   0.000001
    14  C    0.401828   4.822997   0.520704   0.001207  -0.000064   0.000195
    15  N   -0.035288   0.520704   6.356513  -0.007220  -0.001995  -0.001561
    16  C    0.000208   0.001207  -0.007220   5.174769   0.002216  -0.010089
    17  C   -0.000002  -0.000064  -0.001995   0.002216   6.015605   0.196170
    18  C    0.000001   0.000195  -0.001561  -0.010089   0.196170   5.271999
    19  Cl  -0.000001  -0.000003  -0.000001   0.000044  -0.093392   0.289898
    20  C    0.000175  -0.000481   0.010861  -0.001833   0.082845   0.242633
    21  C   -0.000008   0.000051  -0.000324  -0.005445   0.219077   0.104771
    22  C    0.000010   0.000138   0.000860  -0.000189   0.120588  -0.176006
    23  C   -0.000207   0.003919  -0.003359   0.000635  -0.218467   0.157321
    24  S   -0.000220  -0.000521  -0.000350  -0.000003   0.000372   0.004536
    25  N    0.000657  -0.021880  -0.000085   0.000001  -0.000010   0.002058
    26  C    0.000001  -0.000172  -0.000000   0.000000  -0.000186  -0.000248
    27  N   -0.000021  -0.000047  -0.000008  -0.000000  -0.000033   0.000018
    28  H   -0.000000   0.000000  -0.000000   0.008642   0.017507  -0.000032
    29  H    0.000000  -0.000000   0.000000   0.017995  -0.000162  -0.000020
    30  H    0.000000  -0.000000   0.000006  -0.001896   0.000000  -0.000000
    31  H    0.011282   0.000018   0.005629   0.000034   0.000000   0.000000
    32  H   -0.063628   0.010540  -0.000112   0.000002  -0.000000  -0.000000
    33  H    0.423811  -0.046262   0.005855  -0.000001   0.000000   0.000000
    34  H   -0.067960   0.370014  -0.046456  -0.000070  -0.000032   0.000352
    35  H    0.000151  -0.000038   0.017571   0.468691   0.002273  -0.007533
    36  H    0.000027  -0.000279   0.000761   0.000011   0.018808  -0.063949
    37  H   -0.000000  -0.000002   0.000002   0.000029  -0.080004   0.016600
    38  H    0.000002   0.000014   0.000008  -0.000011   0.015461  -0.001867
    39  H   -0.000145   0.001058   0.000033  -0.000000   0.000006  -0.000042
    40  H    0.000000   0.000009   0.000000  -0.000000   0.000035   0.000180
    41  H   -0.000000   0.000009  -0.000000  -0.000000   0.000014  -0.000011
    42  H   -0.000000   0.000005   0.000000  -0.000000   0.000004   0.000000
    43  H    0.000058  -0.000651  -0.000009   0.000000   0.000000  -0.000032
              19         20         21         22         23         24
     1  O   -0.000469   0.000048   0.003407   0.000327  -0.000052   0.000000
     2  C    0.015451   0.006964  -0.033585   0.008608  -0.000029   0.000013
     3  N   -0.007546  -0.000087   0.001073  -0.000185  -0.000039  -0.000000
     4  C   -0.004429  -0.000267   0.002012  -0.000137   0.000108  -0.000000
     5  C    0.006299  -0.000062  -0.000006  -0.000001  -0.000003   0.000000
     6  C   -0.001822   0.000005   0.000002  -0.000000   0.000001  -0.000000
     7  C    0.000867  -0.000069  -0.000019   0.000001  -0.000003   0.000000
     8  Cl  -0.000001  -0.000000   0.000000   0.000000  -0.000000   0.000000
     9  C    0.000063  -0.000822  -0.000155  -0.000125   0.000135   0.000003
    10  C   -0.000636   0.000252   0.000186  -0.000036   0.000098   0.000003
    11  C   -0.000007   0.000079  -0.000003  -0.000001  -0.000018  -0.000001
    12  C    0.000000  -0.000005   0.000001   0.000001  -0.000002  -0.000001
    13  C   -0.000001   0.000175  -0.000008   0.000010  -0.000207  -0.000220
    14  C   -0.000003  -0.000481   0.000051   0.000138   0.003919  -0.000521
    15  N   -0.000001   0.010861  -0.000324   0.000860  -0.003359  -0.000350
    16  C    0.000044  -0.001833  -0.005445  -0.000189   0.000635  -0.000003
    17  C   -0.093392   0.082845   0.219077   0.120588  -0.218467   0.000372
    18  C    0.289898   0.242633   0.104771  -0.176006   0.157321   0.004536
    19  Cl  16.909725  -0.065512   0.003696   0.000402   0.004591  -0.000029
    20  C   -0.065512   5.054890  -0.115716   0.071231   0.207428  -0.034897
    21  C    0.003696  -0.115716   5.041854   0.226565   0.129592   0.001545
    22  C    0.000402   0.071231   0.226565   5.226897   0.145788  -0.056661
    23  C    0.004591   0.207428   0.129592   0.145788   5.967224   0.132400
    24  S   -0.000029  -0.034897   0.001545  -0.056661   0.132400  14.630517
    25  N   -0.000007   0.003471  -0.000057   0.007721  -0.103987   0.354897
    26  C    0.000004  -0.006362  -0.000597  -0.000413  -0.113591   0.281432
    27  N    0.000000   0.004176   0.001580   0.007649  -0.072273   0.358292
    28  H    0.000190   0.000023  -0.000339   0.000014   0.000005   0.000000
    29  H    0.000125   0.000002   0.000004   0.000000  -0.000000   0.000000
    30  H   -0.000010   0.000000  -0.000000   0.000000  -0.000000  -0.000000
    31  H   -0.000000  -0.000001   0.000000  -0.000000   0.000000   0.000000
    32  H   -0.000000   0.000000  -0.000000   0.000000  -0.000000  -0.000000
    33  H   -0.000000  -0.000004   0.000000  -0.000000   0.000013   0.000027
    34  H    0.000018  -0.004573  -0.000072  -0.000233  -0.009745   0.003157
    35  H    0.000092  -0.002454  -0.004956   0.002677  -0.001863   0.000001
    36  H    0.001624   0.441338  -0.002646   0.014210  -0.061435  -0.012535
    37  H   -0.000102  -0.002086   0.471507  -0.075684   0.016689  -0.000174
    38  H    0.000011   0.012736  -0.053133   0.446916  -0.083167  -0.007813
    39  H   -0.000001  -0.000383  -0.000006  -0.000362   0.012100  -0.016399
    40  H   -0.000007   0.002711   0.000010  -0.001529   0.005098  -0.014948
    41  H    0.000000   0.000025   0.000265   0.003010   0.000988  -0.004774
    42  H   -0.000000   0.000010  -0.000004   0.000026   0.007347  -0.007862
    43  H    0.000000  -0.000062  -0.000098  -0.000646  -0.000392  -0.015995
              25         26         27         28         29         30
     1  O   -0.000000  -0.000000   0.000000   0.009267  -0.000065  -0.000000
     2  C   -0.000000  -0.000001   0.000000  -0.009165  -0.000569   0.000001
     3  N   -0.000000   0.000000  -0.000000   0.323665  -0.010148  -0.000129
     4  C    0.000000  -0.000000   0.000000  -0.011597  -0.084515   0.016020
     5  C   -0.000000  -0.000000  -0.000000  -0.019436   0.448943  -0.062394
     6  C    0.000000   0.000000   0.000000   0.000606  -0.057066   0.444790
     7  C   -0.000000  -0.000000  -0.000000  -0.000014   0.016416  -0.075291
     8  Cl  -0.000000  -0.000000   0.000000  -0.000000  -0.000167   0.002058
     9  C   -0.000001  -0.000000   0.000000  -0.000222  -0.002194   0.018486
    10  C   -0.000019  -0.000000  -0.000000   0.000011   0.000064  -0.000245
    11  C    0.000001   0.000000  -0.000000  -0.000000   0.000002   0.000008
    12  C   -0.000006  -0.000000   0.000000   0.000000  -0.000000  -0.000000
    13  C    0.000657   0.000001  -0.000021  -0.000000   0.000000   0.000000
    14  C   -0.021880  -0.000172  -0.000047   0.000000  -0.000000  -0.000000
    15  N   -0.000085  -0.000000  -0.000008  -0.000000   0.000000   0.000006
    16  C    0.000001   0.000000  -0.000000   0.008642   0.017995  -0.001896
    17  C   -0.000010  -0.000186  -0.000033   0.017507  -0.000162   0.000000
    18  C    0.002058  -0.000248   0.000018  -0.000032  -0.000020  -0.000000
    19  Cl  -0.000007   0.000004   0.000000   0.000190   0.000125  -0.000010
    20  C    0.003471  -0.006362   0.004176   0.000023   0.000002   0.000000
    21  C   -0.000057  -0.000597   0.001580  -0.000339   0.000004  -0.000000
    22  C    0.007721  -0.000413   0.007649   0.000014   0.000000   0.000000
    23  C   -0.103987  -0.113591  -0.072273   0.000005  -0.000000  -0.000000
    24  S    0.354897   0.281432   0.358292   0.000000   0.000000  -0.000000
    25  N    6.836348  -0.041915  -0.041156   0.000000   0.000000   0.000000
    26  C   -0.041915   4.925797  -0.091794  -0.000000  -0.000000   0.000000
    27  N   -0.041156  -0.091794   6.884484   0.000000  -0.000000   0.000000
    28  H    0.000000  -0.000000   0.000000   0.530137   0.005541  -0.000035
    29  H    0.000000  -0.000000  -0.000000   0.005541   0.676813  -0.013559
    30  H    0.000000   0.000000   0.000000  -0.000035  -0.013559   0.658357
    31  H   -0.000000  -0.000000  -0.000000  -0.000000   0.000000   0.000007
    32  H    0.000000   0.000000   0.000000  -0.000000  -0.000000   0.000000
    33  H   -0.000011  -0.000000  -0.000008   0.000000  -0.000000  -0.000000
    34  H    0.056791   0.001379  -0.000703   0.000000  -0.000000   0.000000
    35  H   -0.000002   0.000001  -0.000002  -0.000571  -0.000210   0.000025
    36  H    0.027544   0.000633   0.000395  -0.000001   0.000000   0.000000
    37  H    0.000001   0.000017  -0.000003  -0.000097   0.000000   0.000000
    38  H    0.000734  -0.000022   0.023450  -0.000000  -0.000000   0.000000
    39  H    0.330400  -0.006920  -0.000080   0.000000   0.000000  -0.000000
    40  H    0.003262   0.365819   0.005832  -0.000000   0.000000   0.000000
    41  H    0.003157   0.359345   0.003243  -0.000000  -0.000000   0.000000
    42  H   -0.000027   0.365683   0.006645   0.000000   0.000000  -0.000000
    43  H   -0.002784   0.007083   0.338538  -0.000000  -0.000000   0.000000
              31         32         33         34         35         36
     1  O    0.000000  -0.000000   0.000000   0.000000  -0.000058   0.000003
     2  C    0.000000  -0.000000  -0.000000  -0.000001  -0.003326  -0.000091
     3  N   -0.000000   0.000000  -0.000000  -0.000000  -0.007356   0.000007
     4  C    0.000046  -0.000000   0.000000  -0.000002  -0.092985   0.000039
     5  C   -0.000017  -0.000000   0.000000  -0.000000   0.015636  -0.000003
     6  C   -0.000064  -0.000000   0.000000   0.000000  -0.003055   0.000002
     7  C   -0.003167  -0.000004   0.000001   0.000032   0.020084  -0.000012
     8  Cl   0.013773  -0.000016   0.000000   0.000001  -0.000116   0.000000
     9  C   -0.013430  -0.000475   0.000102  -0.000195  -0.061680  -0.000015
    10  C   -0.041861   0.012767   0.000747   0.006768  -0.025150  -0.000008
    11  C    0.419413  -0.059254   0.011717   0.000473   0.001624   0.000001
    12  C   -0.050560   0.440771  -0.059168   0.007172   0.000092   0.000001
    13  C    0.011282  -0.063628   0.423811  -0.067960   0.000151   0.000027
    14  C    0.000018   0.010540  -0.046262   0.370014  -0.000038  -0.000279
    15  N    0.005629  -0.000112   0.005855  -0.046456   0.017571   0.000761
    16  C    0.000034   0.000002  -0.000001  -0.000070   0.468691   0.000011
    17  C    0.000000  -0.000000   0.000000  -0.000032   0.002273   0.018808
    18  C    0.000000  -0.000000   0.000000   0.000352  -0.007533  -0.063949
    19  Cl  -0.000000  -0.000000  -0.000000   0.000018   0.000092   0.001624
    20  C   -0.000001   0.000000  -0.000004  -0.004573  -0.002454   0.441338
    21  C    0.000000  -0.000000   0.000000  -0.000072  -0.004956  -0.002646
    22  C   -0.000000   0.000000  -0.000000  -0.000233   0.002677   0.014210
    23  C    0.000000  -0.000000   0.000013  -0.009745  -0.001863  -0.061435
    24  S    0.000000  -0.000000   0.000027   0.003157   0.000001  -0.012535
    25  N   -0.000000   0.000000  -0.000011   0.056791  -0.000002   0.027544
    26  C   -0.000000   0.000000  -0.000000   0.001379   0.000001   0.000633
    27  N   -0.000000   0.000000  -0.000008  -0.000703  -0.000002   0.000395
    28  H   -0.000000  -0.000000   0.000000   0.000000  -0.000571  -0.000001
    29  H    0.000000  -0.000000  -0.000000  -0.000000  -0.000210   0.000000
    30  H    0.000007   0.000000  -0.000000   0.000000   0.000025   0.000000
    31  H    0.653260  -0.010921  -0.000155   0.000076  -0.000147  -0.000000
    32  H   -0.010921   0.656489  -0.011322  -0.000269   0.000003   0.000000
    33  H   -0.000155  -0.011322   0.661962  -0.007754  -0.000010  -0.000002
    34  H    0.000076  -0.000269  -0.007754   0.689893  -0.000244   0.000836
    35  H   -0.000147   0.000003  -0.000010  -0.000244   0.661194  -0.000014
    36  H   -0.000000   0.000000  -0.000002   0.000836  -0.000014   0.603072
    37  H    0.000000   0.000000  -0.000000   0.000003   0.000066   0.000020
    38  H   -0.000000   0.000000  -0.000000  -0.000042   0.000074  -0.000305
    39  H    0.000000  -0.000000   0.000034  -0.002975   0.000000  -0.000950
    40  H   -0.000000  -0.000000   0.000000  -0.000064   0.000000   0.000378
    41  H    0.000000  -0.000000   0.000000  -0.000065  -0.000000  -0.000037
    42  H   -0.000000  -0.000000   0.000000  -0.000059  -0.000000  -0.000069
    43  H   -0.000000  -0.000000   0.000017   0.004648   0.000002  -0.000030
              37         38         39         40         41         42
     1  O    0.004222  -0.000005  -0.000000   0.000000   0.000000   0.000000
     2  C   -0.010941  -0.000251  -0.000000   0.000000  -0.000000   0.000000
     3  N    0.000626   0.000003   0.000000  -0.000000   0.000000  -0.000000
     4  C    0.000067  -0.000001  -0.000000   0.000000   0.000000  -0.000000
     5  C    0.000002  -0.000000   0.000000   0.000000  -0.000000   0.000000
     6  C    0.000000  -0.000000  -0.000000  -0.000000   0.000000  -0.000000
     7  C   -0.000001   0.000000   0.000000   0.000000   0.000000   0.000000
[...]
    19  Cl  -0.000001  -0.000000  -0.000000  -0.000021   0.001248   0.003745
    20  C   -0.000006   0.000001  -0.000025  -0.008148   0.000358   0.428019
    21  C    0.000003  -0.000000   0.000004   0.000509  -0.005768  -0.005293
    22  C   -0.000004   0.000001  -0.000015  -0.001544   0.001355   0.013795
    23  C    0.000003  -0.000002   0.000071  -0.000566  -0.002433  -0.047658
    24  S   -0.000000   0.000000  -0.000034   0.006766   0.000099  -0.004056
    25  N   -0.000000   0.000002  -0.000120   0.038907   0.000003   0.021157
    26  C   -0.000000   0.000000  -0.000001   0.001067   0.000011   0.001532
    27  N    0.000000  -0.000000  -0.000015  -0.000435  -0.000040   0.000825
    28  H   -0.000000  -0.000000   0.000000  -0.000000  -0.000771  -0.000002
    29  H    0.000001  -0.000000  -0.000000   0.000000  -0.000185  -0.000000
    30  H    0.000036   0.000000  -0.000000  -0.000000   0.000062  -0.000000
    31  H    0.528974  -0.008266   0.000055   0.000169  -0.000213  -0.000000
    32  H   -0.008266   0.543497  -0.008384  -0.000260   0.000020   0.000000
    33  H    0.000055  -0.008384   0.549877  -0.001635  -0.000028  -0.000005
    34  H    0.000169  -0.000260  -0.001635   0.545660  -0.000211   0.000444
    35  H   -0.000213   0.000020  -0.000028  -0.000211   0.508816  -0.000040
    36  H   -0.000000   0.000000  -0.000005   0.000444  -0.000040   0.478544
    37  H    0.000000  -0.000000   0.000000   0.000001  -0.000789   0.000050
    38  H   -0.000000   0.000000  -0.000000  -0.000213  -0.000096  -0.000190
    39  H    0.000000  -0.000000   0.000020  -0.000209   0.000001  -0.001341
    40  H   -0.000000  -0.000000  -0.000000  -0.000038  -0.000001   0.000108
    41  H    0.000000  -0.000000   0.000000  -0.000066  -0.000001  -0.000132
    42  H   -0.000000  -0.000000  -0.000000  -0.000006   0.000000  -0.000127
    43  H   -0.000000   0.000001   0.000002   0.002874   0.000018   0.000008
              37         38         39         40         41         42
     1  O    0.005253  -0.000052  -0.000000  -0.000000   0.000000   0.000000
     2  C   -0.005387  -0.000129   0.000000   0.000002   0.000008   0.000000
     3  N   -0.000724   0.000011   0.000000   0.000000   0.000000   0.000000
     4  C    0.001244  -0.000026  -0.000000  -0.000000   0.000000  -0.000000
     5  C    0.000036  -0.000002   0.000000  -0.000000  -0.000000   0.000000
     6  C    0.000006   0.000000  -0.000000   0.000000   0.000000  -0.000000
     7  C   -0.000012  -0.000000   0.000000  -0.000000  -0.000000   0.000000
     8  Cl  -0.000000  -0.000000   0.000000  -0.000000  -0.000000  -0.000000
     9  C   -0.000032   0.000012  -0.000000   0.000000   0.000000  -0.000000
    10  C    0.000020   0.000018   0.000005   0.000000  -0.000000   0.000000
    11  C    0.000000  -0.000002   0.000002   0.000000   0.000000   0.000000
    12  C   -0.000000   0.000004  -0.000002  -0.000000  -0.000000  -0.000000
    13  C    0.000000  -0.000007  -0.000002   0.000001   0.000002   0.000001
    14  C    0.000010  -0.000006  -0.000093   0.000003   0.000047  -0.000006
    15  N   -0.000052   0.000131   0.000022   0.000001  -0.000004   0.000001
    16  C   -0.000298   0.000068   0.000000   0.000000   0.000000  -0.000000
    17  C   -0.055614   0.012859  -0.000021  -0.000248   0.000068  -0.000008
    18  C    0.010862  -0.002470  -0.000145   0.000178  -0.000412   0.000067
    19  Cl  -0.000210   0.000029  -0.000004  -0.000019   0.000001  -0.000000
    20  C   -0.001963   0.005846  -0.002340  -0.008502   0.003980  -0.000707
    21  C    0.448712  -0.059586   0.000080   0.000238   0.000423   0.000032
    22  C   -0.070189   0.448500  -0.001243   0.003333  -0.010065  -0.000224
    23  C    0.012726  -0.070514   0.017808   0.009613   0.009982   0.007635
    24  S   -0.000297  -0.002569  -0.013267  -0.023853  -0.016117  -0.014930
    25  N   -0.000002   0.002294   0.306128   0.002413   0.003905   0.000358
    26  C    0.000017  -0.001912  -0.008863   0.380888   0.366721   0.375065
    27  N    0.000026   0.020909  -0.000682   0.005545   0.003515   0.004632
    28  H   -0.000117  -0.000000   0.000000  -0.000000   0.000000  -0.000000
    29  H   -0.000000  -0.000000   0.000000  -0.000000  -0.000000   0.000000
    30  H   -0.000000   0.000000  -0.000000   0.000000   0.000000  -0.000000
    31  H    0.000000  -0.000000   0.000000  -0.000000   0.000000  -0.000000
    32  H   -0.000000   0.000000  -0.000000  -0.000000  -0.000000  -0.000000
    33  H    0.000000  -0.000000   0.000020  -0.000000   0.000000  -0.000000
    34  H    0.000001  -0.000213  -0.000209  -0.000038  -0.000066  -0.000006
    35  H   -0.000789  -0.000096   0.000001  -0.000001  -0.000001   0.000000
    36  H    0.000050  -0.000190  -0.001341   0.000108  -0.000132  -0.000127
    37  H    0.519827  -0.006828  -0.000000   0.000001   0.000007  -0.000001
    38  H   -0.006828   0.493947  -0.000070   0.000268  -0.000538  -0.000109
    39  H   -0.000000  -0.000070   0.484477   0.000023   0.000209   0.001940
    40  H    0.000001   0.000268   0.000023   0.503901  -0.016725  -0.014818
    41  H    0.000007  -0.000538   0.000209  -0.016725   0.508664  -0.011155
    42  H   -0.000001  -0.000109   0.001940  -0.014818  -0.011155   0.498825
    43  H    0.000005  -0.002922  -0.000002  -0.000524  -0.000558  -0.000497
              43
     1  O   -0.000000
     2  C   -0.000000
     3  N   -0.000000
     4  C    0.000000
     5  C    0.000000
     6  C   -0.000000
     7  C    0.000000
     8  Cl  -0.000000
     9  C   -0.000000
    10  C   -0.000033
    11  C   -0.000036
    12  C    0.000075
    13  C   -0.000506
    14  C    0.000370
    15  N    0.000038
    16  C   -0.000009
    17  C    0.000005
    18  C    0.000058
    19  Cl   0.000000
    20  C    0.001872
    21  C   -0.000416
    22  C   -0.003411
    23  C   -0.000231
    24  S   -0.021591
    25  N   -0.003293
    26  C    0.011110
    27  N    0.317117
    28  H   -0.000000
    29  H   -0.000000
    30  H   -0.000000
    31  H   -0.000000
    32  H    0.000001
    33  H    0.000002
    34  H    0.002874
    35  H    0.000018
    36  H    0.000008
    37  H    0.000005
    38  H   -0.002922
    39  H   -0.000002
    40  H   -0.000524
    41  H   -0.000558
    42  H   -0.000497
    43  H    0.481301
 Mulliken charges:
               1
     1  O   -0.322278
     2  C    0.191392
     3  N   -0.212585
     4  C    0.246608
     5  C   -0.221683
     6  C   -0.205045
     7  C    0.048783
     8  Cl  -0.102682
     9  C    0.111472
    10  C    0.200012
    11  C   -0.189911
    12  C   -0.126504
    13  C   -0.081740
    14  C   -0.065728
    15  N   -0.248974
    16  C   -0.249152
    17  C    0.022137
    18  C    0.252990
    19  Cl  -0.078077
    20  C   -0.287315
    21  C   -0.136632
    22  C   -0.231537
    23  C    0.131051
    24  S    0.459109
    25  N   -0.564385
    26  C   -0.333724
    27  N   -0.553437
    28  H    0.233477
    29  H    0.118182
    30  H    0.129262
    31  H    0.142873
    32  H    0.128628
    33  H    0.127939
    34  H    0.115471
    35  H    0.173965
    36  H    0.163744
    37  H    0.143713
    38  H    0.163345
    39  H    0.217571
    40  H    0.158213
    41  H    0.158241
    42  H    0.154031
    43  H    0.219176
 Sum of Mulliken charges =  -0.00000
 Mulliken charges with hydrogens summed into heavy atoms:
               1
     1  O   -0.322278
     2  C    0.191392
     3  N    0.020891
     4  C    0.246608
     5  C   -0.103501
     6  C   -0.075782
     7  C    0.048783
     8  Cl  -0.102682
     9  C    0.111472
    10  C    0.200012
    11  C   -0.047038
    12  C    0.002124
    13  C    0.046199
    14  C    0.049743
    15  N   -0.248974
    16  C   -0.075187
    17  C    0.022137
    18  C    0.252990
    19  Cl  -0.078077
    20  C   -0.123570
    21  C    0.007081
    22  C   -0.068192
    23  C    0.131051
    24  S    0.459109
    25  N   -0.346814
    26  C    0.136762
    27  N   -0.334260
 Electronic spatial extent (au):  <R**2>=          11267.5005
 Charge=              0.0000 electrons
 Dipole moment (field-independent basis, Debye):
    X=              0.1160    Y=              1.6261    Z=             -0.4495  Tot=              1.6911
 Quadrupole moment (field-independent basis, Debye-Ang):
   XX=           -159.9355   YY=           -176.5663   ZZ=           -179.1488
   XY=             -6.8422   XZ=             -8.5586   YZ=             -4.6156
 Traceless Quadrupole moment (field-independent basis, Debye-Ang):
   XX=             11.9480   YY=             -4.6827   ZZ=             -7.2653
   XY=             -6.8422   XZ=             -8.5586   YZ=             -4.6156
 Octapole moment (field-independent basis, Debye-Ang**2):
  XXX=            -34.5855  YYY=            141.7785  ZZZ=              8.0762  XYY=             55.1894
  XXY=            -57.3042  XXZ=             52.6628  XZZ=             -3.9046  YZZ=             -6.6717
  YYZ=              8.3387  XYZ=            -19.4498
 Hexadecapole moment (field-independent basis, Debye-Ang**3):
 XXXX=          -8276.2690 YYYY=          -5316.0551 ZZZZ=          -1131.6588 XXXY=            -24.0912
 XXXZ=           -270.1926 YYYX=           -194.0567 YYYZ=           -180.4356 ZZZX=             32.4797
 ZZZY=             18.3341 XXYY=          -2174.2133 XXZZ=          -1674.2939 YYZZ=          -1094.9822
 XXYZ=             67.2557 YYXZ=            -81.3423 ZZXY=             21.2493
 N-N= 2.979231784720D+03 E-N=-1.148295759125D+04  KE= 2.338137545303D+03
 Breneman (CHELPG) radii used.
 Read replacement radii for each type of atom:
 Atom Element Radius
    1     8    1.70
    2     6    1.50
    3     7    1.70
    4     6    1.50
    5     6    1.50
    6     6    1.50
    7     6    1.50
    8    17    2.00
    9     6    1.50
   10     6    1.50
   11     6    1.50
   12     6    1.50
   13     6    1.50
   14     6    1.50
   15     7    1.70
   16     6    1.50
   17     6    1.50
   18     6    1.50
   19    17    2.00
   20     6    1.50
   21     6    1.50
   22     6    1.50
   23     6    1.50
   24    16    2.00
   25     7    1.70
   26     6    1.50
   27     7    1.70
   28     1    1.45
   29     1    1.45
   30     1    1.45
   31     1    1.45
   32     1    1.45
   33     1    1.45
   34     1    1.45
   35     1    1.45
   36     1    1.45
   37     1    1.45
   38     1    1.45
   39     1    1.45
   40     1    1.45
   41     1    1.45
   42     1    1.45
   43     1    1.45
 Generate Potential Derived Charges using the Breneman model, NDens= 1.
 Grid spacing= 0.300 Box extension= 2.800
 NStep X,Y,Z=   57     52     35   Total possible points=      103740
 Number of Points to Fit=   23498

 **********************************************************************

            Electrostatic Properties Using The SCF Density.

 **********************************************************************

       Atomic Center    1 is at  -0.260135 -4.434584 -1.190546
       Atomic Center    2 is at   0.138907 -3.344507 -0.837843
       Atomic Center    3 is at   1.482216 -3.073689 -0.794429
       Atomic Center    4 is at   2.201540 -1.908681 -0.504856
       Atomic Center    5 is at   3.517620 -2.039941 -0.041734
       Atomic Center    6 is at   4.262430 -0.914928  0.276898
       Atomic Center    7 is at   3.705873  0.359515  0.162913
       Atomic Center    8 is at   4.673095  1.702092  0.690167
       Atomic Center    9 is at   2.394526  0.520245 -0.307471
       Atomic Center   10 is at   1.660607  1.810489 -0.393355
       Atomic Center   11 is at   2.238327  2.997806 -0.861264
       Atomic Center   12 is at   1.452435  4.144789 -0.912071
       Atomic Center   13 is at   0.127256  4.078188 -0.490660
       Atomic Center   14 is at  -0.364985  2.847484 -0.054857
       Atomic Center   15 is at   0.378384  1.746780 -0.020506
       Atomic Center   16 is at   1.677247 -0.627094 -0.663204
       Atomic Center   17 is at  -0.838074 -2.256223 -0.491457
       Atomic Center   18 is at  -0.924011 -1.646655  0.767177
       Atomic Center   19 is at   0.142851 -2.118996  2.042816
       Atomic Center   20 is at  -1.855199 -0.640882  1.014332
       Atomic Center   21 is at  -1.743819 -1.881551 -1.488599
       Atomic Center   22 is at  -2.679491 -0.879895 -1.262022
       Atomic Center   23 is at  -2.718894 -0.273926 -0.010170
       Atomic Center   24 is at  -3.947629  1.024088  0.213340
       Atomic Center   25 is at  -3.342436  1.810611  1.407712
       Atomic Center   26 is at  -5.392179  0.060223  0.666637
       Atomic Center   27 is at  -4.426177  1.644461 -1.123713
       Atomic Center   28 is at   2.031786 -3.910466 -0.963789
       Atomic Center   29 is at   3.954561 -3.033224  0.087401
       Atomic Center   30 is at   5.281451 -1.016058  0.653026
       Atomic Center   31 is at   3.279140  3.017533 -1.183347
       Atomic Center   32 is at   1.875482  5.083349 -1.278659
       Atomic Center   33 is at  -0.517415  4.959561 -0.500303
       Atomic Center   34 is at  -1.397967  2.735062  0.299640
       Atomic Center   35 is at   0.669940 -0.472631 -1.041591
       Atomic Center   36 is at  -1.895999 -0.129046  1.975830
       Atomic Center   37 is at  -1.690544 -2.382363 -2.457389
       Atomic Center   38 is at  -3.370004 -0.546470 -2.040825
       Atomic Center   39 is at  -3.961115  2.601008  1.606883
       Atomic Center   40 is at  -5.154353 -0.481514  1.589936
       Atomic Center   41 is at  -5.652447 -0.621584 -0.151720
       Atomic Center   42 is at  -6.199703  0.787118  0.826391
       Atomic Center   43 is at  -3.685341  2.264482 -1.465074
   23498 points will be used for fitting atomic charges
 Fitting point charges to electrostatic potential
 Charges from ESP fit, RMS=   0.00392 RRMS=   0.26942:
 ESP charges:
               1
     1  O   -0.565235
     2  C    0.651561
     3  N   -0.582214
     4  C    0.357577
     5  C   -0.260709
     6  C   -0.065364
     7  C    0.040097
     8  Cl  -0.108806
     9  C   -0.000909
    10  C    0.385234
    11  C   -0.282876
    12  C    0.059953
    13  C   -0.247817
    14  C    0.222551
    15  N   -0.400396
    16  C   -0.238238
    17  C    0.030123
    18  C    0.020699
    19  Cl  -0.083643
    20  C   -0.079703
    21  C   -0.124429
    22  C   -0.155904
    23  C    0.101550
    24  S    0.686561
    25  N   -0.712870
    26  C   -0.346838
    27  N   -0.738306
    28  H    0.334119
    29  H    0.151238
    30  H    0.104841
    31  H    0.112774
    32  H    0.089919
    33  H    0.118667
    34  H    0.029944
    35  H    0.091397
    36  H    0.113311
    37  H    0.129862
    38  H    0.134041
    39  H    0.319221
    40  H    0.105525
    41  H    0.137245
    42  H    0.164244
    43  H    0.302000
 Sum of ESP charges =   0.00000
 ESP charges with hydrogens summed into heavy atoms:
               1
     1  O   -0.565235
     2  C    0.651561
     3  N   -0.248095
     4  C    0.357577
     5  C   -0.109470
     6  C    0.039477
     7  C    0.040097
     8  Cl  -0.108806
     9  C   -0.000909
    10  C    0.385234
    11  C   -0.170101
    12  C    0.149873
    13  C   -0.129150
    14  C    0.252495
    15  N   -0.400396
    16  C   -0.146841
    17  C    0.030123
    18  C    0.020699
    19  Cl  -0.083643
    20  C    0.033607
    21  C    0.005433
    22  C   -0.021863
    23  C    0.101550
    24  S    0.686561
    25  N   -0.393648
    26  C    0.060177
    27  N   -0.436306
 Charge=   0.00000 Dipole=     0.0966     1.6132    -0.6327 Tot=     1.7356
 -----------------------------------------------------------------

              Electrostatic Properties (Atomic Units)

 -----------------------------------------------------------------
    Center     Electric         -------- Electric Field --------
               Potential          X             Y             Z
 -----------------------------------------------------------------
    1 Atom    -22.369534
    2 Atom    -14.642884
    3 Atom    -18.321441
    4 Atom    -14.697412
    5 Atom    -14.742144
    6 Atom    -14.741945
    7 Atom    -14.691847
    8 Atom    -64.416262
    9 Atom    -14.731284
   10 Atom    -14.712785
   11 Atom    -14.751180
   12 Atom    -14.742338
   13 Atom    -14.752812
   14 Atom    -14.734350
   15 Atom    -18.386463
   16 Atom    -14.750512
   17 Atom    -14.719719
   18 Atom    -14.677931
   19 Atom    -64.410727
   20 Atom    -14.732727
   21 Atom    -14.732950
   22 Atom    -14.735040
   23 Atom    -14.716827
   24 Atom    -59.064063
   25 Atom    -18.414883
   26 Atom    -14.727743
   27 Atom    -18.416319
   28 Atom     -0.997301
   29 Atom     -1.076447
   30 Atom     -1.081851
   31 Atom     -1.090608
   32 Atom     -1.086080
   33 Atom     -1.088987
   34 Atom     -1.106921
   35 Atom     -1.090734
   36 Atom     -1.078420
   37 Atom     -1.079022
   38 Atom     -1.076895
   39 Atom     -1.039073
   40 Atom     -1.070197
   41 Atom     -1.069520
   42 Atom     -1.066876
   43 Atom     -1.041990
 -----------------------------------------------------------------
 Unable to Open any file for archive entry.
 1\1\GINC-NOTCH126\SP\RPBE1PBE\def2TZVP\C19H16Cl2N4O1S1\U1414944\14-Oct
 -2025\0\\#N Guess=Read Geom=Check Integral(Ultrafine) Density Pop=(Che
 lpG,ReadRadii) NMR pbe1pbe EmpiricalDispersion=GD3BJ def2TZVP\\SDI-dru
 g_3\\0,1\O,0,0.0452689764,-4.434209836,-1.2010952416\C,0,0.3564832317,
 -3.3131177027,-0.8572920449\N,0,1.672383697,-2.928665532,-0.8397559356
 \C,0,2.2950747276,-1.7057896027,-0.5652512808\C,0,3.626054218,-1.72311
 33734,-0.1271061767\C,0,4.2780930939,-0.5378338305,0.1760128831\C,0,3.
 6128341802,0.6842118691,0.0711863276\Cl,0,4.4718175501,2.1057962903,0.
 5784088279\C,0,2.2839198959,0.7312823312,-0.3743433835\C,0,1.441159706
 ,1.9540308177,-0.4477175617\C,0,1.9065980706,3.1849753161,-0.927888414
 9\C,0,1.0249415904,4.2606509979,-0.9650398616\C,0,-0.2815453939,4.0825
 003678,-0.5184137186\C,0,-0.6587375914,2.8155243442,-0.071919529\N,0,0
 .1763014663,1.7822883901,-0.0504653598\C,0,1.6605111453,-0.473998069,-
 0.715054631\C,0,-0.7030345953,-2.3111186662,-0.4936199578\C,0,-0.81688
 43264,-1.707624702,0.7657259915\Cl,0,0.310240384,-2.0837890813,2.02137
 1476\C,0,-1.8256203317,-0.7842061316,1.0294081123\C,0,-1.656077193,-2.
 0177660531,-1.4737728797\C,0,-2.6693162113,-1.0988885995,-1.230574879\
 C,0,-2.7366307722,-0.4950331089,0.0211090512\S,0,-4.0671432402,0.69413
 35536,0.2664786021\N,0,-3.5088047075,1.5326707865,1.4482207376\C,0,-5.
 4154294312,-0.3880999945,0.7482791111\N,0,-4.6219835695,1.2677683116,-
 1.0619326241\H,0,2.2880152838,-3.7160165098,-1.0185886209\H,0,4.148463
 621,-2.6751778037,-0.0051763521\H,0,5.3089384945,-0.5506988542,0.53279
 72231\H,0,2.9356766558,3.2924589832,-1.2697398938\H,0,1.3594222028,5.2
 308406874,-1.3406810223\H,0,-0.9990940279,4.9056845665,-0.5167921034\H
 ,0,-1.6714993469,2.6164402745,0.3022971461\H,0,0.636744466,-0.40700188
 54,-1.0743822494\H,0,-1.8917750699,-0.2750603926,1.9909240939\H,0,-1.5
 785721954,-2.5148843777,-2.4428291197\H,0,-3.400313127,-0.827685115,-1
 .9964768412\H,0,-4.1887641239,2.2680031359,1.6582277223\H,0,-5.1149010
 224,-0.9050447436,1.6675029178\H,0,-5.6319975856,-1.0918648159,-0.0641
 990561\H,0,-6.2788408371,0.2677553905,0.9225419342\H,0,-3.9432894577,1
 .9477356972,-1.418035016\\Version=ES64L-G16RevC.01\State=1-A\HF=-2345.
 246831\RMSD=8.054e-09\Dipole=-0.01244,0.6408238,-0.1784176\Quadrupole=
 9.4242538,-4.2775733,-5.1466805,-4.0537173,-6.3157468,-3.8888058\PG=C0
 1 [X(C19H16Cl2N4O1S1)]\\@
 The archive entry for this job was punched.


 THE ... SCIENTISTS WERE WRONG ... THE MOST PERSISTENT PRINCIPLES 
 OF THE UNIVERSE WERE ACCIDENT AND ERROR.

                          -- FRANK HERBERT IN DUNE
 Job cpu time:       0 days  4 hours 34 minutes 35.4 seconds.
 Elapsed time:       0 days  0 hours 18 minutes 34.3 seconds.
 File lengths (MBytes):  RWF=    525 Int=      0 D2E=      0 Chk=     83 Scr=      2
 Normal termination of Gaussian 16 at Tue Oct 14 00:26:14 2025.
