 Entering Gaussian System, Link 0=g16
 Input=SDI-drug_6.com
 Output=SDI-drug_6.log
 Initial command:
 /uufs/chpc.utah.edu/sys/installdir/gaussian16/C01/AVX/g16/l1.exe "/scratch/general/vast/u1414944/6939699-notchpeak.peaks/Gau-3959986.inp" -scrdir="/scratch/general/vast/u1414944/6939699-notchpeak.peaks/"
 Entering Link 1 = /uufs/chpc.utah.edu/sys/installdir/gaussian16/C01/AVX/g16/l1.exe PID=   3959988.
  
 Copyright (c) 1988-2019, Gaussian, Inc.  All Rights Reserved.
  
 This is part of the Gaussian(R) 16 program.  It is based on
 the Gaussian(R) 09 system (copyright 2009, Gaussian, Inc.),
 the Gaussian(R) 03 system (copyright 2003, Gaussian, Inc.),
 the Gaussian(R) 98 system (copyright 1998, Gaussian, Inc.),
 the Gaussian(R) 94 system (copyright 1995, Gaussian, Inc.),
 the Gaussian 92(TM) system (copyright 1992, Gaussian, Inc.),
 the Gaussian 90(TM) system (copyright 1990, Gaussian, Inc.),
 the Gaussian 88(TM) system (copyright 1988, Gaussian, Inc.),
 the Gaussian 86(TM) system (copyright 1986, Carnegie Mellon
 University), and the Gaussian 82(TM) system (copyright 1983,
 Carnegie Mellon University). Gaussian is a federally registered
 trademark of Gaussian, Inc.
  
 This software contains proprietary and confidential information,
 including trade secrets, belonging to Gaussian, Inc.
  
 This software is provided under written license and may be
 used, copied, transmitted, or stored only in accord with that
 written license.
  
 The following legend is applicable only to US Government
 contracts under FAR:
  
                    RESTRICTED RIGHTS LEGEND
  
 Use, reproduction and disclosure by the US Government is
 subject to restrictions as set forth in subparagraphs (a)
 and (c) of the Commercial Computer Software - Restricted
 Rights clause in FAR 52.227-19.
  
 Gaussian, Inc.
 340 Quinnipiac St., Bldg. 40, Wallingford CT 06492
  
  
 ---------------------------------------------------------------
 Warning -- This program may not be used in any manner that
 competes with the business of Gaussian, Inc. or will provide
 assistance to any competitor of Gaussian, Inc.  The licensee
 of this program is prohibited from giving any competitor of
 Gaussian, Inc. access to this program.  By using this program,
 the user acknowledges that Gaussian, Inc. is engaged in the
 business of creating and licensing software in the field of
 computational chemistry and represents and warrants to the
 licensee that it is not a competitor of Gaussian, Inc. and that
 it will not use this program in any manner prohibited above.
 ---------------------------------------------------------------
  

 Cite this work as:
 Gaussian 16, Revision C.01,
 M. J. Frisch, G. W. Trucks, H. B. Schlegel, G. E. Scuseria, 
 M. A. Robb, J. R. Cheeseman, G. Scalmani, V. Barone, 
 G. A. Petersson, H. Nakatsuji, X. Li, M. Caricato, A. V. Marenich, 
 J. Bloino, B. G. Janesko, R. Gomperts, B. Mennucci, H. P. Hratchian, 
 J. V. Ortiz, A. F. Izmaylov, J. L. Sonnenberg, D. Williams-Young, 
 F. Ding, F. Lipparini, F. Egidi, J. Goings, B. Peng, A. Petrone, 
 T. Henderson, D. Ranasinghe, V. G. Zakrzewski, J. Gao, N. Rega, 
 G. Zheng, W. Liang, M. Hada, M. Ehara, K. Toyota, R. Fukuda, 
 J. Hasegawa, M. Ishida, T. Nakajima, Y. Honda, O. Kitao, H. Nakai, 
 T. Vreven, K. Throssell, J. A. Montgomery, Jr., J. E. Peralta, 
 F. Ogliaro, M. J. Bearpark, J. J. Heyd, E. N. Brothers, K. N. Kudin, 
 V. N. Staroverov, T. A. Keith, R. Kobayashi, J. Normand, 
 K. Raghavachari, A. P. Rendell, J. C. Burant, S. S. Iyengar, 
 J. Tomasi, M. Cossi, J. M. Millam, M. Klene, C. Adamo, R. Cammi, 
 J. W. Ochterski, R. L. Martin, K. Morokuma, O. Farkas, 
 J. B. Foresman, and D. J. Fox, Gaussian, Inc., Wallingford CT, 2019.
 
 ******************************************
 Gaussian 16:  ES64L-G16RevC.01  3-Jul-2019
                13-Oct-2025 
 ******************************************
 %NProcShared=16
 Will use up to   16 processors via shared memory.
 %Mem=40GB
 %chk=SDI-drug_6.chk
 ----------------------------------------------------------------------
 #N OPT FREQ=NORAMAN Integral(Ultrafine) pbe1pbe EmpiricalDispersion=GD
 3BJ def2SVP
 ----------------------------------------------------------------------
 1/18=20,19=15,26=4,38=1/1,3;
 2/9=110,12=2,17=6,18=5,40=1/2;
 3/5=43,7=101,11=2,25=1,30=1,71=1,74=-13,75=-5,124=41/1,2,3;
 4//1;
 5/5=2,38=5/2;
 6/7=2,8=2,9=2,10=2,28=1/1;
 7//1,2,3,16;
 1/18=20,19=15,26=4/3(2);
 2/9=110/2;
 99//99;
 2/9=110/2;
 3/5=43,7=101,11=2,25=1,30=1,71=1,74=-13,75=-5,124=41/1,2,3;
 4/5=5,16=3,69=1/1;
 5/5=2,38=5/2;
 7//1,2,3,16;
 1/18=20,19=15,26=4/3(-5);
 2/9=110/2;
 6/7=2,8=2,9=2,10=2,19=2,28=1/1;
 99/9=1/99;
 ----------
 SDI-drug_6
 ----------
 Symbolic Z-matrix:
 Charge =  0 Multiplicity = 1
 O                     0.18133  -4.54259  -1.49673 
 C                     0.44043  -3.4255   -1.11235 
 N                     1.72848  -2.97566  -1.05445 
 C                     2.20295  -1.73625  -0.60532 
 C                     3.37739  -1.67763   0.14237 
 C                     3.81384  -0.4711    0.65225 
 C                     3.0672    0.68381   0.46391 
 Cl                    3.63176   2.15502   1.15054 
 C                     1.90303   0.65229  -0.30498 
 C                     1.01327   1.81558  -0.47523 
 C                     0.37384   2.07437  -1.68797 
 C                    -0.51011   3.13564  -1.76109 
 C                    -0.72358   3.90917  -0.63096 
 C                    -0.03277   3.57685   0.52474 
 N                     0.80483   2.56143   0.60421 
 C                     1.52044  -0.55686  -0.87485 
 C                    -0.6023   -2.42614  -0.70261 
 C                    -0.64958  -1.90965   0.59194 
 Cl                    0.39326  -2.5352    1.814 
 C                    -1.51123  -0.86976   0.8992 
 C                    -1.49578  -1.95297  -1.65922 
 C                    -2.35405  -0.90957  -1.36048 
 C                    -2.32944  -0.36418  -0.09137 
 S                    -3.32442   1.09944   0.29375 
 N                    -2.8965    1.80972   1.58239 
 C                    -4.86153   0.27673   0.84045 
 N                    -3.42361   1.761    -1.09162 
 H                     2.42412  -3.69834  -1.19942 
 H                     3.93768  -2.57983   0.33675 
 H                     4.72497  -0.42235   1.22698 
 H                     0.57893   1.46714  -2.55571 
 H                    -1.02525   3.355    -2.68403 
 H                    -1.4043    4.74595  -0.64514 
 H                    -0.15222   4.14825   1.43711 
 H                     0.6485   -0.56927  -1.50585 
 H                    -1.53096  -0.42348   1.88179 
 H                    -1.47502  -2.38588  -2.6481 
 H                    -3.01098  -0.48071  -2.0989 
 H                    -2.14167   2.46683   1.47183 
 H                    -5.22209  -0.35098   0.03461 
 H                    -5.58586   1.04263   1.09029 
 H                    -4.61571  -0.30407   1.71945 
 H                    -3.72333   2.72148  -1.06367 
 

 GradGradGradGradGradGradGradGradGradGradGradGradGradGradGradGradGradGrad
 Berny optimization.
 Initialization pass.
                           ----------------------------
                           !    Initial Parameters    !
                           ! (Angstroms and Degrees)  !
 --------------------------                            --------------------------
 ! Name  Definition              Value          Derivative Info.                !
 --------------------------------------------------------------------------------
 ! R1    R(1,2)                  1.2095         estimate D2E/DX2                !
 ! R2    R(2,3)                  1.3656         estimate D2E/DX2                !
 ! R3    R(2,17)                 1.5013         estimate D2E/DX2                !
 ! R4    R(3,4)                  1.4011         estimate D2E/DX2                !
 ! R5    R(3,28)                 1.0135         estimate D2E/DX2                !
 ! R6    R(4,5)                  1.3935         estimate D2E/DX2                !
 ! R7    R(4,16)                 1.389          estimate D2E/DX2                !
 ! R8    R(5,6)                  1.3806         estimate D2E/DX2                !
 ! R9    R(5,29)                 1.0797         estimate D2E/DX2                !
 ! R10   R(6,7)                  1.3881         estimate D2E/DX2                !
 ! R11   R(6,30)                 1.0784         estimate D2E/DX2                !
 ! R12   R(7,8)                  1.7189         estimate D2E/DX2                !
 ! R13   R(7,9)                  1.3955         estimate D2E/DX2                !
 ! R14   R(9,10)                 1.4744         estimate D2E/DX2                !
 ! R15   R(9,16)                 1.3904         estimate D2E/DX2                !
 ! R16   R(10,11)                1.3952         estimate D2E/DX2                !
 ! R17   R(10,15)                1.3285         estimate D2E/DX2                !
 ! R18   R(11,12)                1.3831         estimate D2E/DX2                !
 ! R19   R(11,31)                1.0788         estimate D2E/DX2                !
 ! R20   R(12,13)                1.386          estimate D2E/DX2                !
 ! R21   R(12,32)                1.0795         estimate D2E/DX2                !
 ! R22   R(13,14)                1.3868         estimate D2E/DX2                !
 ! R23   R(13,33)                1.0788         estimate D2E/DX2                !
 ! R24   R(14,15)                1.3187         estimate D2E/DX2                !
 ! R25   R(14,34)                1.0831         estimate D2E/DX2                !
 ! R26   R(16,35)                1.0764         estimate D2E/DX2                !
 ! R27   R(17,18)                1.3946         estimate D2E/DX2                !
 ! R28   R(17,21)                1.3919         estimate D2E/DX2                !
 ! R29   R(18,19)                1.724          estimate D2E/DX2                !
 ! R30   R(18,20)                1.385          estimate D2E/DX2                !
 ! R31   R(20,23)                1.3807         estimate D2E/DX2                !
 ! R32   R(20,36)                1.0794         estimate D2E/DX2                !
 ! R33   R(21,22)                1.3837         estimate D2E/DX2                !
 ! R34   R(21,37)                1.0797         estimate D2E/DX2                !
 ! R35   R(22,23)                1.3816         estimate D2E/DX2                !
 ! R36   R(22,38)                1.0774         estimate D2E/DX2                !
 ! R37   R(23,24)                1.8112         estimate D2E/DX2                !
 ! R38   R(24,25)                1.5324         estimate D2E/DX2                !
 ! R39   R(24,26)                1.8271         estimate D2E/DX2                !
 ! R40   R(24,27)                1.5384         estimate D2E/DX2                !
 ! R41   R(25,39)                1.0069         estimate D2E/DX2                !
 ! R42   R(26,40)                1.0832         estimate D2E/DX2                !
 ! R43   R(26,41)                1.0834         estimate D2E/DX2                !
 ! R44   R(26,42)                1.0818         estimate D2E/DX2                !
 ! R45   R(27,43)                1.0065         estimate D2E/DX2                !
 ! A1    A(1,2,3)              121.3191         estimate D2E/DX2                !
 ! A2    A(1,2,17)             123.5576         estimate D2E/DX2                !
 ! A3    A(3,2,17)             115.1046         estimate D2E/DX2                !
 ! A4    A(2,3,4)              128.6401         estimate D2E/DX2                !
 ! A5    A(2,3,28)             113.9819         estimate D2E/DX2                !
 ! A6    A(4,3,28)             116.3718         estimate D2E/DX2                !
 ! A7    A(3,4,5)              119.6457         estimate D2E/DX2                !
 ! A8    A(3,4,16)             121.5004         estimate D2E/DX2                !
 ! A9    A(5,4,16)             118.8499         estimate D2E/DX2                !
 ! A10   A(4,5,6)              120.0892         estimate D2E/DX2                !
 ! A11   A(4,5,29)             119.9225         estimate D2E/DX2                !
 ! A12   A(6,5,29)             119.9805         estimate D2E/DX2                !
 ! A13   A(5,6,7)              120.4604         estimate D2E/DX2                !
 ! A14   A(5,6,30)             120.2272         estimate D2E/DX2                !
 ! A15   A(7,6,30)             119.2872         estimate D2E/DX2                !
 ! A16   A(6,7,8)              118.7675         estimate D2E/DX2                !
 ! A17   A(6,7,9)              120.3111         estimate D2E/DX2                !
 ! A18   A(8,7,9)              120.891          estimate D2E/DX2                !
 ! A19   A(7,9,10)             123.3143         estimate D2E/DX2                !
 ! A20   A(7,9,16)             118.3597         estimate D2E/DX2                !
 ! A21   A(10,9,16)            118.2137         estimate D2E/DX2                !
 ! A22   A(9,10,11)            121.5532         estimate D2E/DX2                !
 ! A23   A(9,10,15)            116.3471         estimate D2E/DX2                !
 ! A24   A(11,10,15)           122.0204         estimate D2E/DX2                !
 ! A25   A(10,11,12)           118.7626         estimate D2E/DX2                !
 ! A26   A(10,11,31)           120.5065         estimate D2E/DX2                !
 ! A27   A(12,11,31)           120.723          estimate D2E/DX2                !
 ! A28   A(11,12,13)           118.9172         estimate D2E/DX2                !
 ! A29   A(11,12,32)           120.4048         estimate D2E/DX2                !
 ! A30   A(13,12,32)           120.678          estimate D2E/DX2                !
 ! A31   A(12,13,14)           117.9715         estimate D2E/DX2                !
 ! A32   A(12,13,33)           121.2891         estimate D2E/DX2                !
 ! A33   A(14,13,33)           120.7394         estimate D2E/DX2                !
 ! A34   A(13,14,15)           123.4441         estimate D2E/DX2                !
 ! A35   A(13,14,34)           121.3735         estimate D2E/DX2                !
 ! A36   A(15,14,34)           115.1824         estimate D2E/DX2                !
 ! A37   A(10,15,14)           118.8812         estimate D2E/DX2                !
 ! A38   A(4,16,9)             121.5782         estimate D2E/DX2                !
 ! A39   A(4,16,35)            120.1323         estimate D2E/DX2                !
 ! A40   A(9,16,35)            118.2418         estimate D2E/DX2                !
 ! A41   A(2,17,18)            121.5619         estimate D2E/DX2                !
 ! A42   A(2,17,21)            118.9847         estimate D2E/DX2                !
 ! A43   A(18,17,21)           119.3618         estimate D2E/DX2                !
 ! A44   A(17,18,19)           120.2062         estimate D2E/DX2                !
 ! A45   A(17,18,20)           120.3374         estimate D2E/DX2                !
 ! A46   A(19,18,20)           119.4391         estimate D2E/DX2                !
 ! A47   A(18,20,23)           118.9767         estimate D2E/DX2                !
 ! A48   A(18,20,36)           121.5849         estimate D2E/DX2                !
 ! A49   A(23,20,36)           119.3989         estimate D2E/DX2                !
 ! A50   A(17,21,22)           120.4074         estimate D2E/DX2                !
 ! A51   A(17,21,37)           118.7394         estimate D2E/DX2                !
 ! A52   A(22,21,37)           120.7989         estimate D2E/DX2                !
 ! A53   A(21,22,23)           119.0101         estimate D2E/DX2                !
 ! A54   A(21,22,38)           122.0331         estimate D2E/DX2                !
 ! A55   A(23,22,38)           118.9027         estimate D2E/DX2                !
 ! A56   A(20,23,22)           121.672          estimate D2E/DX2                !
 ! A57   A(20,23,24)           117.9627         estimate D2E/DX2                !
 ! A58   A(22,23,24)           120.3012         estimate D2E/DX2                !
 ! A59   A(23,24,25)           113.5764         estimate D2E/DX2                !
 ! A60   A(23,24,26)            99.3176         estimate D2E/DX2                !
 ! A61   A(23,24,27)           101.0367         estimate D2E/DX2                !
 ! A62   A(25,24,26)           101.0705         estimate D2E/DX2                !
 ! A63   A(25,24,27)           125.1665         estimate D2E/DX2                !
 ! A64   A(26,24,27)           114.131          estimate D2E/DX2                !
 ! A65   A(24,25,39)           114.804          estimate D2E/DX2                !
 ! A66   A(24,26,40)           108.5634         estimate D2E/DX2                !
 ! A67   A(24,26,41)           108.2481         estimate D2E/DX2                !
 ! A68   A(24,26,42)           107.0785         estimate D2E/DX2                !
 ! A69   A(40,26,41)           111.0198         estimate D2E/DX2                !
 ! A70   A(40,26,42)           111.6521         estimate D2E/DX2                !
 ! A71   A(41,26,42)           110.1262         estimate D2E/DX2                !
 ! A72   A(24,27,43)           113.8621         estimate D2E/DX2                !
 ! D1    D(1,2,3,4)           -178.1363         estimate D2E/DX2                !
 ! D2    D(1,2,3,28)           -10.1633         estimate D2E/DX2                !
 ! D3    D(17,2,3,4)             3.3823         estimate D2E/DX2                !
 ! D4    D(17,2,3,28)          171.3553         estimate D2E/DX2                !
 ! D5    D(1,2,17,18)          118.6541         estimate D2E/DX2                !
 ! D6    D(1,2,17,21)          -64.8485         estimate D2E/DX2                !
 ! D7    D(3,2,17,18)          -62.9026         estimate D2E/DX2                !
 ! D8    D(3,2,17,21)          113.5947         estimate D2E/DX2                !
 ! D9    D(2,3,4,5)            140.3545         estimate D2E/DX2                !
 ! D10   D(2,3,4,16)           -38.9052         estimate D2E/DX2                !
 ! D11   D(28,3,4,5)           -27.3766         estimate D2E/DX2                !
 ! D12   D(28,3,4,16)          153.3636         estimate D2E/DX2                !
 ! D13   D(3,4,5,6)           -176.4183         estimate D2E/DX2                !
 ! D14   D(3,4,5,29)             2.5667         estimate D2E/DX2                !
 ! D15   D(16,4,5,6)             2.8611         estimate D2E/DX2                !
 ! D16   D(16,4,5,29)         -178.1539         estimate D2E/DX2                !
 ! D17   D(3,4,16,9)           172.5613         estimate D2E/DX2                !
 ! D18   D(3,4,16,35)           -4.8833         estimate D2E/DX2                !
 ! D19   D(5,4,16,9)            -6.7041         estimate D2E/DX2                !
 ! D20   D(5,4,16,35)          175.8512         estimate D2E/DX2                !
 ! D21   D(4,5,6,7)              2.1435         estimate D2E/DX2                !
 ! D22   D(4,5,6,30)          -179.6935         estimate D2E/DX2                !
 ! D23   D(29,5,6,7)          -176.8408         estimate D2E/DX2                !
 ! D24   D(29,5,6,30)            1.3221         estimate D2E/DX2                !
 ! D25   D(5,6,7,8)            178.509          estimate D2E/DX2                !
 ! D26   D(5,6,7,9)             -3.4785         estimate D2E/DX2                !
 ! D27   D(30,6,7,8)             0.3289         estimate D2E/DX2                !
 ! D28   D(30,6,7,9)           178.3414         estimate D2E/DX2                !
 ! D29   D(6,7,9,10)           175.8334         estimate D2E/DX2                !
 ! D30   D(6,7,9,16)            -0.2393         estimate D2E/DX2                !
 ! D31   D(8,7,9,10)            -6.1968         estimate D2E/DX2                !
 ! D32   D(8,7,9,16)           177.7304         estimate D2E/DX2                !
 ! D33   D(7,9,10,11)          143.1237         estimate D2E/DX2                !
 ! D34   D(7,9,10,15)          -40.0525         estimate D2E/DX2                !
 ! D35   D(16,9,10,11)         -40.7981         estimate D2E/DX2                !
 ! D36   D(16,9,10,15)         136.0257         estimate D2E/DX2                !
 ! D37   D(7,9,16,4)             5.3782         estimate D2E/DX2                !
 ! D38   D(7,9,16,35)         -177.1305         estimate D2E/DX2                !
 ! D39   D(10,9,16,4)         -170.8977         estimate D2E/DX2                !
 ! D40   D(10,9,16,35)           6.5936         estimate D2E/DX2                !
 ! D41   D(9,10,11,12)         176.1986         estimate D2E/DX2                !
 ! D42   D(9,10,11,31)          -4.8173         estimate D2E/DX2                !
 ! D43   D(15,10,11,12)         -0.4442         estimate D2E/DX2                !
 ! D44   D(15,10,11,31)        178.5399         estimate D2E/DX2                !
 ! D45   D(9,10,15,14)        -176.7937         estimate D2E/DX2                !
 ! D46   D(11,10,15,14)          0.014          estimate D2E/DX2                !
 ! D47   D(10,11,12,13)          0.3898         estimate D2E/DX2                !
 ! D48   D(10,11,12,32)       -179.5203         estimate D2E/DX2                !
 ! D49   D(31,11,12,13)       -178.5919         estimate D2E/DX2                !
 ! D50   D(31,11,12,32)          1.498          estimate D2E/DX2                !
 ! D51   D(11,12,13,14)          0.0573         estimate D2E/DX2                !
 ! D52   D(11,12,13,33)        179.9803         estimate D2E/DX2                !
 ! D53   D(32,12,13,14)        179.9671         estimate D2E/DX2                !
 ! D54   D(32,12,13,33)         -0.1098         estimate D2E/DX2                !
 ! D55   D(12,13,14,15)         -0.5134         estimate D2E/DX2                !
 ! D56   D(12,13,14,34)        179.5403         estimate D2E/DX2                !
 ! D57   D(33,13,14,15)        179.563          estimate D2E/DX2                !
 ! D58   D(33,13,14,34)         -0.3832         estimate D2E/DX2                !
 ! D59   D(13,14,15,10)          0.4774         estimate D2E/DX2                !
 ! D60   D(34,14,15,10)       -179.5733         estimate D2E/DX2                !
 ! D61   D(2,17,18,19)          -6.5731         estimate D2E/DX2                !
 ! D62   D(2,17,18,20)         171.9068         estimate D2E/DX2                !
 ! D63   D(21,17,18,19)        176.9425         estimate D2E/DX2                !
 ! D64   D(21,17,18,20)         -4.5776         estimate D2E/DX2                !
 ! D65   D(2,17,21,22)        -171.6571         estimate D2E/DX2                !
 ! D66   D(2,17,21,37)           5.683          estimate D2E/DX2                !
 ! D67   D(18,17,21,22)          4.9185         estimate D2E/DX2                !
 ! D68   D(18,17,21,37)       -177.7414         estimate D2E/DX2                !
 ! D69   D(17,18,20,23)          0.6511         estimate D2E/DX2                !
 ! D70   D(17,18,20,36)       -177.049          estimate D2E/DX2                !
 ! D71   D(19,18,20,23)        179.1426         estimate D2E/DX2                !
 ! D72   D(19,18,20,36)          1.4426         estimate D2E/DX2                !
 ! D73   D(18,20,23,22)          3.0552         estimate D2E/DX2                !
 ! D74   D(18,20,23,24)       -174.0414         estimate D2E/DX2                !
 ! D75   D(36,20,23,22)       -179.1936         estimate D2E/DX2                !
 ! D76   D(36,20,23,24)          3.7098         estimate D2E/DX2                !
 ! D77   D(17,21,22,23)         -1.3234         estimate D2E/DX2                !
 ! D78   D(17,21,22,38)        175.9726         estimate D2E/DX2                !
 ! D79   D(37,21,22,23)       -178.6081         estimate D2E/DX2                !
 ! D80   D(37,21,22,38)         -1.3122         estimate D2E/DX2                !
 ! D81   D(21,22,23,20)         -2.7243         estimate D2E/DX2                !
 ! D82   D(21,22,23,24)        174.3054         estimate D2E/DX2                !
 ! D83   D(38,22,23,20)        179.8941         estimate D2E/DX2                !
 ! D84   D(38,22,23,24)         -3.0762         estimate D2E/DX2                !
 ! D85   D(20,23,24,25)         13.6603         estimate D2E/DX2                !
 ! D86   D(20,23,24,26)        -92.8332         estimate D2E/DX2                !
 ! D87   D(20,23,24,27)        150.1598         estimate D2E/DX2                !
 ! D88   D(22,23,24,25)       -163.4778         estimate D2E/DX2                !
 ! D89   D(22,23,24,26)         90.0287         estimate D2E/DX2                !
 ! D90   D(22,23,24,27)        -26.9783         estimate D2E/DX2                !
 ! D91   D(23,24,25,39)         84.7868         estimate D2E/DX2                !
 ! D92   D(26,24,25,39)       -169.8232         estimate D2E/DX2                !
 ! D93   D(27,24,25,39)        -39.4747         estimate D2E/DX2                !
 ! D94   D(23,24,26,40)        -58.0417         estimate D2E/DX2                !
 ! D95   D(23,24,26,41)       -178.6482         estimate D2E/DX2                !
 ! D96   D(23,24,26,42)         62.6455         estimate D2E/DX2                !
 ! D97   D(25,24,26,40)       -174.4718         estimate D2E/DX2                !
 ! D98   D(25,24,26,41)         64.9217         estimate D2E/DX2                !
 ! D99   D(25,24,26,42)        -53.7847         estimate D2E/DX2                !
 ! D100  D(27,24,26,40)         48.5813         estimate D2E/DX2                !
 ! D101  D(27,24,26,41)        -72.0252         estimate D2E/DX2                !
 ! D102  D(27,24,26,42)        169.2685         estimate D2E/DX2                !
 ! D103  D(23,24,27,43)       -164.0715         estimate D2E/DX2                !
 ! D104  D(25,24,27,43)        -34.5839         estimate D2E/DX2                !
 ! D105  D(26,24,27,43)         90.3756         estimate D2E/DX2                !
 --------------------------------------------------------------------------------
 Trust Radius=3.00D-01 FncErr=1.00D-07 GrdErr=1.00D-06 EigMax=2.50D+02 EigMin=1.00D-04
 Number of steps in this run=    232 maximum allowed number of steps=    258.
 GradGradGradGradGradGradGradGradGradGradGradGradGradGradGradGradGradGrad

                          Input orientation:                          
 ---------------------------------------------------------------------
 Center     Atomic      Atomic             Coordinates (Angstroms)
 Number     Number       Type             X           Y           Z
 ---------------------------------------------------------------------
      1          8           0        0.181333   -4.542593   -1.496727
      2          6           0        0.440433   -3.425502   -1.112352
      3          7           0        1.728484   -2.975660   -1.054449
      4          6           0        2.202953   -1.736251   -0.605316
      5          6           0        3.377387   -1.677631    0.142373
      6          6           0        3.813843   -0.471096    0.652247
      7          6           0        3.067200    0.683806    0.463912
      8         17           0        3.631764    2.155022    1.150537
      9          6           0        1.903028    0.652295   -0.304980
     10          6           0        1.013265    1.815579   -0.475231
     11          6           0        0.373836    2.074373   -1.687974
     12          6           0       -0.510112    3.135643   -1.761093
     13          6           0       -0.723580    3.909169   -0.630961
     14          6           0       -0.032768    3.576854    0.524743
     15          7           0        0.804828    2.561428    0.604211
     16          6           0        1.520444   -0.556863   -0.874849
     17          6           0       -0.602302   -2.426137   -0.702615
     18          6           0       -0.649576   -1.909648    0.591943
     19         17           0        0.393257   -2.535204    1.814005
     20          6           0       -1.511231   -0.869756    0.899199
     21          6           0       -1.495784   -1.952969   -1.659218
     22          6           0       -2.354053   -0.909572   -1.360480
     23          6           0       -2.329441   -0.364182   -0.091370
     24         16           0       -3.324417    1.099436    0.293753
     25          7           0       -2.896502    1.809724    1.582390
     26          6           0       -4.861534    0.276726    0.840449
     27          7           0       -3.423610    1.760995   -1.091621
     28          1           0        2.424121   -3.698341   -1.199417
     29          1           0        3.937685   -2.579835    0.336754
     30          1           0        4.724971   -0.422351    1.226983
     31          1           0        0.578934    1.467141   -2.555715
     32          1           0       -1.025254    3.355004   -2.684027
     33          1           0       -1.404299    4.745951   -0.645136
     34          1           0       -0.152221    4.148246    1.437114
     35          1           0        0.648501   -0.569267   -1.505849
     36          1           0       -1.530960   -0.423480    1.881789
     37          1           0       -1.475023   -2.385882   -2.648099
     38          1           0       -3.010979   -0.480711   -2.098897
     39          1           0       -2.141670    2.466833    1.471835
     40          1           0       -5.222093   -0.350983    0.034610
     41          1           0       -5.585856    1.042633    1.090287
     42          1           0       -4.615714   -0.304070    1.719445
     43          1           0       -3.723326    2.721477   -1.063672
 ---------------------------------------------------------------------
                    Distance matrix (angstroms):
                    1          2          3          4          5
     1  O    0.000000
     2  C    1.209451   0.000000
     3  N    2.246011   1.365572   0.000000
     4  C    3.571711   2.493417   1.401062   0.000000
     5  C    4.594498   3.640753   2.415811   1.393474   0.000000
     6  C    5.864325   4.818944   3.678909   2.403549   1.380649
     7  C    6.283915   5.125517   4.182018   2.783316   2.403329
     8  Cl   7.985708   6.815241   5.899859   4.501836   3.971188
     9  C    5.601014   4.406751   3.708669   2.425965   2.793280
    10  C    6.493222   5.310649   4.878833   3.748037   4.262983
    11  C    6.622528   5.530316   5.266808   4.363333   5.142861
    12  C    7.713838   6.661307   6.546654   5.694900   6.473286
    13  C    8.544045   7.442047   7.320713   6.358933   6.973401
    14  C    8.370042   7.206731   6.966441   5.874058   6.275745
    15  N    7.434367   6.238806   5.853515   4.678435   4.980058
    16  C    4.250411   3.074397   2.434362   1.389037   2.395642
    17  C    2.392506   1.501303   2.420398   2.890478   4.136688
    18  C    3.461987   2.527954   3.082557   3.098454   4.058617
    19  Cl   3.877560   3.059154   3.194505   3.125130   3.526304
    20  C    4.700529   3.793042   4.329818   4.099944   5.012388
    21  C    3.089544   2.493261   3.436211   3.852055   5.202819
    22  C    4.432334   3.768370   4.585791   4.692544   5.974770
    23  C    5.073277   4.252797   4.920782   4.763330   5.860689
    24  S    6.879579   6.051966   6.629922   6.277043   7.255977
    25  N    7.701037   6.767891   7.158444   6.585168   7.320996
    26  C    7.356544   6.755055   7.589268   7.486607   8.496272
    27  N    7.272892   6.467690   6.998669   6.642698   7.720133
    28  H    2.414799   2.004256   1.013506   2.061957   2.606220
    29  H    4.617819   3.878896   2.640586   2.146724   1.079671
    30  H    6.711158   5.731376   4.550083   3.382932   2.137309
    31  H    6.115263   5.102982   4.828431   4.086956   5.000060
    32  H    8.076978   7.112921   7.093371   6.376773   7.259421
    33  H    9.461316   8.390111   8.342970   7.418409   8.046558
    34  H    9.178746   8.013281   7.777852   6.659254   6.933638
    35  H    4.000706   2.890710   2.675977   2.142226   3.375192
    36  H    5.595839   4.675832   5.075342   4.674523   5.356336
    37  H    2.953062   2.666139   3.626296   4.257052   5.642184
    38  H    5.201188   4.642984   5.456936   5.567068   6.875109
    39  H    7.958691   6.932884   7.140093   6.391886   7.028801
    40  H    7.007967   6.544645   7.509028   7.580223   8.701877
    41  H    8.434920   7.818696   8.616620   8.441730   9.414781
    42  H    7.163833   6.582327   7.421639   7.345057   8.262172
    43  H    8.258367   7.424594   7.885410   7.429819   8.439598
                    6          7          8          9         10
     6  C    0.000000
     7  C    1.388072   0.000000
     8  Cl   2.679169   1.718914   0.000000
     9  C    2.414436   1.395523   2.713899   0.000000
    10  C    3.787259   2.526173   3.100787   1.474413   0.000000
    11  C    4.877468   3.717325   4.321776   2.504677   1.395202
    12  C    6.126121   4.874353   5.156970   3.756398   2.390959
    13  C    6.435958   5.096247   5.021931   4.196733   2.724702
    14  C    5.585568   4.240664   3.980203   3.603997   2.279522
    15  N    4.272316   2.943379   2.907783   2.382743   1.328507
    16  C    2.756639   2.392487   3.989258   1.390390   2.458741
    17  C    5.015991   4.949522   6.507573   3.988926   4.544658
    18  C    4.689901   4.533963   5.929877   3.726098   4.216778
    19  Cl   4.160604   4.397129   5.738147   4.114566   4.955232
    20  C    5.345683   4.854386   5.971839   3.927322   3.933595
    21  C    5.977537   5.681644   7.145772   4.491467   4.679648
    22  C    6.502789   5.937781   7.178227   4.655775   4.421419
    23  C    6.189049   5.525428   6.589741   4.358056   4.009039
    24  S    7.317776   6.407377   7.087792   5.280587   4.463148
    25  N    7.148149   6.171258   6.551640   5.285574   4.418158
    26  C    8.709582   7.948102   8.704037   6.871125   6.213884
    27  N    7.772003   6.760965   7.413558   5.497372   4.479819
    28  H    3.971787   4.731112   6.422036   4.472090   5.737445
    29  H    2.135802   3.380127   4.814011   3.872765   5.341462
    30  H    1.078356   2.134025   2.800678   3.386021   4.656461
    31  H    4.951002   3.990392   4.850696   2.735509   2.153710
    32  H    7.013318   5.813175   6.150744   4.641049   3.377006
    33  H    7.491982   6.142094   5.941320   5.273722   3.802705
    34  H    6.138729   4.828472   4.286445   4.413685   3.233691
    35  H    3.832285   3.361585   4.835080   2.123238   2.623494
    36  H    5.484611   4.937564   5.816969   4.210882   4.128197
    37  H    6.521564   6.303919   7.818486   5.111943   5.344644
    38  H    7.358470   6.698384   7.850601   5.352505   4.909560
    39  H    6.691134   5.597090   5.790768   4.775898   3.764148
    40  H    9.057816   8.364656   9.269095   7.203418   6.620696
    41  H    9.530876   8.683115   9.284695   7.627747   6.826177
    42  H    8.498484   7.847256   8.625061   6.892527   6.402727
    43  H    8.363361   7.252369   7.702009   6.042598   4.858210
                   11         12         13         14         15
    11  C    0.000000
    12  C    1.383114   0.000000
    13  C    2.384969   1.386041   0.000000
    14  C    2.705345   2.376462   1.386834   0.000000
    15  N    2.382664   2.766487   2.382874   1.318701   0.000000
    16  C    2.983167   4.306180   5.004055   4.632379   3.524693
    17  C    4.709391   5.662355   6.336872   6.153590   5.344493
    18  C    4.702958   5.568769   5.946394   5.521473   4.701698
    19  Cl   5.788992   6.764311   6.982487   6.261065   5.254393
    20  C    4.349119   4.911478   5.079362   4.700895   4.150202
    21  C    4.440246   5.184197   6.001522   6.122829   5.549387
    22  C    4.056175   4.463672   5.139154   5.391701   5.087866
    23  C    3.975349   4.283306   4.596899   4.602832   4.343578
    24  S    4.307530   4.035944   3.938788   4.126246   4.391409
    25  N    4.632540   4.316457   3.745421   3.527370   3.901505
    26  C    6.085520   5.820335   5.699329   5.857260   6.114191
    27  N    3.856739   3.290338   3.480951   4.172264   4.625606
    28  H    6.145452   7.458454   8.252598   7.870037   6.712667
    29  H    6.201790   7.539930   8.048046   7.328346   6.026517
    30  H    5.801981   6.999572   7.204217   6.254827   4.965713
    31  H    1.078782   2.145074   3.371161   3.783423   3.351660
    32  H    2.142333   1.079490   2.147833   3.366074   3.845968
    33  H    3.374404   2.153607   1.078788   2.148605   3.348619
    34  H    3.787329   3.373719   2.158830   1.083134   2.031665
    35  H    2.664103   3.890230   4.764916   4.666664   3.778630
    36  H    4.755074   5.194235   5.073226   4.482056   3.999724
    37  H    4.922804   5.674951   6.652908   6.906609   6.344377
    38  H    4.260784   4.409814   5.163146   5.676007   5.578690
    39  H    4.057854   3.682541   2.917715   2.564487   3.073039
    40  H    6.337512   6.130568   6.231251   6.526654   6.717913
    41  H    6.655911   6.186618   5.900970   6.130163   6.586642
    42  H    6.493312   6.387624   6.198749   6.123093   6.231942
    43  H    4.194667   3.314012   3.255199   4.107913   4.828211
                   16         17         18         19         20
    16  C    0.000000
    17  C    2.833707   0.000000
    18  C    2.947964   1.394588   0.000000
    19  Cl   3.523395   2.708580   1.724023   0.000000
    20  C    3.526500   2.411282   1.385002   2.690290   0.000000
    21  C    3.414963   1.391864   2.405342   3.996341   2.778324
    22  C    3.920709   2.408606   2.778011   4.501970   2.412070
    23  C    3.933520   2.758312   2.382714   3.969493   1.380688
    24  S    5.251822   4.564244   4.037113   5.416906   2.744436
    25  N    5.581054   5.331709   4.456836   5.454773   3.092788
    26  C    6.660838   5.275184   4.752113   6.038840   3.541525
    27  N    5.464717   5.063910   4.899314   6.439601   3.813320
    28  H    3.284945   3.320324   3.981960   3.815496   5.281295
    29  H    3.376900   4.659978   4.642977   3.840213   5.738589
    30  H    3.834682   6.009854   5.612582   4.855151   6.260817
    31  H    2.794341   4.470672   4.776996   5.928548   4.665438
    32  H    5.005637   6.125885   6.212058   7.545794   5.560960
    33  H    6.060258   7.217018   6.811532   7.892642   5.825168
    34  H    5.502820   6.928457   6.136754   6.716256   5.226530
    35  H    1.076383   2.378583   2.807553   3.866715   3.246382
    36  H    4.114354   3.398850   2.156209   2.857723   1.079368
    37  H    3.932245   2.132645   3.377283   4.839746   3.857885
    38  H    4.694452   3.396470   3.854699   5.578581   3.374786
    39  H    5.297238   5.571268   4.706818   5.618122   3.443572
    40  H    6.806710   5.117835   4.862918   6.282453   3.845404
    41  H    7.544511   6.331088   5.773316   7.005318   4.505143
    42  H    6.666835   5.145582   4.424860   5.484221   3.260462
    43  H    6.187107   6.030678   5.799682   7.270486   4.652223
                   21         22         23         24         25
    21  C    0.000000
    22  C    1.383671   0.000000
    23  C    2.382724   1.381555   0.000000
    24  S    4.058962   2.777446   1.811208   0.000000
    25  N    5.160222   4.043427   2.801589   1.532386   0.000000
    26  C    4.748489   3.541024   2.773183   1.827144   2.600368
    27  N    4.222820   2.889320   2.591156   1.538428   2.725904
    28  H    4.315483   5.534810   5.911069   7.635045   8.147776
    29  H    5.822323   6.727283   6.661027   8.141069   8.217417
    30  H    7.026431   7.552809   7.176780   8.244962   7.949549
    31  H    4.099428   3.959768   4.229112   4.846734   5.414788
    32  H    5.426436   4.658765   4.717533   4.386446   4.908337
    33  H    6.775858   5.779160   5.222644   4.226753   3.976176
    34  H    6.972607   6.185153   5.238183   4.545916   3.608444
    35  H    2.556581   3.025271   3.303173   4.669820   5.269143
    36  H    3.857370   3.380247   2.129423   2.838595   2.634681
    37  H    1.079691   2.147126   3.369595   4.921605   6.125419
    38  H    2.157934   1.077374   2.123261   2.884421   4.337174
    39  H    5.454842   4.412167   3.239369   2.157902   1.006869
    40  H    4.395542   3.237893   2.895424   2.402507   3.531664
    41  H    5.767330   4.501324   3.738941   2.398291   2.839581
    42  H    4.885508   3.868809   2.917140   2.381149   2.728112
    43  H    5.212203   3.891982   3.522723   2.152382   2.918317
                   26         27         28         29         30
    26  C    0.000000
    27  N    2.829059   0.000000
    28  H    8.546519   8.000746   0.000000
    29  H    9.264983   8.664394   2.429352   0.000000
    30  H    9.619730   8.748846   4.681179   2.463141   0.000000
    31  H    6.523014   4.272035   5.650351   6.002132   5.921875
    32  H    6.051014   3.290704   7.990740   8.305311   7.913880
    33  H    5.842381   3.631381   9.288170   9.119651   8.233112
    34  H    6.125546   4.774459   8.669358   7.950169   6.687415
    35  H    6.048248   4.709968   3.610794   4.272739   4.909946
    36  H    3.559129   4.146712   5.988423   6.078082   6.290107
    37  H    5.543276   4.839030   4.361715   6.184204   7.570446
    38  H    3.554999   2.492011   6.379853   7.656543   8.420796
    39  H    3.548645   2.951759   8.123509   7.982219   7.453730
    40  H    1.083234   2.993891   8.437548   9.431893  10.018529
    41  H    1.083363   3.154690   9.585370  10.217041  10.415278
    42  H    1.081844   3.686149   8.342668   8.958324   9.354405
    43  H    3.301212   1.006547   8.889522   9.421050   9.300778
                   31         32         33         34         35
    31  H    0.000000
    32  H    2.480708   0.000000
    33  H    4.281836   2.497095   0.000000
    34  H    4.864730   4.286634   2.502143   0.000000
    35  H    2.292164   4.425998   5.762496   5.617572   0.000000
    36  H    5.264745   5.948055   5.755381   4.795762   4.030806
    37  H    4.367272   5.758590   7.408098   7.818799   3.018970
    38  H    4.109779   4.358691   5.657989   6.488691   3.708280
    39  H    4.962079   4.393907   3.196821   2.605046   5.086212
    40  H    6.608121   6.224048   6.404400   6.921971   6.073264
    41  H    7.174829   6.355438   5.849075   6.268135   6.943007
    42  H    6.956906   6.758016   6.434838   6.310752   6.179386
    43  H    4.723240   3.210373   3.106695   4.587199   5.489753
                   36         37         38         39         40
    36  H    0.000000
    37  H    4.937007   0.000000
    38  H    4.247304   2.508079   0.000000
    39  H    2.982438   6.400556   4.711033   0.000000
    40  H    4.128170   5.037685   3.075338   4.415281   0.000000
    41  H    4.383850   6.529104   4.372810   3.746511   1.785761
    42  H    3.091329   5.768303   4.145614   3.722916   1.791247
    43  H    4.834559   5.800896   3.439933   2.999212   3.590617
                   41         42         43
    41  H    0.000000
    42  H    1.775000   0.000000
    43  H    3.305612   4.206665   0.000000
 Stoichiometry    C19H16Cl2N4OS
 Framework group  C1[X(C19H16Cl2N4OS)]
 Deg. of freedom   123
 Full point group                 C1      NOp   1
 Largest Abelian subgroup         C1      NOp   1
 Largest concise Abelian subgroup C1      NOp   1
                         Standard orientation:                         
 ---------------------------------------------------------------------
 Center     Atomic      Atomic             Coordinates (Angstroms)
 Number     Number       Type             X           Y           Z
 ---------------------------------------------------------------------
      1          8           0        2.258487   -4.087665   -1.117312
      2          6           0        1.987748   -2.941556   -0.841804
      3          7           0        2.929243   -1.954546   -0.906477
      4          6           0        2.795695   -0.596063   -0.590777
      5          6           0        3.830732    0.063113    0.069491
      6          6           0        3.679791    1.381457    0.450778
      7          6           0        2.484062    2.047932    0.221025
      8         17           0        2.330292    3.676725    0.748331
      9          6           0        1.445283    1.415259   -0.463189
     10          6           0        0.118858    2.026275   -0.666043
     11          6           0       -0.596052    1.842981   -1.850061
     12          6           0       -1.868478    2.376120   -1.948538
     13          6           0       -2.385381    3.079979   -0.872199
     14          6           0       -1.592522    3.215562    0.257535
     15          7           0       -0.382105    2.702727    0.361760
     16          6           0        1.643945    0.112850   -0.907539
     17          6           0        0.613537   -2.485943   -0.444473
     18          6           0        0.365610   -1.917940    0.804839
     19         17           0        1.606975   -1.876229    2.000469
     20          6           0       -0.868429   -1.354953    1.084879
     21          6           0       -0.419278   -2.568119   -1.373896
     22          6           0       -1.652103   -2.001361   -1.102835
     23          6           0       -1.849882   -1.377829    0.114041
     24         16           0       -3.394166   -0.491764    0.446533
     25          7           0       -3.308100    0.462262    1.642624
     26          6           0       -4.372934   -1.860274    1.159029
     27          7           0       -3.816503   -0.091425   -0.977588
     28          1           0        3.874546   -2.295032   -1.039389
     29          1           0        4.745489   -0.463116    0.297509
     30          1           0        4.481160    1.895200    0.957461
     31          1           0       -0.156454    1.309386   -2.678191
     32          1           0       -2.448142    2.243588   -2.849495
     33          1           0       -3.373196    3.512118   -0.907694
     34          1           0       -1.938552    3.760676    1.127186
     35          1           0        0.859532   -0.356697   -1.475713
     36          1           0       -1.067016   -0.868452    2.027703
     37          1           0       -0.226021   -3.042953   -2.324115
     38          1           0       -2.449254   -1.993608   -1.827558
     39          1           0       -2.939369    1.374629    1.429527
     40          1           0       -4.425633   -2.661535    0.431979
     41          1           0       -5.361060   -1.483787    1.394699
     42          1           0       -3.868782   -2.174270    2.063254
     43          1           0       -4.520972    0.626918   -1.006603
 ---------------------------------------------------------------------
 Rotational constants (GHZ):           0.1990928           0.1702632           0.1122608
 Standard basis: def2SVP (5D, 7F)
 There are   497 symmetry adapted cartesian basis functions of A   symmetry.
 There are   470 symmetry adapted basis functions of A   symmetry.
   470 basis functions,   823 primitive gaussians,   497 cartesian basis functions
   108 alpha electrons      108 beta electrons
       nuclear repulsion energy      3088.8722338822 Hartrees.
 NAtoms=   43 NActive=   43 NUniq=   43 SFac= 1.00D+00 NAtFMM=   60 NAOKFM=F Big=F
 Integral buffers will be    131072 words long.
 Raffenetti 2 integral format.
 Two-electron integral symmetry is turned on.
 Nuclear repulsion after empirical dispersion term =     3088.8010515672 Hartrees.
 One-electron integrals computed using PRISM.
   1 Symmetry operations used in ECPInt.
 ECPInt:  NShTT=   23436 NPrTT=   89682 LenC2=   21161 LenP2D=   53987.
 LDataN:  DoStor=T MaxTD1= 4 Len=   56
 NBasis=   470 RedAO= T EigKep=  1.78D-04  NBF=   470
 NBsUse=   470 1.00D-06 EigRej= -1.00D+00 NBFU=   470
 ExpMin= 1.22D-01 ExpMax= 1.04D+04 ExpMxC= 1.57D+03 IAcc=3 IRadAn=         5 AccDes= 0.00D+00
 Harris functional with IExCor= 1009 and IRadAn=       5 diagonalized for initial guess.
 HarFok:  IExCor= 1009 AccDes= 0.00D+00 IRadAn=         5 IDoV= 1 UseB2=F ITyADJ=14
 ICtDFT=  3500011 ScaDFX=  1.000000  1.000000  1.000000  1.000000
 FoFCou: FMM=F IPFlag=           0 FMFlag=      100000 FMFlg1=           0
         NFxFlg=           0 DoJE=T BraDBF=F KetDBF=T FulRan=T
         wScrn=  0.000000 ICntrl=       500 IOpCl=  0 I1Cent=   200000004 NGrid=           0
         NMat0=    1 NMatS0=      1 NMatT0=    0 NMatD0=    1 NMtDS0=    0 NMtDT0=    0
 Petite list used in FoFCou.
 Requested convergence on RMS density matrix=1.00D-08 within 128 cycles.
 Requested convergence on MAX density matrix=1.00D-06.
 Requested convergence on             energy=1.00D-06.
 No special actions if energy rises.
 Integral accuracy reduced to 1.0D-05 until final iterations.
 Initial convergence to 1.0D-05 achieved.  Increase integral accuracy.
 SCF Done:  E(RPBE1PBE) =  -2343.64515982     A.U. after   16 cycles
            NFock= 16  Conv=0.24D-08     -V/T= 2.0050

 **********************************************************************

            Population analysis using the SCF Density.

 **********************************************************************

 Orbital symmetries:
       Occupied  (A) (A) (A) (A) (A) (A) (A) (A) (A) (A) (A) (A)
                 (A) (A) (A) (A) (A) (A) (A) (A) (A) (A) (A) (A)
                 (A) (A) (A) (A) (A) (A) (A) (A) (A) (A) (A) (A)
                 (A) (A) (A) (A) (A) (A) (A) (A) (A) (A) (A) (A)
                 (A) (A) (A) (A) (A) (A) (A) (A) (A) (A) (A) (A)
                 (A) (A) (A) (A) (A) (A) (A) (A) (A) (A) (A) (A)
                 (A) (A) (A) (A) (A) (A) (A) (A) (A) (A) (A) (A)
                 (A) (A) (A) (A) (A) (A) (A) (A) (A) (A) (A) (A)
                 (A) (A) (A) (A) (A) (A) (A) (A) (A) (A) (A) (A)
       Virtual   (A) (A) (A) (A) (A) (A) (A) (A) (A) (A) (A) (A)
                 (A) (A) (A) (A) (A) (A) (A) (A) (A) (A) (A) (A)
                 (A) (A) (A) (A) (A) (A) (A) (A) (A) (A) (A) (A)
                 (A) (A) (A) (A) (A) (A) (A) (A) (A) (A) (A) (A)
                 (A) (A) (A) (A) (A) (A) (A) (A) (A) (A) (A) (A)
                 (A) (A) (A) (A) (A) (A) (A) (A) (A) (A) (A) (A)
                 (A) (A) (A) (A) (A) (A) (A) (A) (A) (A) (A) (A)
                 (A) (A) (A) (A) (A) (A) (A) (A) (A) (A) (A) (A)
                 (A) (A) (A) (A) (A) (A) (A) (A) (A) (A) (A) (A)
                 (A) (A) (A) (A) (A) (A) (A) (A) (A) (A) (A) (A)
                 (A) (A) (A) (A) (A) (A) (A) (A) (A) (A) (A) (A)
                 (A) (A) (A) (A) (A) (A) (A) (A) (A) (A) (A) (A)
                 (A) (A) (A) (A) (A) (A) (A) (A) (A) (A) (A) (A)
                 (A) (A) (A) (A) (A) (A) (A) (A) (A) (A) (A) (A)
                 (A) (A) (A) (A) (A) (A) (A) (A) (A) (A) (A) (A)
                 (A) (A) (A) (A) (A) (A) (A) (A) (A) (A) (A) (A)
                 (A) (A) (A) (A) (A) (A) (A) (A) (A) (A) (A) (A)
                 (A) (A) (A) (A) (A) (A) (A) (A) (A) (A) (A) (A)
                 (A) (A) (A) (A) (A) (A) (A) (A) (A) (A) (A) (A)
                 (A) (A) (A) (A) (A) (A) (A) (A) (A) (A) (A) (A)
                 (A) (A) (A) (A) (A) (A) (A) (A) (A) (A) (A) (A)
                 (A) (A) (A) (A) (A) (A) (A) (A) (A) (A) (A) (A)
                 (A) (A) (A) (A) (A) (A) (A) (A) (A) (A) (A) (A)
                 (A) (A) (A) (A) (A) (A) (A) (A) (A) (A) (A) (A)
                 (A) (A) (A) (A) (A) (A) (A) (A) (A) (A) (A) (A)
                 (A) (A) (A) (A) (A) (A) (A) (A) (A) (A) (A) (A)
                 (A) (A) (A) (A) (A) (A) (A) (A) (A) (A) (A) (A)
                 (A) (A) (A) (A) (A) (A) (A) (A) (A) (A) (A) (A)
                 (A) (A) (A) (A) (A) (A) (A) (A) (A) (A) (A) (A)
                 (A) (A) (A) (A) (A) (A) (A) (A) (A) (A) (A) (A)
                 (A) (A)
 The electronic state is 1-A.
 Alpha  occ. eigenvalues -- -101.69736-101.67410 -89.19181 -19.19250 -14.44225
 Alpha  occ. eigenvalues --  -14.38896 -14.35380 -14.35216 -10.35400 -10.31871
 Alpha  occ. eigenvalues --  -10.29658 -10.29589 -10.28532 -10.27963 -10.27757
 Alpha  occ. eigenvalues --  -10.27354 -10.27045 -10.26886 -10.26477 -10.26426
 Alpha  occ. eigenvalues --  -10.26123 -10.25977 -10.25531 -10.25381 -10.25251
 Alpha  occ. eigenvalues --  -10.25104 -10.25019  -9.54912  -9.52639  -8.16579
 Alpha  occ. eigenvalues --   -7.29045  -7.28070  -7.28023  -7.26777  -7.25799
 Alpha  occ. eigenvalues --   -7.25731  -6.10716  -6.10618  -6.10582  -1.07901
 Alpha  occ. eigenvalues --   -1.01460  -0.98296  -0.97853  -0.93935  -0.91836
 Alpha  occ. eigenvalues --   -0.88362  -0.86164  -0.86049  -0.83113  -0.82193
 Alpha  occ. eigenvalues --   -0.81469  -0.77827  -0.77092  -0.77006  -0.75447
 Alpha  occ. eigenvalues --   -0.70403  -0.67694  -0.66219  -0.65326  -0.64959
 Alpha  occ. eigenvalues --   -0.62987  -0.62733  -0.60333  -0.58121  -0.56145
 Alpha  occ. eigenvalues --   -0.54653  -0.53657  -0.52998  -0.51893  -0.51022
 Alpha  occ. eigenvalues --   -0.50655  -0.49394  -0.48669  -0.48336  -0.48017
 Alpha  occ. eigenvalues --   -0.46884  -0.46765  -0.45957  -0.45570  -0.44847
 Alpha  occ. eigenvalues --   -0.44658  -0.44224  -0.43716  -0.43293  -0.42529
 Alpha  occ. eigenvalues --   -0.41941  -0.41081  -0.40960  -0.39535  -0.39037
 Alpha  occ. eigenvalues --   -0.38256  -0.37238  -0.35759  -0.35366  -0.33903
 Alpha  occ. eigenvalues --   -0.32769  -0.31571  -0.30799  -0.30692  -0.30161
 Alpha  occ. eigenvalues --   -0.28537  -0.28023  -0.27761  -0.26651  -0.26388
 Alpha  occ. eigenvalues --   -0.25817  -0.25015  -0.23887
 Alpha virt. eigenvalues --   -0.05704  -0.05007  -0.03433  -0.02585  -0.01986
 Alpha virt. eigenvalues --    0.00752   0.03028   0.03856   0.05617   0.06055
 Alpha virt. eigenvalues --    0.07272   0.07618   0.08129   0.08363   0.09041
 Alpha virt. eigenvalues --    0.09583   0.10296   0.11189   0.11616   0.12249
 Alpha virt. eigenvalues --    0.12846   0.13029   0.13514   0.14052   0.14678
 Alpha virt. eigenvalues --    0.15291   0.15982   0.16079   0.16568   0.17999
 Alpha virt. eigenvalues --    0.18256   0.19814   0.21709   0.23144   0.23884
 Alpha virt. eigenvalues --    0.24931   0.25744   0.27080   0.27577   0.28521
 Alpha virt. eigenvalues --    0.28737   0.29251   0.29652   0.29831   0.30424
 Alpha virt. eigenvalues --    0.31351   0.32315   0.32863   0.33697   0.34315
 Alpha virt. eigenvalues --    0.36157   0.37156   0.37676   0.38209   0.39743
 Alpha virt. eigenvalues --    0.39895   0.41091   0.41663   0.42085   0.42463
 Alpha virt. eigenvalues --    0.43087   0.43216   0.44904   0.45319   0.45507
 Alpha virt. eigenvalues --    0.46136   0.46731   0.47130   0.48211   0.48690
 Alpha virt. eigenvalues --    0.49237   0.50173   0.50505   0.51565   0.51666
 Alpha virt. eigenvalues --    0.52603   0.52814   0.53558   0.55320   0.56336
 Alpha virt. eigenvalues --    0.57131   0.57730   0.58458   0.58920   0.59221
 Alpha virt. eigenvalues --    0.59514   0.60588   0.60719   0.61177   0.61587
 Alpha virt. eigenvalues --    0.62683   0.63226   0.63527   0.64045   0.64318
 Alpha virt. eigenvalues --    0.64608   0.65508   0.65842   0.66270   0.66311
 Alpha virt. eigenvalues --    0.66831   0.67176   0.67664   0.68128   0.68253
 Alpha virt. eigenvalues --    0.68459   0.68723   0.69379   0.69689   0.70241
 Alpha virt. eigenvalues --    0.70551   0.70748   0.71066   0.71601   0.72309
 Alpha virt. eigenvalues --    0.72453   0.72851   0.73188   0.74052   0.75167
 Alpha virt. eigenvalues --    0.75297   0.76157   0.76319   0.76794   0.77555
 Alpha virt. eigenvalues --    0.78298   0.78747   0.79097   0.80034   0.80419
 Alpha virt. eigenvalues --    0.81008   0.81395   0.82677   0.83197   0.83512
 Alpha virt. eigenvalues --    0.83856   0.84679   0.86131   0.86678   0.87227
 Alpha virt. eigenvalues --    0.87351   0.88233   0.89257   0.90133   0.91395
 Alpha virt. eigenvalues --    0.91868   0.92276   0.93131   0.94378   0.94651
 Alpha virt. eigenvalues --    0.94963   0.96993   0.97427   0.97978   0.99337
 Alpha virt. eigenvalues --    0.99684   1.00357   1.02601   1.03287   1.03913
 Alpha virt. eigenvalues --    1.05016   1.05745   1.06809   1.07612   1.08677
 Alpha virt. eigenvalues --    1.09675   1.11300   1.12882   1.13588   1.14108
 Alpha virt. eigenvalues --    1.15826   1.16372   1.17595   1.18876   1.19772
 Alpha virt. eigenvalues --    1.20318   1.20675   1.21711   1.22508   1.22933
 Alpha virt. eigenvalues --    1.23640   1.24211   1.24607   1.25329   1.26287
 Alpha virt. eigenvalues --    1.27422   1.28189   1.28955   1.29309   1.29708
 Alpha virt. eigenvalues --    1.31387   1.32354   1.32566   1.34196   1.36158
 Alpha virt. eigenvalues --    1.36731   1.37543   1.37718   1.39751   1.41106
 Alpha virt. eigenvalues --    1.42423   1.43736   1.46443   1.46756   1.47369
 Alpha virt. eigenvalues --    1.49151   1.49716   1.50414   1.51455   1.51975
 Alpha virt. eigenvalues --    1.52606   1.53939   1.55334   1.57460   1.59384
 Alpha virt. eigenvalues --    1.63828   1.65664   1.66095   1.68379   1.69921
 Alpha virt. eigenvalues --    1.70748   1.71030   1.71973   1.72854   1.73479
 Alpha virt. eigenvalues --    1.73788   1.74147   1.74698   1.75533   1.75689
 Alpha virt. eigenvalues --    1.76645   1.77191   1.77705   1.77940   1.78503
 Alpha virt. eigenvalues --    1.79197   1.80180   1.80818   1.81463   1.81787
 Alpha virt. eigenvalues --    1.82403   1.83472   1.84539   1.84801   1.86033
 Alpha virt. eigenvalues --    1.87029   1.87797   1.88042   1.90039   1.91307
 Alpha virt. eigenvalues --    1.92516   1.93471   1.94127   1.95307   1.95962
 Alpha virt. eigenvalues --    1.96722   1.97223   1.98484   1.99474   1.99972
 Alpha virt. eigenvalues --    2.00612   2.01946   2.02272   2.03260   2.05809
 Alpha virt. eigenvalues --    2.07512   2.09138   2.10155   2.12305   2.12473
 Alpha virt. eigenvalues --    2.13981   2.14722   2.15929   2.16349   2.17128
 Alpha virt. eigenvalues --    2.18613   2.19548   2.19682   2.21108   2.22858
 Alpha virt. eigenvalues --    2.24097   2.25103   2.26255   2.27196   2.29188
 Alpha virt. eigenvalues --    2.29767   2.30635   2.30894   2.31489   2.32113
 Alpha virt. eigenvalues --    2.32769   2.33511   2.34742   2.35555   2.36746
 Alpha virt. eigenvalues --    2.38450   2.39339   2.40184   2.42329   2.42780
 Alpha virt. eigenvalues --    2.43102   2.44516   2.46266   2.46390   2.48981
 Alpha virt. eigenvalues --    2.51959   2.54145   2.54214   2.55439   2.56571
 Alpha virt. eigenvalues --    2.57845   2.58802   2.60439   2.60735   2.61320
 Alpha virt. eigenvalues --    2.63094   2.63723   2.64541   2.66424   2.66772
 Alpha virt. eigenvalues --    2.68310   2.69626   2.70866   2.71710   2.73498
 Alpha virt. eigenvalues --    2.73735   2.75791   2.77178   2.80776   2.83356
 Alpha virt. eigenvalues --    2.84190   2.84421   2.84858   2.86069   2.86758
 Alpha virt. eigenvalues --    2.88490   2.89241   2.91111   2.92157   2.93740
 Alpha virt. eigenvalues --    2.94971   2.95395   2.96802   2.98514   3.03910
 Alpha virt. eigenvalues --    3.06663   3.08081   3.09842   3.12940   3.15621
 Alpha virt. eigenvalues --    3.16508   3.21333   3.22292   3.30238   3.35032
 Alpha virt. eigenvalues --    3.40482   3.43246   3.47983   3.55249   3.61027
 Alpha virt. eigenvalues --    3.67855   3.71975
          Condensed to atoms (all electrons):
               1          2          3          4          5          6
     1  O    7.661744   0.767671  -0.108973   0.002119  -0.000043   0.000000
     2  C    0.767671   4.694094   0.333920  -0.030849   0.005757  -0.000254
     3  N   -0.108973   0.333920   6.603606   0.323132  -0.089274   0.008611
     4  C    0.002119  -0.030849   0.323132   5.306525   0.204437   0.143473
     5  C   -0.000043   0.005757  -0.089274   0.204437   5.202862   0.253318
     6  C    0.000000  -0.000254   0.008611   0.143473   0.253318   5.011099
     7  C    0.000000   0.000050   0.000021  -0.202786   0.114639   0.299579
     8  Cl   0.000000  -0.000000   0.000001   0.001151   0.003314  -0.063535
     9  C    0.000001   0.001002   0.008490   0.140689  -0.155627   0.091561
    10  C   -0.000000  -0.000041  -0.000081   0.023672  -0.002828   0.014799
    11  C    0.000000  -0.000016  -0.000006   0.000223   0.000060  -0.000498
    12  C    0.000000   0.000000  -0.000000  -0.000060   0.000003  -0.000004
    13  C    0.000000  -0.000000   0.000000   0.000001   0.000000  -0.000003
    14  C   -0.000000   0.000000  -0.000000   0.000002  -0.000002   0.000031
    15  N    0.000000   0.000000   0.000000   0.000020   0.000006  -0.000160
    16  C   -0.000108  -0.028439  -0.076135   0.185141   0.067264  -0.128245
    17  C   -0.093355   0.121122  -0.159410  -0.001448   0.000305   0.000015
    18  C   -0.003239  -0.064269  -0.008429  -0.005868  -0.002861   0.000835
    19  Cl  -0.000643   0.018607  -0.006228  -0.006789   0.010209  -0.001628
    20  C    0.000031   0.008139   0.000065  -0.002353   0.000052  -0.000046
    21  C    0.000205  -0.037023  -0.002261   0.002407  -0.000146   0.000020
    22  C    0.000418   0.009827   0.000030  -0.000129   0.000009  -0.000003
    23  C   -0.000058  -0.000642  -0.000072   0.000259  -0.000042   0.000015
    24  S   -0.000000   0.000017  -0.000000  -0.000002   0.000000   0.000000
    25  N   -0.000000   0.000000  -0.000000   0.000000  -0.000000   0.000000
    26  C   -0.000000  -0.000001   0.000000  -0.000000  -0.000000   0.000000
    27  N    0.000000   0.000000  -0.000000  -0.000000  -0.000000   0.000000
    28  H    0.008060  -0.009925   0.327409  -0.015767  -0.015861   0.000468
    29  H   -0.000057  -0.000502  -0.009418  -0.084858   0.452858  -0.060821
    30  H   -0.000000  -0.000001  -0.000147   0.015915  -0.060777   0.441338
    31  H    0.000000   0.000014  -0.000015   0.001221  -0.000086   0.000079
    32  H   -0.000000  -0.000000   0.000000  -0.000001  -0.000000   0.000000
    33  H    0.000000  -0.000000  -0.000000   0.000000  -0.000000   0.000000
    34  H   -0.000000  -0.000000   0.000000  -0.000000  -0.000000   0.000000
    35  H   -0.000213  -0.004384  -0.004330  -0.088102   0.017972  -0.003634
    36  H    0.000003  -0.000090   0.000006   0.000078  -0.000007   0.000004
    37  H    0.003661  -0.010012   0.000487   0.000144   0.000004   0.000000
    38  H   -0.000001  -0.000203   0.000004  -0.000003  -0.000000   0.000000
    39  H   -0.000000  -0.000000   0.000000  -0.000001  -0.000000  -0.000000
    40  H    0.000000  -0.000000   0.000000   0.000000  -0.000000   0.000000
    41  H    0.000000   0.000000  -0.000000   0.000000   0.000000  -0.000000
    42  H   -0.000000   0.000000  -0.000000   0.000000   0.000000  -0.000000
    43  H   -0.000000  -0.000000   0.000000  -0.000000   0.000000  -0.000000
               7          8          9         10         11         12
     1  O    0.000000   0.000000   0.000001  -0.000000   0.000000   0.000000
     2  C    0.000050  -0.000000   0.001002  -0.000041  -0.000016   0.000000
     3  N    0.000021   0.000001   0.008490  -0.000081  -0.000006  -0.000000
     4  C   -0.202786   0.001151   0.140689   0.023672   0.000223  -0.000060
     5  C    0.114639   0.003314  -0.155627  -0.002828   0.000060   0.000003
     6  C    0.299579  -0.063535   0.091561   0.014799  -0.000498  -0.000004
     7  C    5.287548   0.264962   0.236051  -0.093743   0.012456  -0.000276
     8  Cl   0.264962  16.925742  -0.059727   0.004309  -0.002084   0.000149
     9  C    0.236051  -0.059727   5.350469   0.230064  -0.107609   0.009549
    10  C   -0.093743   0.004309   0.230064   5.228304   0.371818   0.007186
    11  C    0.012456  -0.002084  -0.107609   0.371818   5.081536   0.385863
    12  C   -0.000276   0.000149   0.009549   0.007186   0.385863   4.858800
    13  C    0.000211  -0.000279   0.002424  -0.094688   0.053655   0.347283
    14  C    0.000226   0.001576   0.006791  -0.030941  -0.109519   0.022974
    15  N   -0.001454  -0.014775  -0.100385   0.534518  -0.043498  -0.052221
    16  C    0.076848   0.002242   0.349352  -0.096476  -0.022613   0.001411
    17  C    0.000229   0.000000  -0.004261  -0.000274  -0.000009  -0.000036
    18  C   -0.001168   0.000002   0.003938   0.001258  -0.000294   0.000030
    19  Cl   0.000569  -0.000001   0.000411  -0.000318  -0.000002   0.000000
    20  C    0.000291  -0.000002  -0.001440   0.001023   0.000334  -0.000050
    21  C   -0.000076   0.000000   0.000460   0.000201  -0.000397   0.000003
    22  C    0.000017  -0.000000  -0.000456   0.000394   0.000871   0.000355
    23  C   -0.000081  -0.000000   0.001187  -0.000604  -0.000102  -0.001497
    24  S   -0.000001  -0.000000  -0.000146   0.000458   0.000125  -0.000857
    25  N   -0.000001  -0.000000  -0.000035   0.000590  -0.000293   0.000462
    26  C    0.000000  -0.000000  -0.000001   0.000001   0.000007   0.000024
    27  N    0.000000  -0.000000  -0.000009  -0.000938   0.000388   0.002619
    28  H   -0.000018  -0.000000  -0.000253   0.000013  -0.000000  -0.000000
    29  H    0.016751  -0.000162  -0.002624   0.000035  -0.000001   0.000000
    30  H   -0.073720   0.003358   0.018104  -0.000314   0.000013  -0.000000
    31  H   -0.000806  -0.000007  -0.014182  -0.040272   0.424809  -0.053810
    32  H    0.000003   0.000000  -0.000510   0.013236  -0.056706   0.442617
    33  H   -0.000002   0.000000   0.000110   0.000686   0.012200  -0.061460
    34  H   -0.000087   0.000374  -0.000309   0.007271   0.000592   0.007077
    35  H    0.021945  -0.000113  -0.061640  -0.033234   0.008597   0.000144
    36  H   -0.000018  -0.000000  -0.000101   0.000180  -0.000017   0.000029
    37  H   -0.000000  -0.000000  -0.000005  -0.000002   0.000003   0.000001
    38  H   -0.000000  -0.000000  -0.000003   0.000009  -0.000054   0.000149
    39  H    0.000007  -0.000001  -0.000100  -0.000505   0.000259  -0.001472
    40  H   -0.000000   0.000000   0.000000  -0.000000  -0.000000   0.000000
    41  H    0.000000   0.000000   0.000000  -0.000000   0.000000  -0.000002
    42  H   -0.000000   0.000000   0.000000   0.000000  -0.000001   0.000000
    43  H    0.000000   0.000000   0.000003  -0.000013   0.000196  -0.001637
              13         14         15         16         17         18
     1  O    0.000000  -0.000000   0.000000  -0.000108  -0.093355  -0.003239
     2  C   -0.000000   0.000000   0.000000  -0.028439   0.121122  -0.064269
     3  N    0.000000  -0.000000   0.000000  -0.076135  -0.159410  -0.008429
     4  C    0.000001   0.000002   0.000020   0.185141  -0.001448  -0.005868
     5  C    0.000000  -0.000002   0.000006   0.067264   0.000305  -0.002861
     6  C   -0.000003   0.000031  -0.000160  -0.128245   0.000015   0.000835
     7  C    0.000211   0.000226  -0.001454   0.076848   0.000229  -0.001168
     8  Cl  -0.000279   0.001576  -0.014775   0.002242   0.000000   0.000002
     9  C    0.002424   0.006791  -0.100385   0.349352  -0.004261   0.003938
    10  C   -0.094688  -0.030941   0.534518  -0.096476  -0.000274   0.001258
    11  C    0.053655  -0.109519  -0.043498  -0.022613  -0.000009  -0.000294
    12  C    0.347283   0.022974  -0.052221   0.001411  -0.000036   0.000030
    13  C    5.141869   0.345016  -0.027104  -0.000176   0.000009  -0.000032
    14  C    0.345016   4.839188   0.501438   0.000027  -0.000008   0.000009
    15  N   -0.027104   0.501438   6.377886  -0.002701   0.000011  -0.000089
    16  C   -0.000176   0.000027  -0.002701   5.219014   0.011910  -0.026490
    17  C    0.000009  -0.000008   0.000011   0.011910   6.029799   0.178062
    18  C   -0.000032   0.000009  -0.000089  -0.026490   0.178062   5.251684
    19  Cl  -0.000000   0.000000  -0.000004  -0.003878  -0.093139   0.294226
    20  C   -0.000057   0.000207   0.000506   0.000788   0.090548   0.264893
    21  C   -0.000019   0.000008   0.000002  -0.015405   0.217477   0.117205
    22  C   -0.000161   0.000086  -0.000040   0.000386   0.124205  -0.170642
    23  C    0.000867  -0.001061  -0.000044   0.000217  -0.229946   0.143417
    24  S    0.001598   0.001270  -0.000279  -0.000017   0.000301   0.003377
    25  N   -0.002406   0.001608  -0.001130   0.000003  -0.000019   0.002085
    26  C    0.000021  -0.000014  -0.000002  -0.000000  -0.000161  -0.000814
    27  N    0.004349  -0.002601   0.000052  -0.000019  -0.000036  -0.000073
    28  H    0.000000   0.000000  -0.000000   0.008707   0.017623   0.000123
    29  H   -0.000000   0.000000  -0.000000   0.018599  -0.000194  -0.000016
    30  H    0.000000  -0.000001   0.000032  -0.001763   0.000002  -0.000004
    31  H    0.011857  -0.000060   0.005620  -0.000939  -0.000101   0.000073
    32  H   -0.066000   0.010974  -0.000151  -0.000012  -0.000001  -0.000000
    33  H    0.426270  -0.049868   0.006271   0.000003  -0.000000   0.000000
    34  H   -0.080093   0.426836  -0.041920   0.000029  -0.000000   0.000003
    35  H    0.000023  -0.000105   0.000060   0.466952   0.021585  -0.016678
    36  H   -0.000029   0.000122   0.000297  -0.000059   0.018974  -0.050702
    37  H    0.000000   0.000000  -0.000000  -0.000115  -0.080509   0.016677
    38  H   -0.000035   0.000010  -0.000002  -0.000038   0.015710  -0.001780
    39  H    0.005826   0.004482   0.000487  -0.000007   0.000002  -0.000192
    40  H    0.000000  -0.000001   0.000000   0.000000   0.000017   0.000049
    41  H    0.000000  -0.000002   0.000000  -0.000000   0.000004   0.000005
    42  H   -0.000004   0.000005  -0.000000   0.000000   0.000027   0.000239
    43  H    0.003080  -0.000453   0.000026   0.000002   0.000006  -0.000010
              19         20         21         22         23         24
     1  O   -0.000643   0.000031   0.000205   0.000418  -0.000058  -0.000000
     2  C    0.018607   0.008139  -0.037023   0.009827  -0.000642   0.000017
     3  N   -0.006228   0.000065  -0.002261   0.000030  -0.000072  -0.000000
     4  C   -0.006789  -0.002353   0.002407  -0.000129   0.000259  -0.000002
     5  C    0.010209   0.000052  -0.000146   0.000009  -0.000042   0.000000
     6  C   -0.001628  -0.000046   0.000020  -0.000003   0.000015   0.000000
     7  C    0.000569   0.000291  -0.000076   0.000017  -0.000081  -0.000001
     8  Cl  -0.000001  -0.000002   0.000000  -0.000000  -0.000000  -0.000000
     9  C    0.000411  -0.001440   0.000460  -0.000456   0.001187  -0.000146
    10  C   -0.000318   0.001023   0.000201   0.000394  -0.000604   0.000458
    11  C   -0.000002   0.000334  -0.000397   0.000871  -0.000102   0.000125
    12  C    0.000000  -0.000050   0.000003   0.000355  -0.001497  -0.000857
    13  C   -0.000000  -0.000057  -0.000019  -0.000161   0.000867   0.001598
    14  C    0.000000   0.000207   0.000008   0.000086  -0.001061   0.001270
    15  N   -0.000004   0.000506   0.000002  -0.000040  -0.000044  -0.000279
    16  C   -0.003878   0.000788  -0.015405   0.000386   0.000217  -0.000017
    17  C   -0.093139   0.090548   0.217477   0.124205  -0.229946   0.000301
    18  C    0.294226   0.264893   0.117205  -0.170642   0.143417   0.003377
    19  Cl  16.896344  -0.065999   0.003232   0.000422   0.004623  -0.000036
    20  C   -0.065999   5.098716  -0.124162   0.074981   0.207055  -0.051012
    21  C    0.003232  -0.124162   5.084157   0.221492   0.128377   0.001593
    22  C    0.000422   0.074981   0.221492   5.154859   0.176049  -0.032923
    23  C    0.004623   0.207055   0.128377   0.176049   5.967721   0.112795
    24  S   -0.000036  -0.051012   0.001593  -0.032923   0.112795  14.607434
    25  N   -0.000002   0.011943   0.000043   0.004091  -0.075263   0.374087
    26  C    0.000004  -0.003964  -0.000469  -0.006121  -0.108930   0.278271
    27  N    0.000000   0.005868   0.001394   0.001299  -0.105176   0.372151
    28  H    0.000039   0.000018  -0.000267   0.000007   0.000008   0.000000
    29  H    0.000213   0.000003   0.000005   0.000000  -0.000000   0.000000
    30  H   -0.000017   0.000000  -0.000000   0.000000  -0.000000  -0.000000
    31  H    0.000000  -0.000071   0.000259   0.000142   0.000052  -0.000003
    32  H   -0.000000  -0.000003   0.000005   0.000019  -0.000042  -0.000088
    33  H    0.000000  -0.000005   0.000000  -0.000005   0.000048   0.000088
    34  H   -0.000000  -0.000011   0.000000  -0.000001   0.000016  -0.000078
    35  H    0.000683   0.000378  -0.013272   0.005486  -0.004226   0.000012
    36  H    0.001874   0.428696  -0.002643   0.013164  -0.073550  -0.007956
    37  H   -0.000102  -0.002344   0.468174  -0.073051   0.016818  -0.000129
    38  H    0.000009   0.013177  -0.064186   0.452962  -0.069155  -0.009998
    39  H   -0.000001   0.000052  -0.000039  -0.000400  -0.000255  -0.022067
    40  H    0.000000  -0.000526   0.000186   0.002754   0.003888  -0.014618
    41  H   -0.000000   0.000003   0.000004   0.000008   0.007206  -0.007661
    42  H   -0.000007   0.002522   0.000017  -0.000049   0.001217  -0.004796
    43  H   -0.000000  -0.000317  -0.000022  -0.000270   0.012059  -0.018218
              25         26         27         28         29         30
     1  O   -0.000000  -0.000000   0.000000   0.008060  -0.000057  -0.000000
     2  C    0.000000  -0.000001   0.000000  -0.009925  -0.000502  -0.000001
     3  N   -0.000000   0.000000  -0.000000   0.327409  -0.009418  -0.000147
     4  C    0.000000  -0.000000  -0.000000  -0.015767  -0.084858   0.015915
     5  C   -0.000000  -0.000000  -0.000000  -0.015861   0.452858  -0.060777
     6  C    0.000000   0.000000   0.000000   0.000468  -0.060821   0.441338
     7  C   -0.000001   0.000000   0.000000  -0.000018   0.016751  -0.073720
     8  Cl  -0.000000  -0.000000  -0.000000  -0.000000  -0.000162   0.003358
     9  C   -0.000035  -0.000001  -0.000009  -0.000253  -0.002624   0.018104
    10  C    0.000590   0.000001  -0.000938   0.000013   0.000035  -0.000314
    11  C   -0.000293   0.000007   0.000388  -0.000000  -0.000001   0.000013
    12  C    0.000462   0.000024   0.002619  -0.000000   0.000000  -0.000000
    13  C   -0.002406   0.000021   0.004349   0.000000  -0.000000   0.000000
    14  C    0.001608  -0.000014  -0.002601   0.000000   0.000000  -0.000001
    15  N   -0.001130  -0.000002   0.000052  -0.000000  -0.000000   0.000032
    16  C    0.000003  -0.000000  -0.000019   0.008707   0.018599  -0.001763
    17  C   -0.000019  -0.000161  -0.000036   0.017623  -0.000194   0.000002
    18  C    0.002085  -0.000814  -0.000073   0.000123  -0.000016  -0.000004
    19  Cl  -0.000002   0.000004   0.000000   0.000039   0.000213  -0.000017
    20  C    0.011943  -0.003964   0.005868   0.000018   0.000003   0.000000
    21  C    0.000043  -0.000469   0.001394  -0.000267   0.000005  -0.000000
    22  C    0.004091  -0.006121   0.001299   0.000007   0.000000   0.000000
    23  C   -0.075263  -0.108930  -0.105176   0.000008  -0.000000  -0.000000
    24  S    0.374087   0.278271   0.372151   0.000000   0.000000  -0.000000
    25  N    6.849530  -0.095290  -0.040969   0.000000  -0.000000   0.000000
    26  C   -0.095290   4.941761  -0.047241  -0.000000  -0.000000   0.000000
    27  N   -0.040969  -0.047241   6.876156   0.000000   0.000000  -0.000000
    28  H    0.000000  -0.000000   0.000000   0.527374   0.004879  -0.000023
    29  H   -0.000000  -0.000000   0.000000   0.004879   0.676605  -0.013507
    30  H    0.000000   0.000000  -0.000000  -0.000023  -0.013507   0.657457
    31  H   -0.000002  -0.000000  -0.000025  -0.000000  -0.000000  -0.000000
    32  H    0.000012   0.000002   0.001455  -0.000000  -0.000000   0.000000
    33  H    0.000028  -0.000004   0.000069   0.000000  -0.000000  -0.000000
    34  H   -0.000184  -0.000002  -0.000012  -0.000000   0.000000  -0.000000
    35  H   -0.000004   0.000001   0.000003  -0.000539  -0.000266   0.000025
    36  H    0.026074   0.000064   0.000863  -0.000002   0.000000   0.000000
    37  H    0.000001   0.000015  -0.000015  -0.000101   0.000000  -0.000000
    38  H    0.000361   0.000538   0.024996  -0.000000  -0.000000   0.000000
    39  H    0.352343   0.007606   0.000419  -0.000000  -0.000000  -0.000000
    40  H    0.005814   0.365493   0.002940  -0.000000  -0.000000  -0.000000
    41  H    0.007018   0.364820   0.000525   0.000000   0.000000  -0.000000
    42  H    0.005273   0.355649   0.003490  -0.000000  -0.000000   0.000000
    43  H   -0.000167  -0.006258   0.330966  -0.000000   0.000000  -0.000000
              31         32         33         34         35         36
     1  O    0.000000  -0.000000   0.000000  -0.000000  -0.000213   0.000003
     2  C    0.000014  -0.000000  -0.000000  -0.000000  -0.004384  -0.000090
     3  N   -0.000015   0.000000  -0.000000   0.000000  -0.004330   0.000006
     4  C    0.001221  -0.000001   0.000000  -0.000000  -0.088102   0.000078
     5  C   -0.000086  -0.000000  -0.000000  -0.000000   0.017972  -0.000007
     6  C    0.000079   0.000000   0.000000   0.000000  -0.003634   0.000004
     7  C   -0.000806   0.000003  -0.000002  -0.000087   0.021945  -0.000018
     8  Cl  -0.000007   0.000000   0.000000   0.000374  -0.000113  -0.000000
     9  C   -0.014182  -0.000510   0.000110  -0.000309  -0.061640  -0.000101
    10  C   -0.040272   0.013236   0.000686   0.007271  -0.033234   0.000180
    11  C    0.424809  -0.056706   0.012200   0.000592   0.008597  -0.000017
    12  C   -0.053810   0.442617  -0.061460   0.007077   0.000144   0.000029
    13  C    0.011857  -0.066000   0.426270  -0.080093   0.000023  -0.000029
    14  C   -0.000060   0.010974  -0.049868   0.426836  -0.000105   0.000122
    15  N    0.005620  -0.000151   0.006271  -0.041920   0.000060   0.000297
    16  C   -0.000939  -0.000012   0.000003   0.000029   0.466952  -0.000059
    17  C   -0.000101  -0.000001  -0.000000  -0.000000   0.021585   0.018974
    18  C    0.000073  -0.000000   0.000000   0.000003  -0.016678  -0.050702
    19  Cl   0.000000  -0.000000   0.000000  -0.000000   0.000683   0.001874
    20  C   -0.000071  -0.000003  -0.000005  -0.000011   0.000378   0.428696
    21  C    0.000259   0.000005   0.000000   0.000000  -0.013272  -0.002643
    22  C    0.000142   0.000019  -0.000005  -0.000001   0.005486   0.013164
    23  C    0.000052  -0.000042   0.000048   0.000016  -0.004226  -0.073550
    24  S   -0.000003  -0.000088   0.000088  -0.000078   0.000012  -0.007956
    25  N   -0.000002   0.000012   0.000028  -0.000184  -0.000004   0.026074
    26  C   -0.000000   0.000002  -0.000004  -0.000002   0.000001   0.000064
    27  N   -0.000025   0.001455   0.000069  -0.000012   0.000003   0.000863
    28  H   -0.000000  -0.000000   0.000000  -0.000000  -0.000539  -0.000002
    29  H   -0.000000  -0.000000  -0.000000   0.000000  -0.000266   0.000000
    30  H   -0.000000   0.000000  -0.000000  -0.000000   0.000025   0.000000
    31  H    0.659334  -0.011254  -0.000151   0.000088   0.000243  -0.000004
    32  H   -0.011254   0.653062  -0.011648  -0.000295   0.000020  -0.000000
    33  H   -0.000151  -0.011648   0.659807  -0.005568  -0.000001  -0.000002
    34  H    0.000088  -0.000295  -0.005568   0.648151   0.000000  -0.000017
    35  H    0.000243   0.000020  -0.000001   0.000000   0.688414  -0.000037
    36  H   -0.000004  -0.000000  -0.000002  -0.000017  -0.000037   0.616233
    37  H    0.000021  -0.000000  -0.000000  -0.000000  -0.000005   0.000032
    38  H   -0.000009   0.000039  -0.000002  -0.000000   0.000195  -0.000315
    39  H   -0.000005  -0.000023   0.000169   0.001053   0.000002  -0.000289
    40  H    0.000000   0.000000   0.000000   0.000000  -0.000000  -0.000006
    41  H    0.000000  -0.000000   0.000001   0.000000   0.000000  -0.000104
    42  H    0.000000  -0.000000  -0.000000   0.000000   0.000000   0.000987
    43  H   -0.000003  -0.000158   0.000873  -0.000006   0.000003  -0.000067
              37         38         39         40         41         42
     1  O    0.003661  -0.000001  -0.000000   0.000000   0.000000  -0.000000
     2  C   -0.010012  -0.000203  -0.000000  -0.000000   0.000000   0.000000
     3  N    0.000487   0.000004   0.000000   0.000000  -0.000000  -0.000000
     4  C    0.000144  -0.000003  -0.000001   0.000000   0.000000   0.000000
     5  C    0.000004  -0.000000  -0.000000  -0.000000   0.000000   0.000000
     6  C    0.000000   0.000000  -0.000000   0.000000  -0.000000  -0.000000
     7  C   -0.000000  -0.000000   0.000007  -0.000000   0.000000  -0.000000
[...]
    19  Cl   0.000011  -0.000000  -0.000000   0.000000   0.002983   0.004368
    20  C   -0.000756   0.000259  -0.000011  -0.000014   0.001992   0.441787
    21  C    0.001266  -0.000023   0.000001   0.000001  -0.022265  -0.004262
    22  C    0.001161   0.000200  -0.000053   0.000000   0.009049   0.007599
    23  C    0.000669  -0.001394   0.000277   0.000006  -0.006649  -0.067877
    24  S   -0.000283   0.000541   0.000075  -0.000010   0.000014  -0.003455
    25  N   -0.000110   0.000130   0.000251  -0.000061   0.000017   0.020025
    26  C   -0.000006   0.000171  -0.000048   0.000001  -0.000032  -0.001570
    27  N    0.000181   0.013451   0.000079  -0.000003  -0.000281   0.002068
    28  H   -0.000004  -0.000000   0.000000  -0.000000  -0.000787  -0.000003
    29  H   -0.000000  -0.000000   0.000000   0.000000  -0.000221  -0.000001
    30  H   -0.000002   0.000000  -0.000000  -0.000000   0.000065   0.000000
    31  H    0.536386  -0.008419   0.000105   0.000151   0.004947  -0.000021
    32  H   -0.008419   0.535326  -0.008767  -0.000292  -0.000149   0.000006
    33  H    0.000105  -0.008767   0.545686  -0.002038  -0.000001  -0.000008
    34  H    0.000151  -0.000292  -0.002038   0.548026   0.000009  -0.000004
    35  H    0.004947  -0.000149  -0.000001   0.000009   0.552296   0.000001
    36  H   -0.000021   0.000006  -0.000008  -0.000004   0.000001   0.480117
    37  H    0.000052  -0.000001  -0.000000   0.000000  -0.001369   0.000067
    38  H    0.000030   0.000204  -0.000003  -0.000000   0.000049  -0.000184
    39  H    0.000107  -0.000076   0.001259   0.000447  -0.000041  -0.001935
    40  H    0.000001  -0.000003   0.000001  -0.000000   0.000002   0.000270
    41  H    0.000000  -0.000006   0.000006  -0.000000   0.000000  -0.000139
    42  H   -0.000000  -0.000006   0.000000   0.000000   0.000004  -0.000757
    43  H    0.000015  -0.001205   0.000407  -0.000004   0.000006  -0.000082
              37         38         39         40         41         42
     1  O    0.003239  -0.000013  -0.000000   0.000000   0.000000  -0.000000
     2  C   -0.006273   0.000049  -0.000001  -0.000001   0.000000   0.000003
     3  N   -0.001178   0.000012  -0.000000   0.000000   0.000000   0.000000
     4  C    0.001283  -0.000004   0.000004   0.000000  -0.000000   0.000001
     5  C    0.000022  -0.000001   0.000000  -0.000000   0.000000   0.000000
     6  C    0.000011   0.000000  -0.000001   0.000000  -0.000000   0.000000
     7  C   -0.000022   0.000000   0.000037   0.000000   0.000000  -0.000000
     8  Cl   0.000000  -0.000000   0.000001  -0.000000  -0.000000   0.000000
     9  C   -0.000024   0.000009  -0.000048   0.000002   0.000001  -0.000001
    10  C    0.000043   0.000118  -0.001707  -0.000006  -0.000003   0.000007
    11  C   -0.000084  -0.000062   0.002922   0.000018   0.000012  -0.000016
    12  C    0.000021   0.000165  -0.005783  -0.000022  -0.000032   0.000019
    13  C   -0.000005   0.000025   0.011882   0.000011   0.000032  -0.000000
    14  C    0.000003  -0.000013  -0.004544  -0.000003  -0.000017   0.000007
    15  N   -0.000001   0.000002   0.001503   0.000000   0.000001  -0.000002
    16  C   -0.000380  -0.000015  -0.000063  -0.000002  -0.000001  -0.000000
    17  C   -0.059557   0.014662  -0.000037   0.000209   0.000010  -0.000222
    18  C    0.014292  -0.004674  -0.000056  -0.000140   0.000046   0.001137
    19  Cl  -0.000201   0.000028  -0.000010   0.000001  -0.000001  -0.000012
    20  C   -0.003293   0.013136  -0.001503   0.004583  -0.000272  -0.013617
    21  C    0.455794  -0.067313   0.000069  -0.000562   0.000010   0.000123
    22  C   -0.075392   0.440358  -0.000475  -0.005862  -0.000658   0.002364
    23  C    0.014299  -0.053960   0.006555   0.006293   0.008101   0.014434
    24  S   -0.000288  -0.002674  -0.034449  -0.024750  -0.015942  -0.019092
    25  N    0.000004   0.000826   0.361452   0.005708   0.005830   0.003471
    26  C    0.000025   0.001103   0.006442   0.381317   0.374249   0.369723
    27  N   -0.000106   0.022756   0.000428   0.001601   0.000004   0.004038
    28  H   -0.000074  -0.000001   0.000000  -0.000000   0.000000  -0.000000
    29  H   -0.000001  -0.000000   0.000000  -0.000000   0.000000  -0.000000
    30  H   -0.000000  -0.000000  -0.000000   0.000000  -0.000000   0.000000
    31  H    0.000052   0.000030   0.000107   0.000001   0.000000  -0.000000
    32  H   -0.000001   0.000204  -0.000076  -0.000003  -0.000006  -0.000006
    33  H   -0.000000  -0.000003   0.001259   0.000001   0.000006   0.000000
    34  H    0.000000  -0.000000   0.000447  -0.000000  -0.000000   0.000000
    35  H   -0.001369   0.000049  -0.000041   0.000002   0.000000   0.000004
    36  H    0.000067  -0.000184  -0.001935   0.000270  -0.000139  -0.000757
    37  H    0.520742  -0.007387  -0.000001  -0.000016  -0.000001   0.000002
    38  H   -0.007387   0.481842  -0.000044   0.000482  -0.000103  -0.000159
    39  H   -0.000001  -0.000044   0.438211  -0.000234  -0.000099  -0.000544
    40  H   -0.000016   0.000482  -0.000234   0.506687  -0.014417  -0.016908
    41  H   -0.000001  -0.000103  -0.000099  -0.014417   0.498642  -0.010867
    42  H    0.000002  -0.000159  -0.000544  -0.016908  -0.010867   0.507133
    43  H   -0.000003  -0.001379   0.000841  -0.000005   0.001964   0.000216
              43
     1  O   -0.000000
     2  C   -0.000000
     3  N    0.000000
     4  C    0.000000
     5  C   -0.000000
     6  C    0.000000
     7  C    0.000000
     8  Cl  -0.000000
     9  C    0.000015
    10  C   -0.000126
    11  C    0.000824
    12  C   -0.001531
    13  C    0.001473
    14  C   -0.000391
    15  N    0.000014
    16  C   -0.000004
    17  C   -0.000011
    18  C    0.000065
    19  Cl  -0.000000
    20  C   -0.001190
    21  C   -0.000064
    22  C   -0.002693
    23  C    0.017589
    24  S   -0.013324
    25  N   -0.001414
    26  C   -0.008435
    27  N    0.304427
    28  H    0.000000
    29  H   -0.000000
    30  H    0.000000
    31  H    0.000015
    32  H   -0.001205
    33  H    0.000407
    34  H   -0.000004
    35  H    0.000006
    36  H   -0.000082
    37  H   -0.000003
    38  H   -0.001379
    39  H    0.000841
    40  H   -0.000005
    41  H    0.001964
    42  H    0.000216
    43  H    0.488228
 Mulliken charges:
               1
     1  O   -0.317257
     2  C    0.186446
     3  N   -0.218125
     4  C    0.217075
     5  C   -0.215639
     6  C   -0.193877
     7  C    0.066772
     8  Cl  -0.078647
     9  C    0.144818
    10  C    0.174850
    11  C   -0.197102
    12  C   -0.053166
    13  C   -0.167726
    14  C   -0.075346
    15  N   -0.221734
    16  C   -0.271758
    17  C   -0.031022
    18  C    0.313044
    19  Cl  -0.069411
    20  C   -0.361606
    21  C   -0.115726
    22  C   -0.241906
    23  C    0.168646
    24  S    0.476500
    25  N   -0.545987
    26  C   -0.336573
    27  N   -0.577474
    28  H    0.235082
    29  H    0.118715
    30  H    0.127941
    31  H    0.137237
    32  H    0.124317
    33  H    0.127243
    34  H    0.126942
    35  H    0.161135
    36  H    0.171238
    37  H    0.145757
    38  H    0.162134
    39  H    0.219492
    40  H    0.155746
    41  H    0.153652
    42  H    0.159523
    43  H    0.215778
 Sum of Mulliken charges =  -0.00000
 Mulliken charges with hydrogens summed into heavy atoms:
               1
     1  O   -0.317257
     2  C    0.186446
     3  N    0.016956
     4  C    0.217075
     5  C   -0.096924
     6  C   -0.065937
     7  C    0.066772
     8  Cl  -0.078647
     9  C    0.144818
    10  C    0.174850
    11  C   -0.059865
    12  C    0.071151
    13  C   -0.040483
    14  C    0.051596
    15  N   -0.221734
    16  C   -0.110624
    17  C   -0.031022
    18  C    0.313044
    19  Cl  -0.069411
    20  C   -0.190368
    21  C    0.030030
    22  C   -0.079773
    23  C    0.168646
    24  S    0.476500
    25  N   -0.326495
    26  C    0.132348
    27  N   -0.361696
 Electronic spatial extent (au):  <R**2>=          10262.7700
 Charge=              0.0000 electrons
 Dipole moment (field-independent basis, Debye):
    X=             -1.9254    Y=              0.2257    Z=             -1.3050  Tot=              2.3369
 Quadrupole moment (field-independent basis, Debye-Ang):
   XX=           -154.2043   YY=           -191.7503   ZZ=           -178.0137
   XY=             -7.4731   XZ=              0.6786   YZ=             -4.9949
 Traceless Quadrupole moment (field-independent basis, Debye-Ang):
   XX=             20.4518   YY=            -17.0942   ZZ=             -3.3576
   XY=             -7.4731   XZ=              0.6786   YZ=             -4.9949
 Octapole moment (field-independent basis, Debye-Ang**2):
  XXX=            -20.3738  YYY=            128.1057  ZZZ=             -1.2679  XYY=            -38.4222
  XXY=            -57.2900  XXZ=             18.4493  XZZ=              2.4542  YZZ=            -11.8860
  YYZ=             16.6488  XYZ=             12.6234
 Hexadecapole moment (field-independent basis, Debye-Ang**3):
 XXXX=          -6278.5474 YYYY=          -5820.7086 ZZZZ=          -1306.9854 XXXY=           -157.4797
 XXXZ=             -3.7728 YYYX=            -77.2120 YYYZ=            -57.7879 ZZZX=             43.7884
 ZZZY=              0.6517 XXYY=          -1957.4719 XXZZ=          -1458.0570 YYZZ=          -1115.6110
 XXYZ=            -57.4354 YYXZ=             53.9255 ZZXY=             24.5544
 N-N= 3.043238348787D+03 E-N=-1.161049478301D+04  KE= 2.338142534004D+03
 Breneman (CHELPG) radii used.
 Read replacement radii for each type of atom:
 Atom Element Radius
    1     8    1.70
    2     6    1.50
    3     7    1.70
    4     6    1.50
    5     6    1.50
    6     6    1.50
    7     6    1.50
    8    17    2.00
    9     6    1.50
   10     6    1.50
   11     6    1.50
   12     6    1.50
   13     6    1.50
   14     6    1.50
   15     7    1.70
   16     6    1.50
   17     6    1.50
   18     6    1.50
   19    17    2.00
   20     6    1.50
   21     6    1.50
   22     6    1.50
   23     6    1.50
   24    16    2.00
   25     7    1.70
   26     6    1.50
   27     7    1.70
   28     1    1.45
   29     1    1.45
   30     1    1.45
   31     1    1.45
   32     1    1.45
   33     1    1.45
   34     1    1.45
   35     1    1.45
   36     1    1.45
   37     1    1.45
   38     1    1.45
   39     1    1.45
   40     1    1.45
   41     1    1.45
   42     1    1.45
   43     1    1.45
 Generate Potential Derived Charges using the Breneman model, NDens= 1.
 Grid spacing= 0.300 Box extension= 2.800
 NStep X,Y,Z=   56     50     35   Total possible points=       98000
 Number of Points to Fit=   22778

 **********************************************************************

            Electrostatic Properties Using The SCF Density.

 **********************************************************************

       Atomic Center    1 is at   1.066130 -4.539500 -0.999267
       Atomic Center    2 is at   1.113771 -3.360359 -0.726291
       Atomic Center    3 is at   2.296760 -2.663450 -0.774277
       Atomic Center    4 is at   2.582005 -1.312159 -0.526924
       Atomic Center    5 is at   3.830215 -0.966246  0.002598
       Atomic Center    6 is at   4.127390  0.360880  0.280644
       Atomic Center    7 is at   3.173055  1.362559  0.096633
       Atomic Center    8 is at   3.634280  2.987725  0.456899
       Atomic Center    9 is at   1.906270  1.038692 -0.416435
       Atomic Center   10 is at   0.775499  1.996206 -0.533411
       Atomic Center   11 is at  -0.125820  1.917312 -1.606448
       Atomic Center   12 is at  -1.244502  2.741351 -1.609023
       Atomic Center   13 is at  -1.413900  3.642109 -0.559645
       Atomic Center   14 is at  -0.453020  3.659051  0.451603
       Atomic Center   15 is at   0.603747  2.855577  0.472442
       Atomic Center   16 is at   1.664629 -0.290482 -0.777148
       Atomic Center   17 is at  -0.122157 -2.574926 -0.388071
       Atomic Center   18 is at  -0.314496 -1.942423  0.845343
       Atomic Center   19 is at   0.826344 -2.158764  2.124745
       Atomic Center   20 is at  -1.392760 -1.083087  1.039926
       Atomic Center   21 is at  -1.082959 -2.416317 -1.391914
       Atomic Center   22 is at  -2.166826 -1.562672 -1.217014
       Atomic Center   23 is at  -2.289067 -0.889486 -0.004338
       Atomic Center   24 is at  -3.591308  0.327303  0.277946
       Atomic Center   25 is at  -3.251170  1.328893  1.407235
       Atomic Center   26 is at  -4.835796 -0.681810  1.089256
       Atomic Center   27 is at  -3.958765  0.694879 -1.184776
       Atomic Center   28 is at   3.092144 -3.277920 -0.918655
       Atomic Center   29 is at   4.571027 -1.742865  0.207664
       Atomic Center   30 is at   5.108269  0.635507  0.671483
       Atomic Center   31 is at   0.043619  1.213718 -2.423020
       Atomic Center   32 is at  -1.979793  2.669104 -2.411961
       Atomic Center   33 is at  -2.275968  4.310935 -0.517520
       Atomic Center   34 is at  -0.551648  4.351457  1.295913
       Atomic Center   35 is at   0.699826 -0.524849 -1.217892
       Atomic Center   36 is at  -1.513777 -0.528497  1.973876
       Atomic Center   37 is at  -0.937679 -2.938694 -2.340295
       Atomic Center   38 is at  -2.892366 -1.372003 -2.008699
       Atomic Center   39 is at  -2.569466  1.999489  1.037185
       Atomic Center   40 is at  -5.121954 -1.482196  0.396298
       Atomic Center   41 is at  -5.680012 -0.009298  1.292027
       Atomic Center   42 is at  -4.434996 -1.078230  2.029906
       Atomic Center   43 is at  -4.679162  1.420697 -1.147665
   22778 points will be used for fitting atomic charges
 Fitting point charges to electrostatic potential
 Charges from ESP fit, RMS=   0.00389 RRMS=   0.24856:
 ESP charges:
               1
     1  O   -0.565028
     2  C    0.685542
     3  N   -0.603487
     4  C    0.304441
     5  C   -0.237946
     6  C   -0.047981
     7  C    0.025787
     8  Cl  -0.109265
     9  C    0.004633
    10  C    0.460965
    11  C   -0.339067
    12  C    0.173074
    13  C   -0.367097
    14  C    0.358599
    15  N   -0.543219
    16  C   -0.229630
    17  C   -0.027044
    18  C    0.062024
    19  Cl  -0.084635
    20  C   -0.111668
    21  C   -0.161150
    22  C   -0.048451
    23  C    0.048209
    24  S    0.711542
    25  N   -0.762746
    26  C   -0.317899
    27  N   -0.761626
    28  H    0.344677
    29  H    0.148383
    30  H    0.100775
    31  H    0.086526
    32  H    0.080487
    33  H    0.130311
    34  H    0.032816
    35  H    0.147058
    36  H    0.123787
    37  H    0.135744
    38  H    0.116116
    39  H    0.322225
    40  H    0.093331
    41  H    0.156385
    42  H    0.133129
    43  H    0.331374
 Sum of ESP charges =   0.00000
 ESP charges with hydrogens summed into heavy atoms:
               1
     1  O   -0.565028
     2  C    0.685542
     3  N   -0.258810
     4  C    0.304441
     5  C   -0.089563
     6  C    0.052795
     7  C    0.025787
     8  Cl  -0.109265
     9  C    0.004633
    10  C    0.460965
    11  C   -0.252541
    12  C    0.253561
    13  C   -0.236786
    14  C    0.391415
    15  N   -0.543219
    16  C   -0.082572
    17  C   -0.027044
    18  C    0.062024
    19  Cl  -0.084635
    20  C    0.012119
    21  C   -0.025406
    22  C    0.067666
    23  C    0.048209
    24  S    0.711542
    25  N   -0.440520
    26  C    0.064945
    27  N   -0.430252
 Charge=   0.00000 Dipole=    -1.9332     0.2073    -1.5331 Tot=     2.4760
 -----------------------------------------------------------------

              Electrostatic Properties (Atomic Units)

 -----------------------------------------------------------------
    Center     Electric         -------- Electric Field --------
               Potential          X             Y             Z
 -----------------------------------------------------------------
    1 Atom    -22.366113
    2 Atom    -14.639866
    3 Atom    -18.318987
    4 Atom    -14.695433
    5 Atom    -14.740951
    6 Atom    -14.742765
    7 Atom    -14.693258
    8 Atom    -64.425989
    9 Atom    -14.729634
   10 Atom    -14.708613
   11 Atom    -14.747248
   12 Atom    -14.740284
   13 Atom    -14.748857
   14 Atom    -14.724804
   15 Atom    -18.384221
   16 Atom    -14.744831
   17 Atom    -14.715377
   18 Atom    -14.671703
   19 Atom    -64.404785
   20 Atom    -14.725431
   21 Atom    -14.726910
   22 Atom    -14.730142
   23 Atom    -14.711539
   24 Atom    -59.063180
   25 Atom    -18.417084
   26 Atom    -14.726762
   27 Atom    -18.413993
   28 Atom     -0.994402
   29 Atom     -1.075752
   30 Atom     -1.083728
   31 Atom     -1.084202
   32 Atom     -1.087222
   33 Atom     -1.084667
   34 Atom     -1.097691
   35 Atom     -1.081419
   36 Atom     -1.066994
   37 Atom     -1.072835
   38 Atom     -1.076464
   39 Atom     -1.043924
   40 Atom     -1.068906
   41 Atom     -1.065739
   42 Atom     -1.068198
   43 Atom     -1.037914
 -----------------------------------------------------------------
 Unable to Open any file for archive entry.
 1\1\GINC-NOTCH130\SP\RPBE1PBE\def2TZVP\C19H16Cl2N4O1S1\U1414944\14-Oct
 -2025\0\\#N Guess=Read Geom=Check Integral(Ultrafine) Density Pop=(Che
 lpG,ReadRadii) NMR pbe1pbe EmpiricalDispersion=GD3BJ def2TZVP\\SDI-dru
 g_6\\0,1\O,0,0.1548466791,-4.5512190399,-1.3198845625\C,0,0.4239536018
 ,-3.4252344491,-0.9636568846\N,0,1.7232419372,-2.9807701599,-0.9218134
 432\C,0,2.2605084634,-1.7330852279,-0.5708687901\C,0,3.525777528,-1.68
 03907886,0.0244421502\C,0,4.0684182514,-0.4606276608,0.4047100391\C,0,
 3.3434103851,0.7229635196,0.2582434265\Cl,0,4.1022006217,2.1957302494,
 0.7469971796\C,0,2.0635777269,0.6945663915,-0.3197652949\C,0,1.1538563
 938,1.8666053859,-0.4085984197\C,0,0.3075147572,2.0380463667,-1.515088
 2934\C,0,-0.6225334508,3.0701516633,-1.4987819506\C,0,-0.6587209468,3.
 9202711576,-0.3954951552\C,0,0.2364995185,3.6800193425,0.6471260666\N,
 0,1.1091863088,2.6794304994,0.6483214023\C,0,1.5788451144,-0.533363029
 4,-0.7806691319\C,0,-0.6449103945,-2.428072902,-0.6143519863\C,0,-0.76
 59776424,-1.8468003344,0.6528616\Cl,0,0.2458823108,-2.3679911898,1.952
 7411051\C,0,-1.6588824212,-0.800510361,0.8695927115\C,0,-1.5053352526,
 -2.0167182958,-1.6373154185\C,0,-2.4039151733,-0.9736439355,-1.4407984
 334\C,0,-2.4472582648,-0.3655335933,-0.1889886661\S,0,-3.4921522978,1.
 0700811869,0.132410566\N,0,-3.0133661054,1.9106317359,1.3400564287\C,0
 ,-4.9506433054,0.2859983286,0.8276098189\N,0,-3.7081169019,1.593712041
 3,-1.3128794743\H,0,2.3858152613,-3.7335361604,-1.0811697445\H,0,4.085
 7741001,-2.6020693305,0.200239962\H,0,5.0644749064,-0.4149290155,0.847
 5198381\H,0,0.3719588192,1.3662963454,-2.3724933108\H,0,-1.3180280987,
 3.1978498608,-2.3297825409\H,0,-1.3707874642,4.7459559116,-0.336590285
 8\H,0,0.2377878678,4.3247863911,1.5338544192\H,0,0.6089596794,-0.53990
 05905,-1.2698611873\H,0,-1.7113432803,-0.2914143862,1.8352774842\H,0,-
 1.4220008858,-2.4983579086,-2.6142949591\H,0,-3.0378774011,-0.59165495
 4,-2.241863472\H,0,-2.1944647594,2.4507171296,1.0416197114\H,0,-5.3573
 456268,-0.395674792,0.0709006185\H,0,-5.6522133091,1.1017904296,1.0475
 474334\H,0,-4.6827498873,-0.2404683267,1.7515562354\H,0,-4.2699085325,
 2.4467112752,-1.2500826571\\Version=ES64L-G16RevC.01\State=1-A\HF=-234
 5.2442712\RMSD=8.054e-09\Dipole=-0.6989633,0.2717729,-0.5318862\Quadru
 pole=11.9014145,-8.8666962,-3.0347183,-10.3981116,-0.1971853,-4.636623
 4\PG=C01 [X(C19H16Cl2N4O1S1)]\\@
 The archive entry for this job was punched.


 MICHAEL FARADAY, ASKED BY A POLITICIAN WHAT GOOD
 HIS ELECTRICAL DISCOVERIES WERE, REPLIED 
 "AT PRESENT I DO NOT KNOW, BUT ONE DAY YOU WILL BE
 ABLE TO TAX THEM."
 Job cpu time:       0 days  4 hours 58 minutes 56.0 seconds.
 Elapsed time:       0 days  0 hours 20 minutes  9.0 seconds.
 File lengths (MBytes):  RWF=    525 Int=      0 D2E=      0 Chk=     83 Scr=      2
 Normal termination of Gaussian 16 at Tue Oct 14 00:34:35 2025.
