 Entering Gaussian System, Link 0=g16
 Input=prod_5l_15.com
 Output=prod_5l_15.log
 Initial command:
 /uufs/chpc.utah.edu/sys/installdir/gaussian16/C01/AVX/g16/l1.exe "/scratch/general/vast/u1366379/GAUSSSCRDIR/11028689-notchpeak.peaks/Gau-1520477.inp" -scrdir="/scratch/general/vast/u1366379/GAUSSSCRDIR/11028689-notchpeak.peaks/"
 Entering Link 1 = /uufs/chpc.utah.edu/sys/installdir/gaussian16/C01/AVX/g16/l1.exe PID=   1520478.
  
 Copyright (c) 1988-2019, Gaussian, Inc.  All Rights Reserved.
  
 This is part of the Gaussian(R) 16 program.  It is based on
 the Gaussian(R) 09 system (copyright 2009, Gaussian, Inc.),
 the Gaussian(R) 03 system (copyright 2003, Gaussian, Inc.),
 the Gaussian(R) 98 system (copyright 1998, Gaussian, Inc.),
 the Gaussian(R) 94 system (copyright 1995, Gaussian, Inc.),
 the Gaussian 92(TM) system (copyright 1992, Gaussian, Inc.),
 the Gaussian 90(TM) system (copyright 1990, Gaussian, Inc.),
 the Gaussian 88(TM) system (copyright 1988, Gaussian, Inc.),
 the Gaussian 86(TM) system (copyright 1986, Carnegie Mellon
 University), and the Gaussian 82(TM) system (copyright 1983,
 Carnegie Mellon University). Gaussian is a federally registered
 trademark of Gaussian, Inc.
  
 This software contains proprietary and confidential information,
 including trade secrets, belonging to Gaussian, Inc.
  
 This software is provided under written license and may be
 used, copied, transmitted, or stored only in accord with that
 written license.
  
 The following legend is applicable only to US Government
 contracts under FAR:
  
                    RESTRICTED RIGHTS LEGEND
  
 Use, reproduction and disclosure by the US Government is
 subject to restrictions as set forth in subparagraphs (a)
 and (c) of the Commercial Computer Software - Restricted
 Rights clause in FAR 52.227-19.
  
 Gaussian, Inc.
 340 Quinnipiac St., Bldg. 40, Wallingford CT 06492
  
  
 ---------------------------------------------------------------
 Warning -- This program may not be used in any manner that
 competes with the business of Gaussian, Inc. or will provide
 assistance to any competitor of Gaussian, Inc.  The licensee
 of this program is prohibited from giving any competitor of
 Gaussian, Inc. access to this program.  By using this program,
 the user acknowledges that Gaussian, Inc. is engaged in the
 business of creating and licensing software in the field of
 computational chemistry and represents and warrants to the
 licensee that it is not a competitor of Gaussian, Inc. and that
 it will not use this program in any manner prohibited above.
 ---------------------------------------------------------------
  

 Cite this work as:
 Gaussian 16, Revision C.01,
 M. J. Frisch, G. W. Trucks, H. B. Schlegel, G. E. Scuseria, 
 M. A. Robb, J. R. Cheeseman, G. Scalmani, V. Barone, 
 G. A. Petersson, H. Nakatsuji, X. Li, M. Caricato, A. V. Marenich, 
 J. Bloino, B. G. Janesko, R. Gomperts, B. Mennucci, H. P. Hratchian, 
 J. V. Ortiz, A. F. Izmaylov, J. L. Sonnenberg, D. Williams-Young, 
 F. Ding, F. Lipparini, F. Egidi, J. Goings, B. Peng, A. Petrone, 
 T. Henderson, D. Ranasinghe, V. G. Zakrzewski, J. Gao, N. Rega, 
 G. Zheng, W. Liang, M. Hada, M. Ehara, K. Toyota, R. Fukuda, 
 J. Hasegawa, M. Ishida, T. Nakajima, Y. Honda, O. Kitao, H. Nakai, 
 T. Vreven, K. Throssell, J. A. Montgomery, Jr., J. E. Peralta, 
 F. Ogliaro, M. J. Bearpark, J. J. Heyd, E. N. Brothers, K. N. Kudin, 
 V. N. Staroverov, T. A. Keith, R. Kobayashi, J. Normand, 
 K. Raghavachari, A. P. Rendell, J. C. Burant, S. S. Iyengar, 
 J. Tomasi, M. Cossi, J. M. Millam, M. Klene, C. Adamo, R. Cammi, 
 J. W. Ochterski, R. L. Martin, K. Morokuma, O. Farkas, 
 J. B. Foresman, and D. J. Fox, Gaussian, Inc., Wallingford CT, 2019.
 
 ******************************************
 Gaussian 16:  ES64L-G16RevC.01  3-Jul-2019
                17-Feb-2026 
 ******************************************
 %NProcShared=8
 Will use up to    8 processors via shared memory.
 %Mem=8GB
 %chk=prod_5l_15.chk
 ------------------------------------------------------
 #N OPT FREQ=NORAMAN Integral(Ultrafine) wB97XD def2SVP
 ------------------------------------------------------
 1/18=20,19=15,26=4,38=1/1,3;
 2/9=110,12=2,17=6,18=5,40=1/2;
 3/5=43,7=101,11=2,25=1,30=1,71=1,74=-58,75=-5/1,2,3;
 4//1;
 5/5=2,38=5/2;
 6/7=2,8=2,9=2,10=2,28=1/1;
 7//1,2,3,16;
 1/18=20,19=15,26=4/3(2);
 2/9=110/2;
 99//99;
 2/9=110/2;
 3/5=43,7=101,11=2,25=1,30=1,71=1,74=-58,75=-5/1,2,3;
 4/5=5,16=3,69=1/1;
 5/5=2,38=5/2;
 7//1,2,3,16;
 1/18=20,19=15,26=4/3(-5);
 2/9=110/2;
 6/7=2,8=2,9=2,10=2,19=2,28=1/1;
 99/9=1/99;
 ----------
 prod_5l_15
 ----------
 Symbolic Z-matrix:
 Charge =  0 Multiplicity = 1
 O                    -0.23732   2.5051    1.12793 
 S                     0.0181    1.41908   0.12354 
 N                     0.9264    0.22845   0.94959 
 C                     2.12583  -0.27393   0.44351 
 C                     2.94051  -1.04968   1.27649 
 C                     4.11971  -1.58654   0.81581 
 C                     4.52061  -1.36716  -0.4869 
 C                     3.73533  -0.60502  -1.32816 
 C                     2.55653  -0.06649  -0.87158 
 C                    -1.48105   0.4404   -0.01183 
 C                    -1.50216  -0.66816  -0.82304 
 C                    -2.65381  -1.42165  -0.92718 
 C                    -3.7925   -1.07362  -0.21416 
 C                    -5.04462  -1.86759  -0.33944 
 C                    -3.75403   0.05312   0.59423 
 C                    -2.60096   0.8047    0.69566 
 O                     0.44503   1.72049  -1.28234 
 H                     0.95629   0.57216   1.88811 
 H                     2.62225  -1.22514   2.28899 
 H                     4.7326   -2.18091   1.47331 
 H                     5.44559  -1.78786  -0.84535 
 H                     4.04963  -0.42742  -2.34353 
 H                     1.95711   0.54365  -1.52086 
 H                    -0.61604  -0.93482  -1.37483 
 H                    -2.67602  -2.28634  -1.56766 
 H                    -5.74924  -1.37497  -1.01003 
 H                    -4.84397  -2.86342  -0.73546 
 H                    -5.52915  -1.98805   0.62994 
 H                    -4.63546   0.33899   1.14184 
 H                    -2.56234   1.68104   1.32197 
 

 GradGradGradGradGradGradGradGradGradGradGradGradGradGradGradGradGradGrad
 Berny optimization.
 Initialization pass.
                           ----------------------------
                           !    Initial Parameters    !
                           ! (Angstroms and Degrees)  !
 --------------------------                            --------------------------
 ! Name  Definition              Value          Derivative Info.                !
 --------------------------------------------------------------------------------
 ! R1    R(1,2)                  1.5012         estimate D2E/DX2                !
 ! R2    R(2,3)                  1.7103         estimate D2E/DX2                !
 ! R3    R(2,10)                 1.7954         estimate D2E/DX2                !
 ! R4    R(2,17)                 1.4999         estimate D2E/DX2                !
 ! R5    R(3,4)                  1.3954         estimate D2E/DX2                !
 ! R6    R(3,18)                 0.9999         estimate D2E/DX2                !
 ! R7    R(4,5)                  1.3998         estimate D2E/DX2                !
 ! R8    R(4,9)                  1.3993         estimate D2E/DX2                !
 ! R9    R(5,6)                  1.3751         estimate D2E/DX2                !
 ! R10   R(5,19)                 1.0757         estimate D2E/DX2                !
 ! R11   R(6,7)                  1.3805         estimate D2E/DX2                !
 ! R12   R(6,20)                 1.0776         estimate D2E/DX2                !
 ! R13   R(7,8)                  1.3803         estimate D2E/DX2                !
 ! R14   R(7,21)                 1.0775         estimate D2E/DX2                !
 ! R15   R(8,9)                  1.3741         estimate D2E/DX2                !
 ! R16   R(8,22)                 1.0776         estimate D2E/DX2                !
 ! R17   R(9,23)                 1.0738         estimate D2E/DX2                !
 ! R18   R(10,11)                1.3738         estimate D2E/DX2                !
 ! R19   R(10,16)                1.3738         estimate D2E/DX2                !
 ! R20   R(11,12)                1.3802         estimate D2E/DX2                !
 ! R21   R(11,24)                1.0774         estimate D2E/DX2                !
 ! R22   R(12,13)                1.3879         estimate D2E/DX2                !
 ! R23   R(12,25)                1.0763         estimate D2E/DX2                !
 ! R24   R(13,14)                1.4879         estimate D2E/DX2                !
 ! R25   R(13,15)                1.3873         estimate D2E/DX2                !
 ! R26   R(14,26)                1.0903         estimate D2E/DX2                !
 ! R27   R(14,27)                1.0903         estimate D2E/DX2                !
 ! R28   R(14,28)                1.0904         estimate D2E/DX2                !
 ! R29   R(15,16)                1.3801         estimate D2E/DX2                !
 ! R30   R(15,29)                1.0763         estimate D2E/DX2                !
 ! R31   R(16,30)                1.0778         estimate D2E/DX2                !
 ! A1    A(1,2,3)              105.7148         estimate D2E/DX2                !
 ! A2    A(1,2,10)             107.6214         estimate D2E/DX2                !
 ! A3    A(1,2,17)             122.0187         estimate D2E/DX2                !
 ! A4    A(3,2,10)              95.7615         estimate D2E/DX2                !
 ! A5    A(3,2,17)             116.197          estimate D2E/DX2                !
 ! A6    A(10,2,17)            106.0538         estimate D2E/DX2                !
 ! A7    A(2,3,4)              122.1388         estimate D2E/DX2                !
 ! A8    A(2,3,18)             103.292          estimate D2E/DX2                !
 ! A9    A(4,3,18)             116.006          estimate D2E/DX2                !
 ! A10   A(3,4,5)              118.9454         estimate D2E/DX2                !
 ! A11   A(3,4,9)              123.5082         estimate D2E/DX2                !
 ! A12   A(5,4,9)              117.5353         estimate D2E/DX2                !
 ! A13   A(4,5,6)              121.0706         estimate D2E/DX2                !
 ! A14   A(4,5,19)             118.5746         estimate D2E/DX2                !
 ! A15   A(6,5,19)             120.3536         estimate D2E/DX2                !
 ! A16   A(5,6,7)              120.2055         estimate D2E/DX2                !
 ! A17   A(5,6,20)             119.9109         estimate D2E/DX2                !
 ! A18   A(7,6,20)             119.8836         estimate D2E/DX2                !
 ! A19   A(6,7,8)              119.8443         estimate D2E/DX2                !
 ! A20   A(6,7,21)             120.0757         estimate D2E/DX2                !
 ! A21   A(8,7,21)             120.0798         estimate D2E/DX2                !
 ! A22   A(7,8,9)              120.1294         estimate D2E/DX2                !
 ! A23   A(7,8,22)             119.9555         estimate D2E/DX2                !
 ! A24   A(9,8,22)             119.9143         estimate D2E/DX2                !
 ! A25   A(4,9,8)              121.2149         estimate D2E/DX2                !
 ! A26   A(4,9,23)             118.7291         estimate D2E/DX2                !
 ! A27   A(8,9,23)             120.0432         estimate D2E/DX2                !
 ! A28   A(2,10,11)            119.8144         estimate D2E/DX2                !
 ! A29   A(2,10,16)            119.8199         estimate D2E/DX2                !
 ! A30   A(11,10,16)           120.3657         estimate D2E/DX2                !
 ! A31   A(10,11,12)           119.861          estimate D2E/DX2                !
 ! A32   A(10,11,24)           119.3068         estimate D2E/DX2                !
 ! A33   A(12,11,24)           120.8315         estimate D2E/DX2                !
 ! A34   A(11,12,13)           120.5938         estimate D2E/DX2                !
 ! A35   A(11,12,25)           120.048          estimate D2E/DX2                !
 ! A36   A(13,12,25)           119.358          estimate D2E/DX2                !
 ! A37   A(12,13,14)           120.8889         estimate D2E/DX2                !
 ! A38   A(12,13,15)           118.7049         estimate D2E/DX2                !
 ! A39   A(14,13,15)           120.3845         estimate D2E/DX2                !
 ! A40   A(13,14,26)           110.7641         estimate D2E/DX2                !
 ! A41   A(13,14,27)           111.2901         estimate D2E/DX2                !
 ! A42   A(13,14,28)           110.9797         estimate D2E/DX2                !
 ! A43   A(26,14,27)           107.9502         estimate D2E/DX2                !
 ! A44   A(26,14,28)           108.03           estimate D2E/DX2                !
 ! A45   A(27,14,28)           107.6848         estimate D2E/DX2                !
 ! A46   A(13,15,16)           120.5506         estimate D2E/DX2                !
 ! A47   A(13,15,29)           119.3061         estimate D2E/DX2                !
 ! A48   A(16,15,29)           120.1431         estimate D2E/DX2                !
 ! A49   A(10,16,15)           119.9211         estimate D2E/DX2                !
 ! A50   A(10,16,30)           119.0536         estimate D2E/DX2                !
 ! A51   A(15,16,30)           121.0251         estimate D2E/DX2                !
 ! D1    D(1,2,3,4)           -128.3091         estimate D2E/DX2                !
 ! D2    D(1,2,3,18)             4.5726         estimate D2E/DX2                !
 ! D3    D(10,2,3,4)           121.5417         estimate D2E/DX2                !
 ! D4    D(10,2,3,18)         -105.5767         estimate D2E/DX2                !
 ! D5    D(17,2,3,4)            10.4781         estimate D2E/DX2                !
 ! D6    D(17,2,3,18)          143.3598         estimate D2E/DX2                !
 ! D7    D(1,2,10,11)         -176.8856         estimate D2E/DX2                !
 ! D8    D(1,2,10,16)            3.1568         estimate D2E/DX2                !
 ! D9    D(3,2,10,11)          -68.3632         estimate D2E/DX2                !
 ! D10   D(3,2,10,16)          111.6792         estimate D2E/DX2                !
 ! D11   D(17,2,10,11)          51.0261         estimate D2E/DX2                !
 ! D12   D(17,2,10,16)        -128.9315         estimate D2E/DX2                !
 ! D13   D(2,3,4,5)            168.0331         estimate D2E/DX2                !
 ! D14   D(2,3,4,9)            -13.2108         estimate D2E/DX2                !
 ! D15   D(18,3,4,5)            40.5442         estimate D2E/DX2                !
 ! D16   D(18,3,4,9)          -140.6997         estimate D2E/DX2                !
 ! D17   D(3,4,5,6)            178.8214         estimate D2E/DX2                !
 ! D18   D(3,4,5,19)            -0.7778         estimate D2E/DX2                !
 ! D19   D(9,4,5,6)             -0.009          estimate D2E/DX2                !
 ! D20   D(9,4,5,19)          -179.6082         estimate D2E/DX2                !
 ! D21   D(3,4,9,8)           -178.7448         estimate D2E/DX2                !
 ! D22   D(3,4,9,23)             2.5584         estimate D2E/DX2                !
 ! D23   D(5,4,9,8)              0.0277         estimate D2E/DX2                !
 ! D24   D(5,4,9,23)          -178.6692         estimate D2E/DX2                !
 ! D25   D(4,5,6,7)             -0.0447         estimate D2E/DX2                !
 ! D26   D(4,5,6,20)           179.996          estimate D2E/DX2                !
 ! D27   D(19,5,6,7)           179.5474         estimate D2E/DX2                !
 ! D28   D(19,5,6,20)           -0.4119         estimate D2E/DX2                !
 ! D29   D(5,6,7,8)              0.0803         estimate D2E/DX2                !
 ! D30   D(5,6,7,21)           179.927          estimate D2E/DX2                !
 ! D31   D(20,6,7,8)          -179.9605         estimate D2E/DX2                !
 ! D32   D(20,6,7,21)           -0.1137         estimate D2E/DX2                !
 ! D33   D(6,7,8,9)             -0.0617         estimate D2E/DX2                !
 ! D34   D(6,7,8,22)           179.6114         estimate D2E/DX2                !
 ! D35   D(21,7,8,9)          -179.9085         estimate D2E/DX2                !
 ! D36   D(21,7,8,22)           -0.2353         estimate D2E/DX2                !
 ! D37   D(7,8,9,4)              0.0074         estimate D2E/DX2                !
 ! D38   D(7,8,9,23)           178.6873         estimate D2E/DX2                !
 ! D39   D(22,8,9,4)          -179.6659         estimate D2E/DX2                !
 ! D40   D(22,8,9,23)           -0.986          estimate D2E/DX2                !
 ! D41   D(2,10,11,12)         179.9602         estimate D2E/DX2                !
 ! D42   D(2,10,11,24)          -0.3294         estimate D2E/DX2                !
 ! D43   D(16,10,11,12)         -0.0824         estimate D2E/DX2                !
 ! D44   D(16,10,11,24)        179.6279         estimate D2E/DX2                !
 ! D45   D(2,10,16,15)        -179.9329         estimate D2E/DX2                !
 ! D46   D(2,10,16,30)           0.2553         estimate D2E/DX2                !
 ! D47   D(11,10,16,15)          0.1097         estimate D2E/DX2                !
 ! D48   D(11,10,16,30)       -179.7021         estimate D2E/DX2                !
 ! D49   D(10,11,12,13)         -0.2923         estimate D2E/DX2                !
 ! D50   D(10,11,12,25)        179.5292         estimate D2E/DX2                !
 ! D51   D(24,11,12,13)       -179.9981         estimate D2E/DX2                !
 ! D52   D(24,11,12,25)         -0.1767         estimate D2E/DX2                !
 ! D53   D(11,12,13,14)        178.9411         estimate D2E/DX2                !
 ! D54   D(11,12,13,15)          0.6271         estimate D2E/DX2                !
 ! D55   D(25,12,13,14)         -0.8816         estimate D2E/DX2                !
 ! D56   D(25,12,13,15)       -179.1956         estimate D2E/DX2                !
 ! D57   D(12,13,14,26)       -100.4497         estimate D2E/DX2                !
 ! D58   D(12,13,14,27)         19.6488         estimate D2E/DX2                !
 ! D59   D(12,13,14,28)        139.5567         estimate D2E/DX2                !
 ! D60   D(15,13,14,26)         77.8361         estimate D2E/DX2                !
 ! D61   D(15,13,14,27)       -162.0654         estimate D2E/DX2                !
 ! D62   D(15,13,14,28)        -42.1576         estimate D2E/DX2                !
 ! D63   D(12,13,15,16)         -0.5994         estimate D2E/DX2                !
 ! D64   D(12,13,15,29)        179.2332         estimate D2E/DX2                !
 ! D65   D(14,13,15,16)       -178.9222         estimate D2E/DX2                !
 ! D66   D(14,13,15,29)          0.9104         estimate D2E/DX2                !
 ! D67   D(13,15,16,10)          0.2374         estimate D2E/DX2                !
 ! D68   D(13,15,16,30)       -179.9546         estimate D2E/DX2                !
 ! D69   D(29,15,16,10)       -179.5938         estimate D2E/DX2                !
 ! D70   D(29,15,16,30)          0.2142         estimate D2E/DX2                !
 --------------------------------------------------------------------------------
 Trust Radius=3.00D-01 FncErr=1.00D-07 GrdErr=1.00D-06 EigMax=2.50D+02 EigMin=1.00D-04
 Number of steps in this run=    162 maximum allowed number of steps=    180.
 GradGradGradGradGradGradGradGradGradGradGradGradGradGradGradGradGradGrad

                          Input orientation:                          
 ---------------------------------------------------------------------
 Center     Atomic      Atomic             Coordinates (Angstroms)
 Number     Number       Type             X           Y           Z
 ---------------------------------------------------------------------
      1          8           0       -0.237320    2.505100    1.127930
      2         16           0        0.018100    1.419080    0.123540
      3          7           0        0.926400    0.228450    0.949590
      4          6           0        2.125830   -0.273930    0.443510
      5          6           0        2.940510   -1.049680    1.276490
      6          6           0        4.119710   -1.586540    0.815810
      7          6           0        4.520610   -1.367160   -0.486900
      8          6           0        3.735330   -0.605020   -1.328160
      9          6           0        2.556530   -0.066490   -0.871580
     10          6           0       -1.481050    0.440400   -0.011830
     11          6           0       -1.502160   -0.668160   -0.823040
     12          6           0       -2.653810   -1.421650   -0.927180
     13          6           0       -3.792500   -1.073620   -0.214160
     14          6           0       -5.044620   -1.867590   -0.339440
     15          6           0       -3.754030    0.053120    0.594230
     16          6           0       -2.600960    0.804700    0.695660
     17          8           0        0.445030    1.720490   -1.282340
     18          1           0        0.956290    0.572160    1.888110
     19          1           0        2.622250   -1.225140    2.288990
     20          1           0        4.732600   -2.180910    1.473310
     21          1           0        5.445590   -1.787860   -0.845350
     22          1           0        4.049630   -0.427420   -2.343530
     23          1           0        1.957110    0.543650   -1.520860
     24          1           0       -0.616040   -0.934820   -1.374830
     25          1           0       -2.676020   -2.286340   -1.567660
     26          1           0       -5.749240   -1.374970   -1.010030
     27          1           0       -4.843970   -2.863420   -0.735460
     28          1           0       -5.529150   -1.988050    0.629940
     29          1           0       -4.635460    0.338990    1.141840
     30          1           0       -2.562340    1.681040    1.321970
 ---------------------------------------------------------------------
                    Distance matrix (angstroms):
                    1          2          3          4          5
     1  O    0.000000
     2  S    1.501159   0.000000
     3  N    2.563042   1.710254   0.000000
     4  C    3.711592   2.722350   1.395398   0.000000
     5  C    4.770444   3.995566   2.407721   1.399767   0.000000
     6  C    5.985202   5.131880   3.675502   2.416011   1.375121
     7  C    6.343498   5.329950   4.186624   2.792093   2.388944
     8  C    5.611343   4.474619   3.711186   2.416387   2.759287
     9  C    4.291470   3.104965   2.461904   1.399284   2.393388
    10  C    2.666253   1.795436   2.600974   3.705022   4.840485
    11  C    3.933914   2.750232   3.137520   3.862885   4.928580
    12  C    5.047996   4.038918   4.366119   5.103039   6.024196
    13  C    5.219937   4.565990   5.031671   6.008216   6.896088
    14  C    6.662111   6.053733   6.458178   7.387023   8.187949
    15  C    4.320219   4.039351   4.697174   5.890877   6.818982
    16  C    2.943639   2.750320   3.583129   4.854850   5.872306
    17  O    2.624998   1.499872   2.727529   3.127516   4.522043
    18  H    2.395587   2.170526   0.999925   2.042195   2.634687
    19  H    4.841476   4.296821   2.604385   2.134720   1.075747
    20  H    6.839450   6.083446   4.535026   3.390031   2.128381
    21  H    7.390454   6.378155   5.264066   3.869619   3.364898
    22  H    6.247291   5.074370   4.585779   3.390008   3.836913
    23  H    3.959659   2.688901   2.695336   2.134398   3.366147
    24  H    4.270865   2.861484   3.022457   3.355739   4.437537
    25  H    6.014263   4.883501   5.063413   5.581430   6.415912
    26  H    7.071568   6.507988   7.139694   8.083427   8.991426
    27  H    7.315357   6.535856   6.759898   7.528183   8.242313
    28  H    6.959875   6.529698   6.832948   7.846763   8.545976
    29  H    4.902638   4.884583   5.566279   6.824835   7.703367
    30  H    2.474357   2.857189   3.797366   5.154856   6.143310
                    6          7          8          9         10
     6  C    0.000000
     7  C    1.380544   0.000000
     8  C    2.389087   1.380304   0.000000
     9  C    2.757058   2.386908   1.374063   0.000000
    10  C    6.013484   6.285928   5.480534   4.159106   0.000000
    11  C    5.927451   6.072508   5.262170   4.103331   1.373831
    12  C    6.996126   7.188123   6.453587   5.383976   2.383372
    13  C    7.995436   8.322761   7.624225   6.461942   2.770559
    14  C    9.241133   9.579447   8.925199   7.829726   4.258307
    15  C    8.045705   8.464969   7.760106   6.479666   2.384058
    16  C    7.134414   7.538712   6.799392   5.460304   1.373847
    17  O    5.370471   5.174617   4.029413   2.796507   2.638676
    18  H    3.977064   4.701703   4.410579   3.253388   3.093179
    19  H    2.131491   3.365933   3.835006   3.366896   4.990478
    20  H    1.077597   2.132968   3.365444   3.834653   6.905531
    21  H    2.134933   1.077526   2.134761   3.363104   7.323813
    22  H    3.365992   2.133544   1.077637   2.127500   6.064516
    23  H    3.830741   3.360327   2.125710   1.073843   3.756165
    24  H    5.258419   5.230728   4.364100   3.327530   2.120670
    25  H    7.235509   7.335149   6.632466   5.726416   3.359118
    26  H   10.038657  10.283168   9.521087   8.409346   4.744409
    27  H    9.186099   9.486619   8.891347   7.912569   4.769497
    28  H    9.658999  10.130672   9.569614   8.445423   4.764069
    29  H    8.970338   9.455018   8.778507   7.479505   3.360289
    30  H    7.455405   7.920336   7.204853   5.836810   2.118348
                   11         12         13         14         15
    11  C    0.000000
    12  C    1.380178   0.000000
    13  C    2.404327   1.387853   0.000000
    14  C    3.771144   2.502054   1.487914   0.000000
    15  C    2.756777   2.387492   1.387270   2.495293   0.000000
    16  C    2.383931   2.755547   2.403253   3.766170   1.380120
    17  O    3.115791   4.427414   5.186976   6.625680   4.892212
    18  H    3.864286   4.993391   5.447856   6.850203   4.912295
    19  H    5.196702   6.182166   6.887506   8.130331   6.720350
    20  H    6.814240   7.803709   8.760763   9.948782   8.819669
    21  H    7.037432   8.108088   9.287133  10.502705   9.491818
    22  H    5.761269   6.923196   8.151736   9.423155   8.352153
    23  H    3.731218   5.047320   6.114004   7.498937   6.109938
    24  H    1.077399   2.142405   3.384718   4.642673   3.834085
    25  H    2.133287   1.076288   2.132881   2.700767   3.362878
    26  H    4.309552   3.096890   2.133788   1.090346   2.931545
    27  H    3.999316   2.629117   2.140263   1.090307   3.385595
    28  H    4.479945   3.318586   2.136502   1.090402   2.705310
    29  H    3.833102   3.362683   2.131850   2.688977   1.076344
    30  H    3.353176   3.833240   3.385431   4.638402   2.144727
                   16         17         18         19         20
    16  C    0.000000
    17  O    3.745559   0.000000
    18  H    3.758994   3.410543   0.000000
    19  H    5.825880   5.115801   2.483227   0.000000
    20  H    7.956111   6.418550   4.691692   2.456096   0.000000
    21  H    8.593198   6.124139   5.761537   4.255818   2.457443
    22  H    7.415197   4.328138   5.336168   4.912638   4.255519
    23  H    5.075146   1.930863   3.552961   4.252762   4.908322
    24  H    3.354514   2.860961   3.923007   4.898406   6.186485
    25  H    3.831812   5.086949   5.771226   6.638641   8.009136
    26  H    4.191898   6.930008   7.560070   8.999324  10.802106
    27  H    4.531479   7.020315   7.233903   8.220444   9.851659
    28  H    4.046983   7.287037   7.085097   8.353430  10.298154
    29  H    2.134280   5.796255   5.646145   7.512444   9.706715
    30  H    1.077835   3.978475   3.732410   6.021709   8.255526
                   21         22         23         24         25
    21  H    0.000000
    22  H    2.458464   0.000000
    23  H    4.249911   2.449164   0.000000
    24  H    6.144216   4.792109   2.971245   0.000000
    25  H    8.168890   7.020821   5.429266   2.471297   0.000000
    26  H   11.203652   9.934482   7.958007   5.164935   3.253648
    27  H   10.346205   9.360348   7.647200   4.690808   2.392820
    28  H   11.075264  10.150375   8.190210   5.409903   3.613692
    29  H   10.492854   9.389674   7.112934   4.910393   4.251253
    30  H    8.992079   7.848544   5.459008   4.231257   4.909479
                   26         27         28         29         30
    26  H    0.000000
    27  H    1.763629   0.000000
    28  H    1.764599   1.760699   0.000000
    29  H    2.967947   3.717951   2.544767   0.000000
    30  H    4.993371   5.485524   4.768971   2.476161   0.000000
 Stoichiometry    C13H13NO2S
 Framework group  C1[X(C13H13NO2S)]
 Deg. of freedom    84
 Full point group                 C1      NOp   1
 Largest Abelian subgroup         C1      NOp   1
 Largest concise Abelian subgroup C1      NOp   1
                         Standard orientation:                         
 ---------------------------------------------------------------------
 Center     Atomic      Atomic             Coordinates (Angstroms)
 Number     Number       Type             X           Y           Z
 ---------------------------------------------------------------------
      1          8           0        0.228669    2.736701   -0.534934
      2         16           0       -0.031809    1.456112    0.203795
      3          7           0       -0.954371    0.486525   -0.860980
      4          6           0       -2.155899   -0.106850   -0.471914
      5          6           0       -2.981199   -0.671176   -1.451589
      6          6           0       -4.163009   -1.288197   -1.114593
      7          6           0       -4.556031   -1.361649    0.206786
      8          6           0       -3.760213   -0.812211    1.191688
      9          6           0       -2.578769   -0.194473    0.859063
     10          6           0        1.459203    0.460467    0.108064
     11          6           0        1.474165   -0.801147    0.651682
     12          6           0        2.619549   -1.567660    0.577914
     13          6           0        3.758032   -1.078159   -0.046892
     14          6           0        5.003618   -1.889612   -0.109716
     15          6           0        3.725885    0.200680   -0.583598
     16          6           0        2.579076    0.964739   -0.507605
     17          8           0       -0.449663    1.439826    1.644194
     18          1           0       -0.985472    1.030996   -1.699093
     19          1           0       -2.669106   -0.618966   -2.479745
     20          1           0       -4.784124   -1.716366   -1.884076
     21          1           0       -5.483068   -1.844590    0.468383
     22          1           0       -4.068313   -0.863005    2.223093
     23          1           0       -1.971021    0.251003    1.624134
     24          1           0        0.588229   -1.177318    1.135832
     25          1           0        2.636998   -2.553500    1.009438
     26          1           0        5.715615   -1.564248    0.649266
     27          1           0        4.795946   -2.947099    0.055703
     28          1           0        5.482655   -1.794667   -1.084644
     29          1           0        4.607320    0.594682   -1.059363
     30          1           0        2.545386    1.958902   -0.922614
 ---------------------------------------------------------------------
 Rotational constants (GHZ):           0.8494942           0.2393373           0.2138736
 Standard basis: def2SVP (5D, 7F)
 There are   324 symmetry adapted cartesian basis functions of A   symmetry.
 There are   307 symmetry adapted basis functions of A   symmetry.
   307 basis functions,   528 primitive gaussians,   324 cartesian basis functions
    65 alpha electrons       65 beta electrons
       nuclear repulsion energy      1300.3497649212 Hartrees.
 NAtoms=   30 NActive=   30 NUniq=   30 SFac= 1.00D+00 NAtFMM=   60 NAOKFM=F Big=F
 Integral buffers will be    131072 words long.
 Raffenetti 2 integral format.
 Two-electron integral symmetry is turned on.
 Nuclear repulsion after empirical dispersion term =     1300.3312088096 Hartrees.
 One-electron integrals computed using PRISM.
   1 Symmetry operations used in ECPInt.
 ECPInt:  NShTT=   10296 NPrTT=   38220 LenC2=    9294 LenP2D=   24398.
 LDataN:  DoStor=T MaxTD1= 4 Len=   56
 NBasis=   307 RedAO= T EigKep=  2.42D-04  NBF=   307
 NBsUse=   307 1.00D-06 EigRej= -1.00D+00 NBFU=   307
 ExpMin= 1.22D-01 ExpMax= 9.18D+03 ExpMxC= 1.38D+03 IAcc=3 IRadAn=         5 AccDes= 0.00D+00
 Harris functional with IExCor= 4639 and IRadAn=       5 diagonalized for initial guess.
 HarFok:  IExCor= 4639 AccDes= 0.00D+00 IRadAn=         5 IDoV= 1 UseB2=F ITyADJ=14
 ICtDFT=  3500011 ScaDFX=  1.000000  1.000000  1.000000  1.000000
 FoFCou: FMM=F IPFlag=           0 FMFlag=      100000 FMFlg1=           0
         NFxFlg=           0 DoJE=T BraDBF=F KetDBF=T FulRan=T
         wScrn=  0.000000 ICntrl=       500 IOpCl=  0 I1Cent=   200000004 NGrid=           0
         NMat0=    1 NMatS0=      1 NMatT0=    0 NMatD0=    1 NMtDS0=    0 NMtDT0=    0
 Petite list used in FoFCou.
 Requested convergence on RMS density matrix=1.00D-08 within 128 cycles.
 Requested convergence on MAX density matrix=1.00D-06.
 Requested convergence on             energy=1.00D-06.
 No special actions if energy rises.
 Integral accuracy reduced to 1.0D-05 until final iterations.
 Initial convergence to 1.0D-05 achieved.  Increase integral accuracy.
 SCF Done:  E(RwB97XD) =  -1105.64044271     A.U. after   16 cycles
            NFock= 16  Conv=0.34D-08     -V/T= 2.0071

 **********************************************************************

            Population analysis using the SCF Density.

 **********************************************************************

 Orbital symmetries:
       Occupied  (A) (A) (A) (A) (A) (A) (A) (A) (A) (A) (A) (A)
                 (A) (A) (A) (A) (A) (A) (A) (A) (A) (A) (A) (A)
                 (A) (A) (A) (A) (A) (A) (A) (A) (A) (A) (A) (A)
                 (A) (A) (A) (A) (A) (A) (A) (A) (A) (A) (A) (A)
                 (A) (A) (A) (A) (A) (A) (A) (A) (A) (A) (A) (A)
                 (A) (A) (A) (A) (A)
       Virtual   (A) (A) (A) (A) (A) (A) (A) (A) (A) (A) (A) (A)
                 (A) (A) (A) (A) (A) (A) (A) (A) (A) (A) (A) (A)
                 (A) (A) (A) (A) (A) (A) (A) (A) (A) (A) (A) (A)
                 (A) (A) (A) (A) (A) (A) (A) (A) (A) (A) (A) (A)
                 (A) (A) (A) (A) (A) (A) (A) (A) (A) (A) (A) (A)
                 (A) (A) (A) (A) (A) (A) (A) (A) (A) (A) (A) (A)
                 (A) (A) (A) (A) (A) (A) (A) (A) (A) (A) (A) (A)
                 (A) (A) (A) (A) (A) (A) (A) (A) (A) (A) (A) (A)
                 (A) (A) (A) (A) (A) (A) (A) (A) (A) (A) (A) (A)
                 (A) (A) (A) (A) (A) (A) (A) (A) (A) (A) (A) (A)
                 (A) (A) (A) (A) (A) (A) (A) (A) (A) (A) (A) (A)
                 (A) (A) (A) (A) (A) (A) (A) (A) (A) (A) (A) (A)
                 (A) (A) (A) (A) (A) (A) (A) (A) (A) (A) (A) (A)
                 (A) (A) (A) (A) (A) (A) (A) (A) (A) (A) (A) (A)
                 (A) (A) (A) (A) (A) (A) (A) (A) (A) (A) (A) (A)
                 (A) (A) (A) (A) (A) (A) (A) (A) (A) (A) (A) (A)
                 (A) (A) (A) (A) (A) (A) (A) (A) (A) (A) (A) (A)
                 (A) (A) (A) (A) (A) (A) (A) (A) (A) (A) (A) (A)
                 (A) (A) (A) (A) (A) (A) (A) (A) (A) (A) (A) (A)
                 (A) (A) (A) (A) (A) (A) (A) (A) (A) (A) (A) (A)
                 (A) (A)
 The electronic state is 1-A.
 Alpha  occ. eigenvalues --  -89.25945 -19.26658 -19.26037 -14.49901 -10.35554
 Alpha  occ. eigenvalues --  -10.33320 -10.32461 -10.32240 -10.32006 -10.31428
 Alpha  occ. eigenvalues --  -10.31291 -10.30689 -10.30457 -10.30344 -10.30000
 Alpha  occ. eigenvalues --  -10.29493 -10.29206  -8.27721  -6.23152  -6.23064
 Alpha  occ. eigenvalues --   -6.22903  -1.20632  -1.09343  -1.05388  -0.98567
 Alpha  occ. eigenvalues --   -0.95344  -0.90198  -0.86306  -0.85103  -0.84710
 Alpha  occ. eigenvalues --   -0.81258  -0.75889  -0.72543  -0.71548  -0.70696
 Alpha  occ. eigenvalues --   -0.68081  -0.64301  -0.63909  -0.60561  -0.58945
 Alpha  occ. eigenvalues --   -0.58103  -0.56528  -0.54733  -0.53935  -0.53674
 Alpha  occ. eigenvalues --   -0.52953  -0.52770  -0.52747  -0.51381  -0.49600
 Alpha  occ. eigenvalues --   -0.48494  -0.47405  -0.46394  -0.46051  -0.44174
 Alpha  occ. eigenvalues --   -0.44103  -0.43524  -0.41258  -0.40826  -0.39684
 Alpha  occ. eigenvalues --   -0.38445  -0.35293  -0.34517  -0.33881  -0.30432
 Alpha virt. eigenvalues --    0.02940   0.04546   0.05835   0.06510   0.10241
 Alpha virt. eigenvalues --    0.13035   0.13642   0.14406   0.15422   0.15842
 Alpha virt. eigenvalues --    0.17076   0.17195   0.18745   0.19411   0.20484
 Alpha virt. eigenvalues --    0.20719   0.21342   0.22667   0.23709   0.24286
 Alpha virt. eigenvalues --    0.24932   0.25505   0.29343   0.29926   0.33252
 Alpha virt. eigenvalues --    0.34953   0.36218   0.37278   0.37543   0.37778
 Alpha virt. eigenvalues --    0.38499   0.39473   0.40120   0.41165   0.43758
 Alpha virt. eigenvalues --    0.46515   0.47568   0.47907   0.48291   0.49080
 Alpha virt. eigenvalues --    0.49445   0.51220   0.51830   0.52289   0.54341
 Alpha virt. eigenvalues --    0.54843   0.55367   0.55689   0.56248   0.57376
 Alpha virt. eigenvalues --    0.58372   0.58896   0.60131   0.60708   0.61856
 Alpha virt. eigenvalues --    0.62452   0.63037   0.64047   0.65089   0.65377
 Alpha virt. eigenvalues --    0.68164   0.69205   0.69718   0.70368   0.71909
 Alpha virt. eigenvalues --    0.72153   0.72959   0.73227   0.73775   0.74653
 Alpha virt. eigenvalues --    0.74918   0.75330   0.75830   0.76409   0.76760
 Alpha virt. eigenvalues --    0.77625   0.78358   0.78597   0.79461   0.80353
 Alpha virt. eigenvalues --    0.81043   0.82177   0.82556   0.83171   0.84029
 Alpha virt. eigenvalues --    0.84360   0.86245   0.87530   0.88459   0.90632
 Alpha virt. eigenvalues --    0.90944   0.91889   0.93568   0.95745   0.97697
 Alpha virt. eigenvalues --    0.98783   0.99380   1.00432   1.03207   1.06866
 Alpha virt. eigenvalues --    1.08709   1.10237   1.11294   1.11573   1.14305
 Alpha virt. eigenvalues --    1.15642   1.16271   1.19229   1.20749   1.23337
 Alpha virt. eigenvalues --    1.24433   1.26680   1.26936   1.27992   1.29021
 Alpha virt. eigenvalues --    1.30178   1.31410   1.31745   1.33016   1.33224
 Alpha virt. eigenvalues --    1.34583   1.35010   1.36810   1.37272   1.38002
 Alpha virt. eigenvalues --    1.38130   1.40662   1.42544   1.45516   1.53679
 Alpha virt. eigenvalues --    1.55335   1.56721   1.59438   1.60998   1.61387
 Alpha virt. eigenvalues --    1.62375   1.64310   1.70512   1.75068   1.76040
 Alpha virt. eigenvalues --    1.76605   1.77788   1.78679   1.79989   1.81147
 Alpha virt. eigenvalues --    1.82157   1.82585   1.83216   1.84226   1.84428
 Alpha virt. eigenvalues --    1.85328   1.86113   1.86417   1.87304   1.87749
 Alpha virt. eigenvalues --    1.88236   1.88664   1.90219   1.92066   1.93280
 Alpha virt. eigenvalues --    1.94331   1.94916   1.97949   2.00290   2.03163
 Alpha virt. eigenvalues --    2.04128   2.04304   2.05155   2.06310   2.08106
 Alpha virt. eigenvalues --    2.10337   2.10953   2.13364   2.14103   2.16231
 Alpha virt. eigenvalues --    2.19043   2.19939   2.20970   2.21335   2.23044
 Alpha virt. eigenvalues --    2.24684   2.25454   2.29530   2.30294   2.31633
 Alpha virt. eigenvalues --    2.33063   2.35420   2.36187   2.38426   2.39119
 Alpha virt. eigenvalues --    2.40645   2.42690   2.43793   2.44877   2.45558
 Alpha virt. eigenvalues --    2.45854   2.51956   2.54483   2.56950   2.57704
 Alpha virt. eigenvalues --    2.60086   2.61066   2.68506   2.69399   2.71258
 Alpha virt. eigenvalues --    2.71768   2.72495   2.72796   2.73474   2.74358
 Alpha virt. eigenvalues --    2.74786   2.75814   2.75972   2.78509   2.80319
 Alpha virt. eigenvalues --    2.83165   2.83426   2.84344   2.84919   2.86148
 Alpha virt. eigenvalues --    2.90808   2.94346   2.94785   2.97719   2.99532
 Alpha virt. eigenvalues --    3.00615   3.01312   3.02051   3.02908   3.05057
 Alpha virt. eigenvalues --    3.06663   3.08847   3.22873   3.23998   3.25564
 Alpha virt. eigenvalues --    3.31751   3.33730   3.34111   3.46086   3.46827
 Alpha virt. eigenvalues --    3.69899   3.78740
          Condensed to atoms (all electrons):
               1          2          3          4          5          6
     1  O    8.146061   0.433291  -0.047888   0.000992  -0.000109   0.000000
     2  S    0.433291  13.932526   0.201329  -0.034264  -0.000243  -0.000131
     3  N   -0.047888   0.201329   6.862428   0.267916  -0.072416   0.006718
     4  C    0.000992  -0.034264   0.267916   5.182140   0.261603   0.112106
     5  C   -0.000109  -0.000243  -0.072416   0.261603   5.140047   0.309357
     6  C    0.000000  -0.000131   0.006718   0.112106   0.309357   5.008983
     7  C   -0.000000   0.000007  -0.000468  -0.164410   0.085919   0.284117
     8  C    0.000003  -0.000577   0.007171   0.111724  -0.146545   0.097428
     9  C    0.000040   0.001339  -0.082185   0.246961   0.078159  -0.147867
    10  C   -0.068770   0.238021  -0.102630   0.007575  -0.000809  -0.000002
    11  C    0.004093  -0.041642   0.003162   0.000208   0.000055   0.000003
    12  C    0.000016  -0.001768  -0.000177  -0.000048  -0.000008   0.000000
    13  C   -0.000035   0.001022  -0.000011   0.000007  -0.000000   0.000000
    14  C    0.000000   0.000008  -0.000000   0.000000   0.000000   0.000000
    15  C    0.001551   0.002459  -0.000189  -0.000008   0.000001  -0.000000
    16  C    0.005925  -0.022550  -0.004042  -0.000193  -0.000005   0.000000
    17  O   -0.026055   0.388576  -0.034746  -0.002566   0.000070   0.000000
    18  H    0.013574  -0.006722   0.323371  -0.002426  -0.012877   0.000229
    19  H   -0.000029  -0.000120  -0.009700  -0.081466   0.451538  -0.059863
    20  H   -0.000000   0.000003  -0.000112   0.015494  -0.069250   0.453857
    21  H    0.000000   0.000000   0.000011  -0.001464   0.014482  -0.070544
    22  H    0.000000   0.000000  -0.000108   0.015460  -0.001969   0.014200
    23  H    0.000275  -0.008855  -0.012382  -0.070221   0.013494  -0.002290
    24  H    0.000131  -0.005834  -0.000004   0.001213  -0.000038  -0.000005
    25  H    0.000000  -0.000157   0.000004  -0.000003   0.000000  -0.000000
    26  H   -0.000000  -0.000000   0.000000  -0.000000   0.000000   0.000000
    27  H    0.000000  -0.000000  -0.000000   0.000000  -0.000000  -0.000000
    28  H    0.000000   0.000000  -0.000000   0.000000   0.000000   0.000000
    29  H   -0.000009  -0.000159   0.000004  -0.000000   0.000000   0.000000
    30  H    0.018198  -0.012736   0.000661  -0.000062   0.000002   0.000000
               7          8          9         10         11         12
     1  O   -0.000000   0.000003   0.000040  -0.068770   0.004093   0.000016
     2  S    0.000007  -0.000577   0.001339   0.238021  -0.041642  -0.001768
     3  N   -0.000468   0.007171  -0.082185  -0.102630   0.003162  -0.000177
     4  C   -0.164410   0.111724   0.246961   0.007575   0.000208  -0.000048
     5  C    0.085919  -0.146545   0.078159  -0.000809   0.000055  -0.000008
     6  C    0.284117   0.097428  -0.147867  -0.000002   0.000003   0.000000
     7  C    5.110536   0.268706   0.090131   0.000004  -0.000001  -0.000000
     8  C    0.268706   5.050998   0.266198  -0.000181   0.000068   0.000004
     9  C    0.090131   0.266198   5.225419  -0.002019  -0.000541   0.000028
    10  C    0.000004  -0.000181  -0.002019   5.727697   0.173698   0.089889
    11  C   -0.000001   0.000068  -0.000541   0.173698   5.058840   0.342014
    12  C   -0.000000   0.000004   0.000028   0.089889   0.342014   5.024007
    13  C   -0.000000  -0.000000  -0.000003  -0.182936   0.084891   0.303212
    14  C   -0.000000   0.000000  -0.000000   0.000593   0.010973  -0.076387
    15  C    0.000000   0.000000   0.000003   0.088195  -0.120972   0.051532
    16  C   -0.000000   0.000000  -0.000065   0.279837   0.047783  -0.121706
    17  O   -0.000034   0.001714  -0.023206  -0.061320   0.008380   0.000759
    18  H    0.000003  -0.000206   0.003998   0.004906  -0.001083  -0.000002
    19  H    0.014881  -0.002223   0.017064  -0.000006   0.000019   0.000000
    20  H   -0.069137   0.013805  -0.001888  -0.000000  -0.000000   0.000000
    21  H    0.451936  -0.068048   0.014766   0.000000   0.000000   0.000000
    22  H   -0.074749   0.458458  -0.068086  -0.000000  -0.000000  -0.000000
    23  H    0.013786  -0.053887   0.452619   0.000176   0.000166   0.000055
    24  H   -0.000027   0.000287   0.001632  -0.080228   0.446679  -0.046138
    25  H    0.000000  -0.000000   0.000002   0.016250  -0.066387   0.459318
    26  H    0.000000  -0.000000  -0.000000   0.000075  -0.000351  -0.001828
    27  H   -0.000000   0.000000   0.000000  -0.000006   0.000838  -0.010217
    28  H   -0.000000  -0.000000   0.000000   0.000051  -0.000599   0.006064
    29  H   -0.000000   0.000000   0.000000   0.016713  -0.002047   0.014471
    30  H   -0.000000   0.000000   0.000002  -0.067531   0.013930  -0.001907
              13         14         15         16         17         18
     1  O   -0.000035   0.000000   0.001551   0.005925  -0.026055   0.013574
     2  S    0.001022   0.000008   0.002459  -0.022550   0.388576  -0.006722
     3  N   -0.000011  -0.000000  -0.000189  -0.004042  -0.034746   0.323371
     4  C    0.000007   0.000000  -0.000008  -0.000193  -0.002566  -0.002426
     5  C   -0.000000   0.000000   0.000001  -0.000005   0.000070  -0.012877
     6  C    0.000000   0.000000  -0.000000   0.000000   0.000000   0.000229
     7  C   -0.000000  -0.000000   0.000000  -0.000000  -0.000034   0.000003
     8  C   -0.000000   0.000000   0.000000   0.000000   0.001714  -0.000206
     9  C   -0.000003  -0.000000   0.000003  -0.000065  -0.023206   0.003998
    10  C   -0.182936   0.000593   0.088195   0.279837  -0.061320   0.004906
    11  C    0.084891   0.010973  -0.120972   0.047783   0.008380  -0.001083
    12  C    0.303212  -0.076387   0.051532  -0.121706   0.000759  -0.000002
    13  C    5.258628   0.407231   0.279550   0.100024  -0.000025   0.000008
    14  C    0.407231   4.549210  -0.077594   0.008801  -0.000000  -0.000000
    15  C    0.279550  -0.077594   5.119131   0.263430  -0.000055  -0.000052
    16  C    0.100024   0.008801   0.263430   5.053240  -0.000906   0.001182
    17  O   -0.000025  -0.000000  -0.000055  -0.000906   8.161477   0.002034
    18  H    0.000008  -0.000000  -0.000052   0.001182   0.002034   0.504053
    19  H    0.000000   0.000000  -0.000000  -0.000005   0.000008   0.003126
    20  H   -0.000000  -0.000000   0.000000   0.000000  -0.000000  -0.000025
    21  H    0.000000   0.000000   0.000000   0.000000   0.000000  -0.000001
    22  H    0.000000  -0.000000  -0.000000   0.000000   0.000028   0.000011
    23  H    0.000001  -0.000000  -0.000002  -0.000110   0.034619  -0.000567
    24  H    0.014383  -0.000252  -0.001484   0.012571   0.004708   0.000017
    25  H   -0.073934  -0.014924   0.014737  -0.002052  -0.000004  -0.000001
    26  H   -0.012411   0.389747  -0.004564  -0.000053  -0.000000  -0.000000
    27  H   -0.018415   0.392548   0.008299  -0.000518   0.000000  -0.000000
    28  H   -0.018645   0.391272  -0.007433   0.000702   0.000000   0.000000
    29  H   -0.078892  -0.012418   0.461830  -0.066572   0.000001  -0.000001
    30  H    0.013520  -0.000202  -0.053616   0.446620   0.000203  -0.000026
              19         20         21         22         23         24
     1  O   -0.000029  -0.000000   0.000000   0.000000   0.000275   0.000131
     2  S   -0.000120   0.000003   0.000000   0.000000  -0.008855  -0.005834
     3  N   -0.009700  -0.000112   0.000011  -0.000108  -0.012382  -0.000004
     4  C   -0.081466   0.015494  -0.001464   0.015460  -0.070221   0.001213
     5  C    0.451538  -0.069250   0.014482  -0.001969   0.013494  -0.000038
     6  C   -0.059863   0.453857  -0.070544   0.014200  -0.002290  -0.000005
     7  C    0.014881  -0.069137   0.451936  -0.074749   0.013786  -0.000027
     8  C   -0.002223   0.013805  -0.068048   0.458458  -0.053887   0.000287
     9  C    0.017064  -0.001888   0.014766  -0.068086   0.452619   0.001632
    10  C   -0.000006  -0.000000   0.000000  -0.000000   0.000176  -0.080228
    11  C    0.000019  -0.000000   0.000000  -0.000000   0.000166   0.446679
    12  C    0.000000   0.000000   0.000000  -0.000000   0.000055  -0.046138
    13  C    0.000000  -0.000000   0.000000   0.000000   0.000001   0.014383
    14  C    0.000000  -0.000000   0.000000  -0.000000  -0.000000  -0.000252
    15  C   -0.000000   0.000000   0.000000  -0.000000  -0.000002  -0.001484
    16  C   -0.000005   0.000000   0.000000   0.000000  -0.000110   0.012571
    17  O    0.000008  -0.000000   0.000000   0.000028   0.034619   0.004708
    18  H    0.003126  -0.000025  -0.000001   0.000011  -0.000567   0.000017
    19  H    0.687156  -0.013117  -0.000232   0.000023  -0.000087  -0.000018
    20  H   -0.013117   0.667947  -0.012373  -0.000259   0.000013  -0.000000
    21  H   -0.000232  -0.012373   0.673208  -0.012038  -0.000191  -0.000000
    22  H    0.000023  -0.000259  -0.012038   0.666214  -0.012877   0.000007
    23  H   -0.000087   0.000013  -0.000191  -0.012877   0.606052   0.000098
    24  H   -0.000018  -0.000000  -0.000000   0.000007   0.000098   0.644539
    25  H    0.000000   0.000000  -0.000000  -0.000000  -0.000001  -0.012208
    26  H    0.000000   0.000000  -0.000000   0.000000   0.000000   0.000004
    27  H   -0.000000  -0.000000  -0.000000  -0.000000  -0.000000   0.000002
    28  H   -0.000000  -0.000000  -0.000000  -0.000000  -0.000000   0.000008
    29  H    0.000000   0.000000  -0.000000  -0.000000  -0.000000   0.000024
    30  H   -0.000001   0.000000  -0.000000  -0.000000  -0.000010  -0.000210
              25         26         27         28         29         30
     1  O    0.000000  -0.000000   0.000000   0.000000  -0.000009   0.018198
     2  S   -0.000157  -0.000000  -0.000000   0.000000  -0.000159  -0.012736
     3  N    0.000004   0.000000  -0.000000  -0.000000   0.000004   0.000661
     4  C   -0.000003  -0.000000   0.000000   0.000000  -0.000000  -0.000062
     5  C    0.000000   0.000000  -0.000000   0.000000   0.000000   0.000002
     6  C   -0.000000   0.000000  -0.000000   0.000000   0.000000   0.000000
     7  C    0.000000   0.000000  -0.000000  -0.000000  -0.000000  -0.000000
     8  C   -0.000000  -0.000000   0.000000  -0.000000   0.000000   0.000000
     9  C    0.000002  -0.000000   0.000000   0.000000   0.000000   0.000002
    10  C    0.016250   0.000075  -0.000006   0.000051   0.016713  -0.067531
    11  C   -0.066387  -0.000351   0.000838  -0.000599  -0.002047   0.013930
    12  C    0.459318  -0.001828  -0.010217   0.006064   0.014471  -0.001907
    13  C   -0.073934  -0.012411  -0.018415  -0.018645  -0.078892   0.013520
    14  C   -0.014924   0.389747   0.392548   0.391272  -0.012418  -0.000202
    15  C    0.014737  -0.004564   0.008299  -0.007433   0.461830  -0.053616
    16  C   -0.002052  -0.000053  -0.000518   0.000702  -0.066572   0.446620
    17  O   -0.000004  -0.000000   0.000000   0.000000   0.000001   0.000203
    18  H   -0.000001  -0.000000  -0.000000   0.000000  -0.000001  -0.000026
    19  H    0.000000   0.000000  -0.000000  -0.000000   0.000000  -0.000001
    20  H    0.000000   0.000000  -0.000000  -0.000000   0.000000   0.000000
    21  H   -0.000000  -0.000000  -0.000000  -0.000000  -0.000000  -0.000000
    22  H   -0.000000   0.000000  -0.000000  -0.000000  -0.000000  -0.000000
    23  H   -0.000001   0.000000  -0.000000  -0.000000  -0.000000  -0.000010
    24  H   -0.012208   0.000004   0.000002   0.000008   0.000024  -0.000210
    25  H    0.666246   0.000503   0.005212   0.000203  -0.000225   0.000020
    26  H    0.000503   0.599163  -0.017630  -0.017276   0.001079   0.000003
    27  H    0.005212  -0.017630   0.624436  -0.021935   0.000128   0.000008
    28  H    0.000203  -0.017276  -0.021935   0.617047   0.003589  -0.000005
    29  H   -0.000225   0.001079   0.000128   0.003589   0.666901  -0.011187
    30  H    0.000020   0.000003   0.000008  -0.000005  -0.011187   0.620713
 Mulliken charges:
               1
     1  O   -0.481255
     2  S    0.937175
     3  N   -0.305716
     4  C    0.133733
     5  C   -0.050459
     6  C   -0.006297
     7  C   -0.011200
     8  C   -0.004898
     9  C   -0.072500
    10  C   -0.077241
    11  C    0.037822
    12  C   -0.031184
    13  C   -0.077170
    14  C    0.031394
    15  C   -0.024750
    16  C   -0.001337
    17  O   -0.453659
    18  H    0.167476
    19  H   -0.006949
    20  H    0.015042
    21  H    0.010488
    22  H    0.015685
    23  H    0.040127
    24  H    0.020142
    25  H    0.007401
    26  H    0.063540
    27  H    0.037250
    28  H    0.046956
    29  H    0.006771
    30  H    0.033613
 Sum of Mulliken charges =  -0.00000
 Mulliken charges with hydrogens summed into heavy atoms:
               1
     1  O   -0.481255
     2  S    0.937175
     3  N   -0.138239
     4  C    0.133733
     5  C   -0.057408
     6  C    0.008745
     7  C   -0.000712
     8  C    0.010787
     9  C   -0.032373
    10  C   -0.077241
    11  C    0.057964
    12  C   -0.023783
    13  C   -0.077170
    14  C    0.179140
    15  C   -0.017979
    16  C    0.032276
    17  O   -0.453659
 Electronic spatial extent (au):  <R**2>=           5220.6521
 Charge=             -0.0000 electrons
 Dipole moment (field-independent basis, Debye):
    X=              1.7539    Y=             -3.3997    Z=             -1.9178  Tot=              4.2793
 Quadrupole moment (field-independent basis, Debye-Ang):
   XX=            -88.1106   YY=           -112.7356   ZZ=           -103.8014
   XY=             -0.6924   XZ=              0.4377   YZ=             -4.2485
 Traceless Quadrupole moment (field-independent basis, Debye-Ang):
   XX=             13.4386   YY=            -11.1864   ZZ=             -2.2522
   XY=             -0.6924   XZ=              0.4377   YZ=             -4.2485
 Octapole moment (field-independent basis, Debye-Ang**2):
  XXX=             45.4666  YYY=            -12.6157  ZZZ=            -11.5970  XYY=             12.4606
  XXY=            -25.2061  XXZ=             -7.5897  XZZ=            -14.8529  YZZ=              0.0299
  YYZ=              3.8249  XYZ=             -4.0920
 Hexadecapole moment (field-independent basis, Debye-Ang**3):
 XXXX=          -4954.1891 YYYY=          -1237.1337 ZZZZ=           -539.4899 XXXY=             58.3195
 XXXZ=            -57.8021 YYYX=            -44.9319 YYYZ=              4.5945 ZZZX=              3.1726
 ZZZY=            -13.1500 XXYY=          -1034.3694 XXZZ=           -941.0963 YYZZ=           -290.2645
 XXYZ=             -9.2585 YYXZ=             12.7776 ZZXY=             15.0703
 N-N= 1.300331208810D+03 E-N=-5.189388278691D+03  KE= 1.097892019936D+03
   1 Symmetry operations used in ECPInt.
 ECPInt:  NShTT=   10296 NPrTT=   38220 LenC2=    9294 LenP2D=   24398.
 LDataN:  DoStor=T MaxTD1= 5 Len=  102
 Calling FoFJK, ICntrl=      2127 FMM=F ISym2X=0 I1Cent= 0 IOpClX= 0 NMat=1 NMatS=1 NMatT=0.
 ***** Axes restored to original set *****
 -------------------------------------------------------------------
 Center     Atomic                   Forces (Hartrees/Bohr)
 Number     Number              X              Y              Z
 -------------------------------------------------------------------
      1        8           0.015232341   -0.036034152   -0.035895990
      2       16          -0.032184156    0.028932896   -0.006170376
      3        7          -0.001550956    0.021175471   -0.024559226
      4        6           0.024006890   -0.010823954   -0.006636516
      5        6          -0.013331948    0.007142196    0.001603570
      6        6           0.003003021   -0.000999855   -0.001207503
      7        6           0.006965030   -0.002989964   -0.003419668
      8        6           0.004981919   -0.005113977    0.003273478
      9        6          -0.012125070    0.003184651    0.002670579
     10        6           0.006812928    0.013684886    0.000786253
     11        6           0.005890260   -0.005243749   -0.008868830
     12        6           0.002298513    0.002046400    0.001772416
     13        6          -0.004492456   -0.000937966   -0.000942596
     14        6          -0.001205235   -0.004875830    0.001253368
     15        6           0.002163664   -0.002008931   -0.001391658
     16        6          -0.002925400    0.009621239    0.007115700
     17        8          -0.009520835   -0.006375326    0.054898106
     18        1           0.002820659    0.000814518    0.019177804
     19        1          -0.002985767   -0.002733023    0.012436523
     20        1           0.005217414   -0.005568650    0.007114953
     21        1           0.009182411   -0.004264395   -0.003204191
     22        1           0.001872563    0.002418550   -0.009780339
     23        1          -0.001226090    0.002894993   -0.007318351
     24        1           0.008258793   -0.004456327   -0.006804867
     25        1           0.001137464   -0.009422954   -0.006833995
     26        1          -0.005444451    0.003068304   -0.004257879
     27        1           0.000210959   -0.005260916   -0.002832141
     28        1          -0.004106481   -0.000195061    0.005063968
     29        1          -0.008842337    0.003941689    0.006820119
     30        1          -0.000113646    0.008379235    0.006137292
 -------------------------------------------------------------------
 Cartesian Forces:  Max     0.054898106 RMS     0.011735868

 GradGradGradGradGradGradGradGradGradGradGradGradGradGradGradGradGradGrad
 Berny optimization.
 FormGI is forming the generalized inverse of G from B-inverse, IUseBI=4.
 Internal  Forces:  Max     0.055450577 RMS     0.010542398
 Search for a local minimum.
 Step number   1 out of a maximum of  162
 All quantities printed in internal units (Hartrees-Bohrs-Radians)
 Mixed Optimization -- RFO/linear search
 Second derivative matrix not updated -- first step.
 ITU=  0
     Eigenvalues ---    0.00431   0.00926   0.01160   0.01611   0.01744
     Eigenvalues ---    0.01753   0.02000   0.02138   0.02244   0.02268
     Eigenvalues ---    0.02274   0.02300   0.02309   0.02340   0.02348
     Eigenvalues ---    0.02348   0.02370   0.02385   0.02387   0.02394
     Eigenvalues ---    0.02396   0.02423   0.02719   0.07306   0.07347
     Eigenvalues ---    0.09977   0.11510   0.12169   0.13340   0.15996
     Eigenvalues ---    0.16000   0.16000   0.16000   0.16000   0.16000
     Eigenvalues ---    0.16000   0.16000   0.16000   0.16000   0.16000
     Eigenvalues ---    0.16000   0.17243   0.22000   0.22000   0.22000
     Eigenvalues ---    0.22977   0.23026   0.23458   0.23997   0.24989
     Eigenvalues ---    0.24994   0.25000   0.25000   0.26479   0.33679
     Eigenvalues ---    0.34684   0.34766   0.34773   0.34777   0.36257
     Eigenvalues ---    0.36281   0.36286   0.36295   0.36310   0.36440
     Eigenvalues ---    0.36447   0.36513   0.36749   0.42608   0.43475
     Eigenvalues ---    0.44023   0.44271   0.46392   0.47098   0.47702
     Eigenvalues ---    0.47823   0.48056   0.49075   0.49257   0.49295
     Eigenvalues ---    0.50065   0.50110   0.76294   0.76719
 RFO step:  Lambda=-4.23827618D-02 EMin= 4.30674935D-03
 Linear search not attempted -- first point.
 Maximum step size (   0.300) exceeded in Quadratic search.
    -- Step size scaled by   0.901
 Iteration  1 RMS(Cart)=  0.17647186 RMS(Int)=  0.00618723
 Iteration  2 RMS(Cart)=  0.02060416 RMS(Int)=  0.00067966
 Iteration  3 RMS(Cart)=  0.00026990 RMS(Int)=  0.00067460
 Iteration  4 RMS(Cart)=  0.00000036 RMS(Int)=  0.00067460
 Variable       Old X    -DE/DX   Delta X   Delta X   Delta X     New X
                                 (Linear)    (Quad)   (Total)
    R1        2.83678  -0.05268   0.00000  -0.05893  -0.05893   2.77785
    R2        3.23191   0.00591   0.00000   0.01369   0.01369   3.24560
    R3        3.39288  -0.00402   0.00000  -0.01178  -0.01178   3.38110
    R4        2.83435  -0.05545   0.00000  -0.06171  -0.06171   2.77264
    R5        2.63692   0.02965   0.00000   0.05277   0.05277   2.68969
    R6        1.88958   0.01836   0.00000   0.03186   0.03186   1.92144
    R7        2.64518   0.00552   0.00000   0.00933   0.00932   2.65450
    R8        2.64426   0.00793   0.00000   0.01404   0.01404   2.65831
    R9        2.59860   0.01570   0.00000   0.02574   0.02573   2.62433
   R10        2.03287   0.01303   0.00000   0.02882   0.02882   2.06169
   R11        2.60885   0.01112   0.00000   0.01906   0.01906   2.62791
   R12        2.03636   0.01038   0.00000   0.02308   0.02308   2.05944
   R13        2.60840   0.01220   0.00000   0.02124   0.02124   2.62964
   R14        2.03623   0.01061   0.00000   0.02359   0.02359   2.05982
   R15        2.59660   0.01995   0.00000   0.03336   0.03337   2.62997
   R16        2.03644   0.01016   0.00000   0.02259   0.02259   2.05903
   R17        2.02927   0.00675   0.00000   0.01485   0.01485   2.04412
   R18        2.59616   0.01921   0.00000   0.03221   0.03222   2.62838
   R19        2.59619   0.01674   0.00000   0.02816   0.02817   2.62436
   R20        2.60816   0.01031   0.00000   0.01740   0.01740   2.62556
   R21        2.03599   0.01138   0.00000   0.02529   0.02529   2.06128
   R22        2.62266   0.01530   0.00000   0.02603   0.02603   2.64869
   R23        2.03389   0.01161   0.00000   0.02572   0.02572   2.05961
   R24        2.81175   0.01282   0.00000   0.03045   0.03045   2.84220
   R25        2.62156   0.01444   0.00000   0.02452   0.02452   2.64608
   R26        2.06046   0.00752   0.00000   0.01738   0.01738   2.07783
   R27        2.06038   0.00587   0.00000   0.01357   0.01357   2.07395
   R28        2.06056   0.00635   0.00000   0.01466   0.01466   2.07522
   R29        2.60805   0.01248   0.00000   0.02113   0.02113   2.62918
   R30        2.03400   0.01176   0.00000   0.02604   0.02604   2.06004
   R31        2.03681   0.01037   0.00000   0.02308   0.02308   2.05989
    A1        1.84507  -0.00825   0.00000  -0.03696  -0.03948   1.80559
    A2        1.87835   0.00011   0.00000   0.01641   0.01730   1.89565
    A3        2.12963  -0.00138   0.00000  -0.03089  -0.03324   2.09639
    A4        1.67135   0.02534   0.00000   0.09761   0.09714   1.76849
    A5        2.02802  -0.00738   0.00000  -0.02900  -0.03223   1.99579
    A6        1.85099  -0.00078   0.00000   0.02172   0.02219   1.87317
    A7        2.13172   0.05271   0.00000   0.18054   0.17895   2.31068
    A8        1.80279  -0.01483   0.00000  -0.02738  -0.02884   1.77395
    A9        2.02469  -0.01958   0.00000  -0.05961  -0.06300   1.96169
   A10        2.07599  -0.02460   0.00000  -0.07514  -0.07517   2.00082
   A11        2.15562   0.02303   0.00000   0.07165   0.07156   2.22718
   A12        2.05138   0.00154   0.00000   0.00314   0.00309   2.05447
   A13        2.11308   0.00262   0.00000   0.00715   0.00714   2.12022
   A14        2.06952  -0.00022   0.00000   0.00130   0.00130   2.07082
   A15        2.10057  -0.00240   0.00000  -0.00844  -0.00843   2.09214
   A16        2.09798   0.00060   0.00000   0.00196   0.00196   2.09994
   A17        2.09284  -0.00137   0.00000  -0.00575  -0.00575   2.08709
   A18        2.09236   0.00077   0.00000   0.00378   0.00379   2.09615
   A19        2.09168  -0.00532   0.00000  -0.01646  -0.01645   2.07522
   A20        2.09572   0.00230   0.00000   0.00663   0.00663   2.10234
   A21        2.09579   0.00302   0.00000   0.00983   0.00983   2.10562
   A22        2.09665   0.00485   0.00000   0.01868   0.01870   2.11535
   A23        2.09362  -0.00106   0.00000  -0.00327  -0.00328   2.09034
   A24        2.09290  -0.00379   0.00000  -0.01541  -0.01542   2.07748
   A25        2.11560  -0.00430   0.00000  -0.01447  -0.01445   2.10114
   A26        2.07221   0.00640   0.00000   0.02621   0.02620   2.09841
   A27        2.09515  -0.00210   0.00000  -0.01164  -0.01165   2.08350
   A28        2.09116  -0.00194   0.00000  -0.00694  -0.00694   2.08421
   A29        2.09125  -0.00180   0.00000  -0.00651  -0.00651   2.08474
   A30        2.10078   0.00374   0.00000   0.01344   0.01344   2.11422
   A31        2.09197  -0.00386   0.00000  -0.01216  -0.01216   2.07981
   A32        2.08230   0.00417   0.00000   0.01605   0.01605   2.09834
   A33        2.10891  -0.00031   0.00000  -0.00387  -0.00387   2.10504
   A34        2.10476   0.00237   0.00000   0.00726   0.00725   2.11201
   A35        2.09523  -0.00248   0.00000  -0.00942  -0.00941   2.08582
   A36        2.08319   0.00012   0.00000   0.00216   0.00216   2.08535
   A37        2.10991   0.00023   0.00000   0.00153   0.00153   2.11144
   A38        2.07179  -0.00052   0.00000  -0.00317  -0.00318   2.06861
   A39        2.10111   0.00029   0.00000   0.00172   0.00172   2.10283
   A40        1.93320   0.00021   0.00000  -0.00035  -0.00035   1.93285
   A41        1.94238   0.00104   0.00000   0.00554   0.00552   1.94790
   A42        1.93696   0.00109   0.00000   0.00521   0.00519   1.94215
   A43        1.88409  -0.00091   0.00000  -0.00473  -0.00473   1.87935
   A44        1.88548  -0.00135   0.00000  -0.00775  -0.00774   1.87774
   A45        1.87945  -0.00020   0.00000   0.00150   0.00146   1.88092
   A46        2.10400   0.00243   0.00000   0.00766   0.00765   2.11166
   A47        2.08228   0.00015   0.00000   0.00226   0.00227   2.08455
   A48        2.09689  -0.00258   0.00000  -0.00992  -0.00991   2.08698
   A49        2.09302  -0.00415   0.00000  -0.01299  -0.01299   2.08003
   A50        2.07788   0.00259   0.00000   0.00877   0.00877   2.08665
   A51        2.11229   0.00157   0.00000   0.00423   0.00423   2.11651
    D1       -2.23942   0.00669   0.00000   0.02378   0.02101  -2.21840
    D2        0.07981   0.00933   0.00000   0.06911   0.06889   0.14869
    D3        2.12130  -0.00021   0.00000  -0.01870  -0.01993   2.10137
    D4       -1.84266   0.00242   0.00000   0.02664   0.02794  -1.81472
    D5        0.18288  -0.01147   0.00000  -0.09037  -0.09018   0.09270
    D6        2.50210  -0.00883   0.00000  -0.04504  -0.04231   2.45979
    D7       -3.08724  -0.00142   0.00000  -0.01350  -0.01414  -3.10137
    D8        0.05510  -0.00117   0.00000  -0.00970  -0.01036   0.04474
    D9       -1.19316  -0.00088   0.00000  -0.01357  -0.01399  -1.20715
   D10        1.94917  -0.00063   0.00000  -0.00977  -0.01021   1.93896
   D11        0.89057   0.00076   0.00000  -0.00098   0.00011   0.89068
   D12       -2.25028   0.00101   0.00000   0.00282   0.00389  -2.24639
   D13        2.93273   0.00379   0.00000   0.01557   0.01447   2.94720
   D14       -0.23057   0.00241   0.00000  -0.00459  -0.00572  -0.23630
   D15        0.70763  -0.00729   0.00000  -0.06880  -0.06767   0.63996
   D16       -2.45567  -0.00867   0.00000  -0.08896  -0.08786  -2.54354
   D17        3.12102  -0.00039   0.00000  -0.00896  -0.00813   3.11290
   D18       -0.01358  -0.00059   0.00000  -0.01126  -0.01056  -0.02413
   D19       -0.00016   0.00062   0.00000   0.00906   0.00895   0.00880
   D20       -3.13475   0.00041   0.00000   0.00677   0.00652  -3.12823
   D21       -3.11968   0.00127   0.00000   0.01521   0.01597  -3.10371
   D22        0.04465   0.00089   0.00000   0.01009   0.01064   0.05529
   D23        0.00048  -0.00040   0.00000  -0.00561  -0.00562  -0.00514
   D24       -3.11837  -0.00078   0.00000  -0.01073  -0.01096  -3.12933
   D25       -0.00078  -0.00040   0.00000  -0.00614  -0.00595  -0.00673
   D26        3.14152  -0.00025   0.00000  -0.00339  -0.00337   3.13815
   D27        3.13369  -0.00018   0.00000  -0.00376  -0.00345   3.13024
   D28       -0.00719  -0.00003   0.00000  -0.00101  -0.00087  -0.00806
   D29        0.00140  -0.00006   0.00000  -0.00056  -0.00062   0.00078
   D30        3.14032   0.00013   0.00000   0.00209   0.00200  -3.14086
   D31       -3.14090  -0.00021   0.00000  -0.00331  -0.00321   3.13907
   D32       -0.00198  -0.00002   0.00000  -0.00066  -0.00059  -0.00258
   D33       -0.00108   0.00027   0.00000   0.00399   0.00389   0.00281
   D34        3.13481   0.00028   0.00000   0.00357   0.00360   3.13841
   D35       -3.14000   0.00008   0.00000   0.00134   0.00127  -3.13873
   D36       -0.00411   0.00009   0.00000   0.00092   0.00098  -0.00313
   D37        0.00013  -0.00003   0.00000  -0.00079  -0.00068  -0.00055
   D38        3.11868   0.00046   0.00000   0.00488   0.00510   3.12378
   D39       -3.13576  -0.00005   0.00000  -0.00041  -0.00043  -3.13619
   D40       -0.01721   0.00044   0.00000   0.00526   0.00535  -0.01186
   D41        3.14090  -0.00023   0.00000  -0.00286  -0.00286   3.13804
   D42       -0.00575   0.00009   0.00000   0.00160   0.00162  -0.00413
   D43       -0.00144  -0.00048   0.00000  -0.00669  -0.00671  -0.00815
   D44        3.13510  -0.00016   0.00000  -0.00223  -0.00223   3.13286
   D45       -3.14042   0.00014   0.00000   0.00169   0.00169  -3.13873
   D46        0.00446  -0.00012   0.00000  -0.00199  -0.00199   0.00246
   D47        0.00191   0.00039   0.00000   0.00552   0.00554   0.00746
   D48       -3.13639   0.00013   0.00000   0.00184   0.00186  -3.13453
   D49       -0.00510   0.00045   0.00000   0.00631   0.00629   0.00119
   D50        3.13337   0.00043   0.00000   0.00593   0.00591   3.13928
   D51       -3.14156   0.00011   0.00000   0.00173   0.00174  -3.13982
   D52       -0.00308   0.00009   0.00000   0.00134   0.00136  -0.00173
   D53        3.12311  -0.00013   0.00000  -0.00166  -0.00167   3.12144
   D54        0.01095  -0.00034   0.00000  -0.00475  -0.00476   0.00618
   D55       -0.01539  -0.00010   0.00000  -0.00126  -0.00126  -0.01665
   D56       -3.12755  -0.00031   0.00000  -0.00435  -0.00436  -3.13191
   D57       -1.75318  -0.00026   0.00000  -0.00267  -0.00268  -1.75585
   D58        0.34294  -0.00059   0.00000  -0.00520  -0.00522   0.33771
   D59        2.43572   0.00058   0.00000   0.00387   0.00388   2.43961
   D60        1.35850  -0.00006   0.00000   0.00039   0.00040   1.35889
   D61       -2.82858  -0.00038   0.00000  -0.00214  -0.00215  -2.83072
   D62       -0.73579   0.00078   0.00000   0.00694   0.00696  -0.72883
   D63       -0.01046   0.00026   0.00000   0.00358   0.00358  -0.00689
   D64        3.12821   0.00029   0.00000   0.00407   0.00408   3.13229
   D65       -3.12278   0.00004   0.00000   0.00050   0.00050  -3.12228
   D66        0.01589   0.00008   0.00000   0.00100   0.00100   0.01689
   D67        0.00414  -0.00028   0.00000  -0.00396  -0.00394   0.00020
   D68       -3.14080  -0.00000   0.00000  -0.00019  -0.00018  -3.14098
   D69       -3.13450  -0.00032   0.00000  -0.00448  -0.00447  -3.13897
   D70        0.00374  -0.00005   0.00000  -0.00071  -0.00071   0.00303
         Item               Value     Threshold  Converged?
 Maximum Force            0.055451     0.000450     NO 
 RMS     Force            0.010542     0.000300     NO 
 Maximum Displacement     0.639282     0.001800     NO 
 RMS     Displacement     0.191648     0.001200     NO 
 Predicted change in Energy=-2.350049D-02
 GradGradGradGradGradGradGradGradGradGradGradGradGradGradGradGradGradGrad

                          Input orientation:                          
 ---------------------------------------------------------------------
 Center     Atomic      Atomic             Coordinates (Angstroms)
 Number     Number       Type             X           Y           Z
 ---------------------------------------------------------------------
      1          8           0       -0.267139    2.420546    1.195834
      2         16           0       -0.095850    1.445059    0.109599
      3          7           0        1.010114    0.306568    0.765703
      4          6           0        2.247106   -0.213137    0.290727
      5          6           0        2.974897   -0.951158    1.238790
      6          6           0        4.185471   -1.550849    0.917128
      7          6           0        4.704928   -1.438563   -0.367944
      8          6           0        3.992532   -0.716541   -1.320610
      9          6           0        2.780684   -0.108476   -1.006650
     10          6           0       -1.583951    0.459219   -0.012533
     11          6           0       -1.645586   -0.572234   -0.943582
     12          6           0       -2.802125   -1.337195   -1.031022
     13          6           0       -3.900808   -1.082751   -0.198728
     14          6           0       -5.161858   -1.894619   -0.311554
     15          6           0       -3.812524   -0.032001    0.722582
     16          6           0       -2.659395    0.740353    0.819942
     17          8           0        0.237991    1.901817   -1.244154
     18          1           0        1.063155    0.607500    1.735483
     19          1           0        2.568911   -1.052829    2.246318
     20          1           0        4.725943   -2.113739    1.677871
     21          1           0        5.654564   -1.908917   -0.623050
     22          1           0        4.387924   -0.617039   -2.331043
     23          1           0        2.259757    0.459639   -1.765568
     24          1           0       -0.795002   -0.774904   -1.595681
     25          1           0       -2.857320   -2.145458   -1.760092
     26          1           0       -5.927942   -1.347244   -0.879432
     27          1           0       -4.984054   -2.848084   -0.825134
     28          1           0       -5.580516   -2.120125    0.678308
     29          1           0       -4.661514    0.184566    1.371185
     30          1           0       -2.585543    1.559006    1.535875
 ---------------------------------------------------------------------
                    Distance matrix (angstroms):
                    1          2          3          4          5
     1  O    0.000000
     2  S    1.469973   0.000000
     3  N    2.507049   1.717495   0.000000
     4  C    3.751924   2.876085   1.423321   0.000000
     5  C    4.677716   4.055417   2.380348   1.404699   0.000000
     6  C    5.972889   5.287464   3.681822   2.437029   1.388736
     7  C    6.485335   5.620568   4.240552   2.824253   2.410844
     8  C    5.858209   4.840752   3.780776   2.428237   2.764265
     9  C    4.531679   3.454552   2.539373   1.406715   2.406207
    10  C    2.653478   1.789201   2.712587   3.901413   4.933362
    11  C    3.928606   2.753242   3.278215   4.099455   5.123982
    12  C    5.050312   4.045476   4.523643   5.339032   6.218926
    13  C    5.236549   4.578493   5.193987   6.228375   7.025603
    14  C    6.697099   6.082372   6.640704   7.621212   8.336693
    15  C    4.336900   4.046124   4.834700   6.077699   6.868799
    16  C    2.947410   2.751901   3.695458   5.026228   5.897617
    17  O    2.545147   1.467217   2.679649   3.296275   4.668525
    18  H    2.312583   2.165247   1.016782   2.040222   2.516123
    19  H    4.605544   4.231543   2.543625   2.152435   1.090997
    20  H    6.761876   6.194691   4.527396   3.417761   2.147219
    21  H    7.557722   6.697252   5.329908   3.914259   3.400642
    22  H    6.582962   5.505743   4.674664   3.408800   3.853828
    23  H    4.358929   3.167994   2.827078   2.163593   3.395282
    24  H    4.275756   2.885312   3.162935   3.623333   4.719897
    25  H    6.024527   4.900333   5.229638   5.830514   6.665913
    26  H    7.109687   6.541287   7.319713   8.335880   9.159928
    27  H    7.354730   6.572621   6.957920   7.776746   8.438187
    28  H    7.008388   6.566242   7.023737   8.065885   8.653075
    29  H    4.933648   4.901605   5.705161   7.003899   7.721539
    30  H    2.496573   2.871553   3.884652   5.295789   6.108001
                    6          7          8          9         10
     6  C    0.000000
     7  C    1.390631   0.000000
     8  C    2.395990   1.391545   0.000000
     9  C    2.784742   2.424828   1.391722   0.000000
    10  C    6.179876   6.578593   5.847276   4.512271   0.000000
    11  C    6.198481   6.435132   5.652553   4.450946   1.390880
    12  C    7.257233   7.536961   6.829087   5.716476   2.397576
    13  C    8.176317   8.614751   7.981075   6.800316   2.789296
    14  C    9.434002   9.877481   9.284876   8.170523   4.293179
    15  C    8.143259   8.701416   8.097044   6.816633   2.397546
    16  C    7.218812   7.771229   7.138112   5.800984   1.388752
    17  O    5.672270   5.646185   4.578015   3.250073   2.630105
    18  H    3.882916   4.676889   4.435543   3.313883   3.175643
    19  H    2.151288   3.397900   3.855226   3.393885   4.963361
    20  H    1.089809   2.154452   3.388354   3.874502   7.020850
    21  H    2.158378   1.090009   2.161180   3.412905   7.640477
    22  H    3.385795   2.151547   1.089592   2.143798   6.495930
    23  H    3.866173   3.396378   2.141003   1.081700   4.224597
    24  H    5.632177   5.674241   4.795785   3.684646   2.156816
    25  H    7.557908   7.721746   7.011092   6.041859   3.385229
    26  H   10.273763  10.645557   9.950288   8.797210   4.783836
    27  H    9.423295   9.801640   9.239484   8.235870   4.812409
    28  H    9.785480  10.360962   9.879726   8.763304   4.806538
    29  H    9.027014   9.663817   9.107704   7.818331   3.385485
    30  H    7.476676   8.109310   7.523875   6.167765   2.147157
                   11         12         13         14         15
    11  C    0.000000
    12  C    1.389386   0.000000
    13  C    2.429292   1.401627   0.000000
    14  C    3.809505   2.529169   1.504029   0.000000
    15  C    2.786319   2.408229   1.400245   2.521802   0.000000
    16  C    2.420890   2.786152   2.429508   3.806006   1.391300
    17  O    3.123962   4.447351   5.208668   6.666411   4.900446
    18  H    3.988288   5.135734   5.589190   7.014395   5.020674
    19  H    5.307393   6.298400   6.916387   8.186336   6.639771
    20  H    7.060074   8.038216   8.888498  10.088331   8.840341
    21  H    7.428436   8.485805   9.600403  10.820915   9.744706
    22  H    6.191147   7.342035   8.571274   9.844230   8.770076
    23  H    4.122151   5.421330   6.541141   7.920673   6.580668
    24  H    1.090780   2.159526   3.419398   4.687449   3.877072
    25  H    2.147096   1.089899   2.157793   2.733511   3.397468
    26  H    4.352393   3.129507   2.154666   1.099541   2.961640
    27  H    4.042139   2.661953   2.163840   1.097486   3.420268
    28  H    4.528815   3.354735   2.160268   1.098160   2.736425
    29  H    3.876431   3.397599   2.156246   2.721206   1.090125
    30  H    3.401971   3.876060   3.423106   4.688061   2.167539
                   16         17         18         19         20
    16  C    0.000000
    17  O    3.742237   0.000000
    18  H    3.835784   3.351774   0.000000
    19  H    5.708347   5.132885   2.298901   0.000000
    20  H    7.963987   6.693626   4.563384   2.470111   0.000000
    21  H    8.844363   6.651821   5.742479   4.299700   2.489684
    22  H    7.838107   4.974726   5.393535   4.944791   4.292524
    23  H    5.564326   2.537576   3.702847   4.298647   4.955968
    24  H    3.406934   2.890585   4.057146   5.114109   6.556634
    25  H    3.876036   5.121287   5.930256   6.832945   8.326252
    26  H    4.234305   6.979123   7.715843   9.058339  10.983287
    27  H    4.581179   7.071556   7.420684   8.348894  10.054270
    28  H    4.090885   7.329864   7.259195   8.367254  10.354819
    29  H    2.149709   5.813270   5.751819   7.387560   9.669571
[...]
     2  S    0.000025   0.000175  -0.008170   0.307996  -0.016547   0.004867
     3  N    0.000974   0.005942  -0.019547  -0.061444   0.006356   0.000051
     4  C   -0.112021   0.025707   0.363627   0.045014  -0.002549   0.001885
     5  C    0.035571  -0.098008   0.057852  -0.000171  -0.014250  -0.000560
     6  C    0.439100   0.022549  -0.090392  -0.001762   0.001200   0.002006
     7  C    4.963727   0.413189   0.048677  -0.000158  -0.000706  -0.000195
     8  C    0.413189   4.970995   0.385921  -0.000068  -0.001266   0.000433
     9  C    0.048677   0.385921   5.133532   0.003465   0.000867  -0.002489
    10  C   -0.000158  -0.000068   0.003465   5.294034   0.316227   0.049823
    11  C   -0.000706  -0.001266   0.000867   0.316227   5.142099   0.357362
    12  C   -0.000195   0.000433  -0.002489   0.049823   0.357362   5.100244
    13  C    0.000042  -0.000039   0.000219  -0.090540   0.033044   0.412535
    14  C   -0.000001  -0.000001   0.000006  -0.004307   0.013800  -0.073666
    15  C    0.000020  -0.000008   0.000048   0.015633  -0.050407  -0.014074
    16  C   -0.000059   0.000171   0.000327   0.368114  -0.069579  -0.046402
    17  O    0.000128  -0.001110  -0.003465  -0.078718   0.018594   0.002964
    18  H    0.000136  -0.000720   0.004524  -0.000735   0.000707  -0.000043
    19  H    0.010390  -0.003893   0.012038   0.000787  -0.000269  -0.000258
    20  H   -0.057144   0.010719  -0.003858   0.000005   0.000029   0.000022
    21  H    0.443934  -0.056275   0.011297   0.000004  -0.000018  -0.000002
    22  H   -0.058354   0.446325  -0.057682  -0.000016  -0.000004   0.000008
    23  H    0.010215  -0.048922   0.434639   0.001828  -0.000442  -0.000158
    24  H    0.000105   0.000351   0.000013  -0.046338   0.436254  -0.049475
    25  H    0.000008   0.000057  -0.000101   0.010712  -0.048550   0.444514
    26  H    0.000000   0.000000  -0.000000   0.000160  -0.000730  -0.004878
    27  H   -0.000000   0.000000   0.000000   0.000055   0.001934  -0.006655
    28  H    0.000000  -0.000000   0.000000   0.000065  -0.000710   0.007942
    29  H   -0.000000   0.000000  -0.000002   0.011284  -0.003857   0.012870
    30  H   -0.000003   0.000007  -0.000018  -0.045625   0.008281  -0.002426
              13         14         15         16         17         18
     1  O    0.000166   0.000001   0.002760   0.026778  -0.043929   0.004370
     2  S   -0.000536   0.000005   0.005744  -0.039188   0.565031  -0.016602
     3  N    0.000226  -0.000004  -0.001190   0.000036  -0.050071   0.365621
     4  C   -0.000717   0.000007   0.000250   0.001024  -0.007684  -0.051469
     5  C   -0.000463   0.000008   0.000795  -0.001915   0.001074   0.008837
     6  C    0.000056  -0.000016  -0.000051  -0.000680   0.000101   0.001087
     7  C    0.000042  -0.000001   0.000020  -0.000059   0.000128   0.000136
     8  C   -0.000039  -0.000001  -0.000008   0.000171  -0.001110  -0.000720
     9  C    0.000219   0.000006   0.000048   0.000327  -0.003465   0.004524
    10  C   -0.090540  -0.004307   0.015633   0.368114  -0.078718  -0.000735
    11  C    0.033044   0.013800  -0.050407  -0.069579   0.018594   0.000707
    12  C    0.412535  -0.073666  -0.014074  -0.046402   0.002964  -0.000043
    13  C    4.972690   0.297544   0.432311   0.016219  -0.000113   0.000064
    14  C    0.297544   4.958423  -0.073384   0.013149  -0.000000   0.000000
    15  C    0.432311  -0.073384   5.062906   0.404483  -0.000265  -0.000166
    16  C    0.016219   0.013149   0.404483   5.106074   0.006937   0.000144
    17  O   -0.000113  -0.000000  -0.000265   0.006937   8.031243   0.002676
    18  H    0.000064   0.000000  -0.000166   0.000144   0.002676   0.429407
    19  H   -0.000009  -0.000000   0.000310   0.000380  -0.000017   0.003563
    20  H   -0.000005   0.000000  -0.000003  -0.000001  -0.000000  -0.000040
    21  H   -0.000001   0.000000   0.000000  -0.000000   0.000001  -0.000002
    22  H   -0.000000  -0.000000  -0.000000   0.000001  -0.000038   0.000013
    23  H    0.000015   0.000000   0.000007  -0.000172   0.008971  -0.000050
    24  H    0.008918  -0.000031  -0.002426   0.008178   0.008185  -0.000098
    25  H   -0.063182  -0.006641   0.012778  -0.003657  -0.000011   0.000000
    26  H   -0.017376   0.390172  -0.004583  -0.000662  -0.000000  -0.000000
    27  H   -0.053278   0.427609   0.006948  -0.000639   0.000000  -0.000000
    28  H   -0.054901   0.427650  -0.006510   0.001946   0.000000   0.000000
    29  H   -0.062062  -0.006796   0.443196  -0.048868   0.000004  -0.000009
    30  H    0.008424  -0.000057  -0.048536   0.432617   0.000543   0.000364
              19         20         21         22         23         24
     1  O   -0.000176  -0.000000   0.000000  -0.000000  -0.000133   0.000384
     2  S   -0.000121  -0.000007   0.000003  -0.000003  -0.002920  -0.004118
     3  N    0.002897  -0.000360   0.000008  -0.000119  -0.001404   0.000355
     4  C   -0.080501   0.015211  -0.003964   0.013945  -0.044801   0.000130
     5  C    0.439954  -0.053930   0.012198  -0.003504   0.011287  -0.001670
     6  C   -0.031469   0.438887  -0.056087   0.010553  -0.004442   0.000168
     7  C    0.010390  -0.057144   0.443934  -0.058354   0.010215   0.000105
     8  C   -0.003893   0.010719  -0.056275   0.446325  -0.048922   0.000351
     9  C    0.012038  -0.003858   0.011297  -0.057682   0.434639   0.000013
    10  C    0.000787   0.000005   0.000004  -0.000016   0.001828  -0.046338
    11  C   -0.000269   0.000029  -0.000018  -0.000004  -0.000442   0.436254
    12  C   -0.000258   0.000022  -0.000002   0.000008  -0.000158  -0.049475
    13  C   -0.000009  -0.000005  -0.000001  -0.000000   0.000015   0.008918
    14  C   -0.000000   0.000000   0.000000  -0.000000   0.000000  -0.000031
    15  C    0.000310  -0.000003   0.000000  -0.000000   0.000007  -0.002426
    16  C    0.000380  -0.000001  -0.000000   0.000001  -0.000172   0.008178
    17  O   -0.000017  -0.000000   0.000001  -0.000038   0.008971   0.008185
    18  H    0.003563  -0.000040  -0.000002   0.000013  -0.000050  -0.000098
    19  H    0.538597  -0.007507  -0.000098   0.000028   0.000012  -0.000053
    20  H   -0.007507   0.541628  -0.006650  -0.000125   0.000015   0.000004
    21  H   -0.000098  -0.006650   0.538790  -0.006847  -0.000017  -0.000005
    22  H    0.000028  -0.000125  -0.006847   0.534758  -0.006494  -0.000017
    23  H    0.000012   0.000015  -0.000017  -0.006494   0.476179  -0.000091
    24  H   -0.000053   0.000004  -0.000005  -0.000017  -0.000091   0.481734
    25  H   -0.000002  -0.000000  -0.000000   0.000001  -0.000007  -0.005596
    26  H    0.000000  -0.000000  -0.000000   0.000000   0.000000   0.000008
    27  H   -0.000000   0.000000  -0.000000   0.000000  -0.000000  -0.000022
    28  H    0.000000  -0.000000   0.000000  -0.000000  -0.000000   0.000002
    29  H   -0.000003   0.000000   0.000000   0.000000  -0.000000   0.000026
    30  H   -0.000067   0.000000  -0.000000   0.000000  -0.000005  -0.000066
              25         26         27         28         29         30
     1  O    0.000003  -0.000000   0.000000   0.000000  -0.000028   0.013554
     2  S   -0.000100  -0.000001   0.000001   0.000001  -0.000114  -0.004415
     3  N    0.000031   0.000000  -0.000000  -0.000000   0.000017   0.000276
     4  C    0.000037  -0.000000   0.000003  -0.000001  -0.000007  -0.000183
     5  C   -0.000080   0.000000  -0.000002   0.000001  -0.000002  -0.000132
     6  C    0.000072   0.000000   0.000001  -0.000001   0.000003   0.000006
     7  C    0.000008   0.000000  -0.000000   0.000000  -0.000000  -0.000003
     8  C    0.000057   0.000000   0.000000  -0.000000   0.000000   0.000007
     9  C   -0.000101  -0.000000   0.000000   0.000000  -0.000002  -0.000018
    10  C    0.010712   0.000160   0.000055   0.000065   0.011284  -0.045625
    11  C   -0.048550  -0.000730   0.001934  -0.000710  -0.003857   0.008281
    12  C    0.444514  -0.004878  -0.006655   0.007942   0.012870  -0.002426
    13  C   -0.063182  -0.017376  -0.053278  -0.054901  -0.062062   0.008424
    14  C   -0.006641   0.390172   0.427609   0.427650  -0.006796  -0.000057
    15  C    0.012778  -0.004583   0.006948  -0.006510   0.443196  -0.048536
    16  C   -0.003657  -0.000662  -0.000639   0.001946  -0.048868   0.432617
    17  O   -0.000011  -0.000000   0.000000   0.000000   0.000004   0.000543
    18  H    0.000000  -0.000000  -0.000000   0.000000  -0.000009   0.000364
    19  H   -0.000002   0.000000  -0.000000   0.000000  -0.000003  -0.000067
    20  H   -0.000000  -0.000000   0.000000  -0.000000   0.000000   0.000000
    21  H   -0.000000  -0.000000  -0.000000   0.000000   0.000000  -0.000000
    22  H    0.000001   0.000000   0.000000  -0.000000   0.000000   0.000000
    23  H   -0.000007   0.000000  -0.000000  -0.000000  -0.000000  -0.000005
    24  H   -0.005596   0.000008  -0.000022   0.000002   0.000026  -0.000066
    25  H    0.533617   0.000256   0.000876   0.000074  -0.000049   0.000031
    26  H    0.000256   0.544762  -0.024254  -0.023389   0.000224   0.000007
    27  H    0.000876  -0.024254   0.540738  -0.023657   0.000057   0.000003
    28  H    0.000074  -0.023389  -0.023657   0.542008   0.001099  -0.000019
    29  H   -0.000049   0.000224   0.000057   0.001099   0.533413  -0.005563
    30  H    0.000031   0.000007   0.000003  -0.000019  -0.005563   0.477700
 Mulliken charges:
               1
     1  O   -0.474532
     2  S    0.856459
     3  N   -0.316464
     4  C    0.199920
     5  C   -0.217401
     6  C   -0.096904
     7  C   -0.137598
     8  C   -0.072232
     9  C   -0.270583
    10  C    0.000959
    11  C   -0.135607
    12  C   -0.195659
    13  C    0.160748
    14  C   -0.363471
    15  C   -0.186587
    16  C   -0.174753
    17  O   -0.461030
    18  H    0.248420
    19  H    0.115488
    20  H    0.123108
    21  H    0.123730
    22  H    0.127570
    23  H    0.166890
    24  H    0.165190
    25  H    0.124910
    26  H    0.140286
    27  H    0.130282
    28  H    0.128399
    29  H    0.125166
    30  H    0.165298
 Sum of Mulliken charges =  -0.00000
 Mulliken charges with hydrogens summed into heavy atoms:
               1
     1  O   -0.474532
     2  S    0.856459
     3  N   -0.068044
     4  C    0.199920
     5  C   -0.101913
     6  C    0.026204
     7  C   -0.013868
     8  C    0.055338
     9  C   -0.103693
    10  C    0.000959
    11  C    0.029583
    12  C   -0.070750
    13  C    0.160748
    14  C    0.035495
    15  C   -0.061421
    16  C   -0.009455
    17  O   -0.461030
 Electronic spatial extent (au):  <R**2>=           4366.6178
 Charge=             -0.0000 electrons
 Dipole moment (field-independent basis, Debye):
    X=              1.8221    Y=             -5.3822    Z=             -1.7648  Tot=              5.9500
 Quadrupole moment (field-independent basis, Debye-Ang):
   XX=            -96.8170   YY=           -114.0112   ZZ=           -101.0981
   XY=             -0.2827   XZ=             -2.6672   YZ=             -4.5449
 Traceless Quadrupole moment (field-independent basis, Debye-Ang):
   XX=              7.1584   YY=            -10.0358   ZZ=              2.8773
   XY=             -0.2827   XZ=             -2.6672   YZ=             -4.5449
 Octapole moment (field-independent basis, Debye-Ang**2):
  XXX=             41.9513  YYY=            -42.3688  ZZZ=            -11.7711  XYY=             -3.5024
  XXY=            -16.3268  XXZ=              7.5867  XZZ=             -2.8453  YZZ=             -0.3991
  YYZ=             -0.7605  XYZ=              0.8830
 Hexadecapole moment (field-independent basis, Debye-Ang**3):
 XXXX=          -3343.4863 YYYY=          -1978.1286 ZZZZ=           -577.6893 XXXY=            -53.3109
 XXXZ=           -112.7937 YYYX=             18.4080 YYYZ=             17.6603 ZZZX=            -13.6166
 ZZZY=            -24.0110 XXYY=           -821.9473 XXZZ=           -639.5089 YYZZ=           -410.8679
 XXYZ=            -31.6047 YYXZ=             12.7874 ZZXY=              2.1736
 N-N= 1.331931067788D+03 E-N=-5.259234077404D+03  KE= 1.102023896403D+03
 Breneman (CHELPG) radii used.
 Read replacement radii for each type of atom:
 Atom Element Radius
    1     8    1.70
    2    16    2.00
    3     7    1.70
    4     6    1.50
    5     6    1.50
    6     6    1.50
    7     6    1.50
    8     6    1.50
    9     6    1.50
   10     6    1.50
   11     6    1.50
   12     6    1.50
   13     6    1.50
   14     6    1.50
   15     6    1.50
   16     6    1.50
   17     8    1.70
   18     1    1.45
   19     1    1.45
   20     1    1.45
   21     1    1.45
   22     1    1.45
   23     1    1.45
   24     1    1.45
   25     1    1.45
   26     1    1.45
   27     1    1.45
   28     1    1.45
   29     1    1.45
   30     1    1.45
 Generate Potential Derived Charges using the Breneman model, NDens= 1.
 Grid spacing= 0.300 Box extension= 2.800
 NStep X,Y,Z=   49     42     34   Total possible points=       69972
 Number of Points to Fit=   18717

 **********************************************************************

            Electrostatic Properties Using The SCF Density.

 **********************************************************************

       Atomic Center    1 is at   0.244815  3.115691 -0.602855
       Atomic Center    2 is at  -0.211248  1.955893  0.139113
       Atomic Center    3 is at  -1.389747  1.267749 -0.841702
       Atomic Center    4 is at  -1.950929  0.004454 -0.532396
       Atomic Center    5 is at  -1.772323 -1.075451 -1.403416
       Atomic Center    6 is at  -2.334464 -2.314388 -1.105079
       Atomic Center    7 is at  -3.052743 -2.491934  0.076106
       Atomic Center    8 is at  -3.219267 -1.416601  0.949179
       Atomic Center    9 is at  -2.685330 -0.166954  0.646388
       Atomic Center   10 is at   1.098939  0.752198  0.173436
       Atomic Center   11 is at   1.042924 -0.301616  1.084535
       Atomic Center   12 is at   2.036187 -1.274996  1.051318
       Atomic Center   13 is at   3.088762 -1.207230  0.129547
       Atomic Center   14 is at   4.177615 -2.246581  0.128478
       Atomic Center   15 is at   3.122204 -0.132091 -0.768012
       Atomic Center   16 is at   2.134364  0.847624 -0.754184
       Atomic Center   17 is at  -0.759953  2.052994  1.477387
       Atomic Center   18 is at  -1.147190  1.412297 -1.818001
       Atomic Center   19 is at  -1.185479 -0.942194 -2.315805
       Atomic Center   20 is at  -2.197106 -3.148981 -1.795868
       Atomic Center   21 is at  -3.485367 -3.465589  0.314556
       Atomic Center   22 is at  -3.787318 -1.545760  1.872991
       Atomic Center   23 is at  -2.820924  0.683376  1.314672
       Atomic Center   24 is at   0.230701 -0.351282  1.811422
       Atomic Center   25 is at   1.993687 -2.105395  1.760403
       Atomic Center   26 is at   4.981518 -1.962840  0.826797
       Atomic Center   27 is at   3.797009 -3.227663  0.445798
       Atomic Center   28 is at   4.629170 -2.356403 -0.867428
       Atomic Center   29 is at   3.939542 -0.058251 -1.489798
       Atomic Center   30 is at   2.165421  1.692063 -1.445284
   18717 points will be used for fitting atomic charges
 Fitting point charges to electrostatic potential
 Charges from ESP fit, RMS=   0.00359 RRMS=   0.21955:
 ESP charges:
               1
     1  O   -0.485456
     2  S    0.934991
     3  N   -0.647565
     4  C    0.411736
     5  C   -0.271220
     6  C   -0.053620
     7  C   -0.144630
     8  C   -0.057028
     9  C   -0.219379
    10  C   -0.065123
    11  C   -0.036442
    12  C   -0.230856
    13  C    0.239470
    14  C   -0.271800
    15  C   -0.212058
    16  C   -0.067818
    17  O   -0.469718
    18  H    0.354969
    19  H    0.111464
    20  H    0.103905
    21  H    0.103772
    22  H    0.097515
    23  H    0.160405
    24  H    0.099612
    25  H    0.129030
    26  H    0.090198
    27  H    0.078776
    28  H    0.077353
    29  H    0.126852
    30  H    0.112664
 Sum of ESP charges =  -0.00000
 ESP charges with hydrogens summed into heavy atoms:
               1
     1  O   -0.485456
     2  S    0.934991
     3  N   -0.292596
     4  C    0.411736
     5  C   -0.159756
     6  C    0.050284
     7  C   -0.040858
     8  C    0.040488
     9  C   -0.058975
    10  C   -0.065123
    11  C    0.063170
    12  C   -0.101826
    13  C    0.239470
    14  C   -0.025472
    15  C   -0.085207
    16  C    0.044847
    17  O   -0.469718
 Charge=  -0.00000 Dipole=     1.7022    -5.2540    -1.7357 Tot=     5.7892
 -----------------------------------------------------------------

              Electrostatic Properties (Atomic Units)

 -----------------------------------------------------------------
    Center     Electric         -------- Electric Field --------
               Potential          X             Y             Z
 -----------------------------------------------------------------
    1 Atom    -22.373239
    2 Atom    -59.026799
    3 Atom    -18.345602
    4 Atom    -14.712677
    5 Atom    -14.755803
    6 Atom    -14.756712
    7 Atom    -14.761226
    8 Atom    -14.758980
    9 Atom    -14.763165
   10 Atom    -14.732022
   11 Atom    -14.745692
   12 Atom    -14.752981
   13 Atom    -14.736846
   14 Atom    -14.755044
   15 Atom    -14.752124
   16 Atom    -14.744873
   17 Atom    -22.373376
   18 Atom     -1.001975
   19 Atom     -1.087786
   20 Atom     -1.096082
   21 Atom     -1.099250
   22 Atom     -1.099706
   23 Atom     -1.101926
   24 Atom     -1.088677
   25 Atom     -1.091440
   26 Atom     -1.097640
   27 Atom     -1.100254
   28 Atom     -1.100365
   29 Atom     -1.090247
   30 Atom     -1.086168
 -----------------------------------------------------------------
 Unable to Open any file for archive entry.
 1\1\GINC-NOTCH454\SP\RwB97XD\def2TZVP\C13H13N1O2S1\U1366379\17-Feb-202
 6\0\\#N Guess=Read Geom=Check Integral(Ultrafine) Density Pop=(ChelpG,
 ReadRadii) NMR wB97XD def2TZVP\\prod_5l_15\\0,1\O,0,-0.4752210424,3.13
 66836714,0.9097141083\S,0,0.0017274308,2.098653326,0.016040134\N,0,1.3
 10276652,1.4196532051,0.8229214751\C,0,1.937226252,0.2452508624,0.3389
 551937\C,0,1.9181654878,-0.9265508801,1.102687744\C,0,2.5451615792,-2.
 0778036229,0.6320860324\C,0,3.1692859481,-2.0763503993,-0.6141533033\C
 ,0,3.1765176914,-0.9099045671,-1.3794496126\C,0,2.5771048406,0.2539208
 992,-0.9055279194\C,0,-1.2106955454,0.7973595344,-0.0415474487\C,0,-1.
 1539261249,-0.1528636773,-1.060181028\C,0,-2.0632661887,-1.2055599932,
 -1.0515272571\C,0,-3.0336469771,-1.3186477557,-0.047663656\C,0,-4.0356
 947535,-2.4416978326,-0.0702951094\C,0,-3.0708025998,-0.3440290088,0.9
 580153938\C,0,-2.1656436172,0.7125753503,0.9696772707\O,0,0.4227613438
 ,2.3735175019,-1.3436155984\H,0,1.1433469206,1.4460776239,1.8250813721
 \H,0,1.4045611712,-0.9342444664,2.067441097\H,0,2.5326373885,-2.985100
 494,1.2397524517\H,0,3.6525930102,-2.9814790672,-0.9872259179\H,0,3.67
 01466589,-0.8986174653,-2.3536135914\H,0,2.5886355667,1.174451602,-1.4
 89087479\H,0,-0.4066888196,-0.0614573833,-1.8500026198\H,0,-2.01939059
 57,-1.9553433153,-1.8452971799\H,0,-4.9166786463,-2.1597281359,-0.6692
 769366\H,0,-3.6103580538,-3.3508249921,-0.5182353755\H,0,-4.3890807474
 ,-2.6871565485,0.9409713132\H,0,-3.8254112353,-0.4113987529,1.74573106
 35\H,0,-2.2007929949,1.4790247815,1.7461953834\\Version=ES64L-G16RevC.
 01\State=1-A\HF=-1106.630477\RMSD=3.941e-09\Dipole=-0.4898422,-2.22884
 43,0.5216496\Quadrupole=4.8034435,-7.8681799,3.0647363,1.6978834,-2.31
 24325,2.0649033\PG=C01 [X(C13H13N1O2S1)]\\@
 The archive entry for this job was punched.


 A SCIENTIST IS SOMEONE WHOSE CURIOSITY SURVIVES
 EDUCATION'S ASSAULTS ON IT.
                          - SIR HERMANN BONDI
 Job cpu time:       0 days  1 hours  9 minutes 58.9 seconds.
 Elapsed time:       0 days  0 hours  9 minutes  1.1 seconds.
 File lengths (MBytes):  RWF=    226 Int=      0 D2E=      0 Chk=     34 Scr=      2
 Normal termination of Gaussian 16 at Tue Feb 17 17:04:49 2026.
