 Entering Gaussian System, Link 0=g16
 Input=prod_5l_16.com
 Output=prod_5l_16.log
 Initial command:
 /uufs/chpc.utah.edu/sys/installdir/gaussian16/C01/AVX/g16/l1.exe "/scratch/general/vast/u1366379/GAUSSSCRDIR/11078340-notchpeak.peaks/Gau-2235359.inp" -scrdir="/scratch/general/vast/u1366379/GAUSSSCRDIR/11078340-notchpeak.peaks/"
 Entering Link 1 = /uufs/chpc.utah.edu/sys/installdir/gaussian16/C01/AVX/g16/l1.exe PID=   2235360.
  
 Copyright (c) 1988-2019, Gaussian, Inc.  All Rights Reserved.
  
 This is part of the Gaussian(R) 16 program.  It is based on
 the Gaussian(R) 09 system (copyright 2009, Gaussian, Inc.),
 the Gaussian(R) 03 system (copyright 2003, Gaussian, Inc.),
 the Gaussian(R) 98 system (copyright 1998, Gaussian, Inc.),
 the Gaussian(R) 94 system (copyright 1995, Gaussian, Inc.),
 the Gaussian 92(TM) system (copyright 1992, Gaussian, Inc.),
 the Gaussian 90(TM) system (copyright 1990, Gaussian, Inc.),
 the Gaussian 88(TM) system (copyright 1988, Gaussian, Inc.),
 the Gaussian 86(TM) system (copyright 1986, Carnegie Mellon
 University), and the Gaussian 82(TM) system (copyright 1983,
 Carnegie Mellon University). Gaussian is a federally registered
 trademark of Gaussian, Inc.
  
 This software contains proprietary and confidential information,
 including trade secrets, belonging to Gaussian, Inc.
  
 This software is provided under written license and may be
 used, copied, transmitted, or stored only in accord with that
 written license.
  
 The following legend is applicable only to US Government
 contracts under FAR:
  
                    RESTRICTED RIGHTS LEGEND
  
 Use, reproduction and disclosure by the US Government is
 subject to restrictions as set forth in subparagraphs (a)
 and (c) of the Commercial Computer Software - Restricted
 Rights clause in FAR 52.227-19.
  
 Gaussian, Inc.
 340 Quinnipiac St., Bldg. 40, Wallingford CT 06492
  
  
 ---------------------------------------------------------------
 Warning -- This program may not be used in any manner that
 competes with the business of Gaussian, Inc. or will provide
 assistance to any competitor of Gaussian, Inc.  The licensee
 of this program is prohibited from giving any competitor of
 Gaussian, Inc. access to this program.  By using this program,
 the user acknowledges that Gaussian, Inc. is engaged in the
 business of creating and licensing software in the field of
 computational chemistry and represents and warrants to the
 licensee that it is not a competitor of Gaussian, Inc. and that
 it will not use this program in any manner prohibited above.
 ---------------------------------------------------------------
  

 Cite this work as:
 Gaussian 16, Revision C.01,
 M. J. Frisch, G. W. Trucks, H. B. Schlegel, G. E. Scuseria, 
 M. A. Robb, J. R. Cheeseman, G. Scalmani, V. Barone, 
 G. A. Petersson, H. Nakatsuji, X. Li, M. Caricato, A. V. Marenich, 
 J. Bloino, B. G. Janesko, R. Gomperts, B. Mennucci, H. P. Hratchian, 
 J. V. Ortiz, A. F. Izmaylov, J. L. Sonnenberg, D. Williams-Young, 
 F. Ding, F. Lipparini, F. Egidi, J. Goings, B. Peng, A. Petrone, 
 T. Henderson, D. Ranasinghe, V. G. Zakrzewski, J. Gao, N. Rega, 
 G. Zheng, W. Liang, M. Hada, M. Ehara, K. Toyota, R. Fukuda, 
 J. Hasegawa, M. Ishida, T. Nakajima, Y. Honda, O. Kitao, H. Nakai, 
 T. Vreven, K. Throssell, J. A. Montgomery, Jr., J. E. Peralta, 
 F. Ogliaro, M. J. Bearpark, J. J. Heyd, E. N. Brothers, K. N. Kudin, 
 V. N. Staroverov, T. A. Keith, R. Kobayashi, J. Normand, 
 K. Raghavachari, A. P. Rendell, J. C. Burant, S. S. Iyengar, 
 J. Tomasi, M. Cossi, J. M. Millam, M. Klene, C. Adamo, R. Cammi, 
 J. W. Ochterski, R. L. Martin, K. Morokuma, O. Farkas, 
 J. B. Foresman, and D. J. Fox, Gaussian, Inc., Wallingford CT, 2019.
 
 ******************************************
 Gaussian 16:  ES64L-G16RevC.01  3-Jul-2019
                20-Feb-2026 
 ******************************************
 %NProcShared=16
 Will use up to   16 processors via shared memory.
 %Mem=16GB
 %chk=prod_5l_16.chk
 ---------------------------------------------------------------
 #N OPT=(CalcFC) FREQ=NORAMAN Integral(Ultrafine) wB97XD def2SVP
 ---------------------------------------------------------------
 1/10=4,18=20,19=15,26=4,38=1/1,3;
 2/9=110,12=2,17=6,18=5,40=1/2;
 3/5=43,7=101,11=2,25=1,30=1,71=2,74=-58,75=-5,140=1/1,2,3;
 4//1;
 5/5=2,38=5/2;
 8/6=4,10=90,11=11/1;
 11/6=1,8=1,9=11,15=111,16=1/1,2,10;
 10/6=1,13=1/2;
 6/7=2,8=2,9=2,10=2,28=1/1;
 7/10=1,25=1/1,2,3,16;
 1/10=4,18=20,19=15,26=4/3(2);
 2/9=110/2;
 99//99;
 2/9=110/2;
 3/5=43,7=101,11=2,25=1,30=1,71=1,74=-58,75=-5/1,2,3;
 4/5=5,16=3,69=1/1;
 5/5=2,38=5/2;
 7//1,2,3,16;
 1/18=20,19=15,26=4/3(-5);
 2/9=110/2;
 6/7=2,8=2,9=2,10=2,19=2,28=1/1;
 99/9=1/99;
 ----------
 prod_5l_16
 ----------
 Symbolic Z-matrix:
 Charge =  0 Multiplicity = 1
 O                    -0.19883   2.49231   1.03672 
 S                     0.0223    1.3729    0.06118 
 N                     0.91322   0.18652   0.91082 
 C                     2.14161  -0.28254   0.44335 
 C                     2.94315  -1.04961   1.29708 
 C                     4.15191  -1.55146   0.87526 
 C                     4.59661  -1.30478  -0.40824 
 C                     3.82479  -0.55156  -1.26973 
 C                     2.61623  -0.04862  -0.85223 
 C                    -1.50061   0.42635  -0.03349 
 C                    -1.51791  -0.77549  -0.69891 
 C                    -2.68815  -1.5035   -0.77231 
 C                    -3.8525   -1.0302   -0.1836 
 C                    -5.11427  -1.81657  -0.24317 
 C                    -3.81372   0.18233   0.4892 
 C                    -2.64184   0.90774   0.56093 
 O                     0.43576   1.62867  -1.35795 
 H                     0.90774   0.53091   1.8492 
 H                     2.59106  -1.24616   2.29441 
 H                     4.75377  -2.13966   1.54831 
 H                     5.54468  -1.69794  -0.73623 
 H                     4.17217  -0.35396  -2.27055 
 H                     2.02368   0.54949  -1.51879 
 H                    -0.61276  -1.13701  -1.15809 
 H                    -2.70409  -2.44701  -1.28992 
 H                    -5.96422  -1.17285  -0.47166 
 H                    -5.06557  -2.58651  -1.0136 
 H                    -5.30945  -2.30757   0.71058 
 H                    -4.70918   0.55436   0.95643 
 H                    -2.60383   1.85199   1.07934 
 

 GradGradGradGradGradGradGradGradGradGradGradGradGradGradGradGradGradGrad
 Berny optimization.
 Initialization pass.
                           ----------------------------
                           !    Initial Parameters    !
                           ! (Angstroms and Degrees)  !
 --------------------------                            --------------------------
 ! Name  Definition              Value          Derivative Info.                !
 --------------------------------------------------------------------------------
 ! R1    R(1,2)                  1.5012         calculate D2E/DX2 analytically  !
 ! R2    R(2,3)                  1.7097         calculate D2E/DX2 analytically  !
 ! R3    R(2,10)                 1.7956         calculate D2E/DX2 analytically  !
 ! R4    R(2,17)                 1.5001         calculate D2E/DX2 analytically  !
 ! R5    R(3,4)                  1.3955         calculate D2E/DX2 analytically  !
 ! R6    R(3,18)                 0.9996         calculate D2E/DX2 analytically  !
 ! R7    R(4,5)                  1.3999         calculate D2E/DX2 analytically  !
 ! R8    R(4,9)                  1.3995         calculate D2E/DX2 analytically  !
 ! R9    R(5,6)                  1.3751         calculate D2E/DX2 analytically  !
 ! R10   R(5,19)                 1.0758         calculate D2E/DX2 analytically  !
 ! R11   R(6,7)                  1.3806         calculate D2E/DX2 analytically  !
 ! R12   R(6,20)                 1.0776         calculate D2E/DX2 analytically  !
 ! R13   R(7,8)                  1.3803         calculate D2E/DX2 analytically  !
 ! R14   R(7,21)                 1.0775         calculate D2E/DX2 analytically  !
 ! R15   R(8,9)                  1.374          calculate D2E/DX2 analytically  !
 ! R16   R(8,22)                 1.0777         calculate D2E/DX2 analytically  !
 ! R17   R(9,23)                 1.0738         calculate D2E/DX2 analytically  !
 ! R18   R(10,11)                1.3739         calculate D2E/DX2 analytically  !
 ! R19   R(10,16)                1.3739         calculate D2E/DX2 analytically  !
 ! R20   R(11,12)                1.3802         calculate D2E/DX2 analytically  !
 ! R21   R(11,24)                1.0774         calculate D2E/DX2 analytically  !
 ! R22   R(12,13)                1.3879         calculate D2E/DX2 analytically  !
 ! R23   R(12,25)                1.0763         calculate D2E/DX2 analytically  !
 ! R24   R(13,14)                1.4879         calculate D2E/DX2 analytically  !
 ! R25   R(13,15)                1.3872         calculate D2E/DX2 analytically  !
 ! R26   R(14,26)                1.0904         calculate D2E/DX2 analytically  !
 ! R27   R(14,27)                1.0903         calculate D2E/DX2 analytically  !
 ! R28   R(14,28)                1.0903         calculate D2E/DX2 analytically  !
 ! R29   R(15,16)                1.3801         calculate D2E/DX2 analytically  !
 ! R30   R(15,29)                1.0764         calculate D2E/DX2 analytically  !
 ! R31   R(16,30)                1.0779         calculate D2E/DX2 analytically  !
 ! A1    A(1,2,3)              105.7385         calculate D2E/DX2 analytically  !
 ! A2    A(1,2,10)             107.6024         calculate D2E/DX2 analytically  !
 ! A3    A(1,2,17)             121.8852         calculate D2E/DX2 analytically  !
 ! A4    A(3,2,10)              95.8754         calculate D2E/DX2 analytically  !
 ! A5    A(3,2,17)             116.4114         calculate D2E/DX2 analytically  !
 ! A6    A(10,2,17)            105.8886         calculate D2E/DX2 analytically  !
 ! A7    A(2,3,4)              121.6986         calculate D2E/DX2 analytically  !
 ! A8    A(2,3,18)             102.9786         calculate D2E/DX2 analytically  !
 ! A9    A(4,3,18)             115.7911         calculate D2E/DX2 analytically  !
 ! A10   A(3,4,5)              118.9394         calculate D2E/DX2 analytically  !
 ! A11   A(3,4,9)              123.5356         calculate D2E/DX2 analytically  !
 ! A12   A(5,4,9)              117.5153         calculate D2E/DX2 analytically  !
 ! A13   A(4,5,6)              121.0784         calculate D2E/DX2 analytically  !
 ! A14   A(4,5,19)             118.5616         calculate D2E/DX2 analytically  !
 ! A15   A(6,5,19)             120.3589         calculate D2E/DX2 analytically  !
 ! A16   A(5,6,7)              120.2071         calculate D2E/DX2 analytically  !
 ! A17   A(5,6,20)             119.9058         calculate D2E/DX2 analytically  !
 ! A18   A(7,6,20)             119.8871         calculate D2E/DX2 analytically  !
 ! A19   A(6,7,8)              119.8439         calculate D2E/DX2 analytically  !
 ! A20   A(6,7,21)             120.0809         calculate D2E/DX2 analytically  !
 ! A21   A(8,7,21)             120.0751         calculate D2E/DX2 analytically  !
 ! A22   A(7,8,9)              120.1285         calculate D2E/DX2 analytically  !
 ! A23   A(7,8,22)             119.9632         calculate D2E/DX2 analytically  !
 ! A24   A(9,8,22)             119.9079         calculate D2E/DX2 analytically  !
 ! A25   A(4,9,8)              121.2267         calculate D2E/DX2 analytically  !
 ! A26   A(4,9,23)             118.7246         calculate D2E/DX2 analytically  !
 ! A27   A(8,9,23)             120.0414         calculate D2E/DX2 analytically  !
 ! A28   A(2,10,11)            119.8255         calculate D2E/DX2 analytically  !
 ! A29   A(2,10,16)            119.802          calculate D2E/DX2 analytically  !
 ! A30   A(11,10,16)           120.3724         calculate D2E/DX2 analytically  !
 ! A31   A(10,11,12)           119.8592         calculate D2E/DX2 analytically  !
 ! A32   A(10,11,24)           119.299          calculate D2E/DX2 analytically  !
 ! A33   A(12,11,24)           120.8418         calculate D2E/DX2 analytically  !
 ! A34   A(11,12,13)           120.5895         calculate D2E/DX2 analytically  !
 ! A35   A(11,12,25)           120.036          calculate D2E/DX2 analytically  !
 ! A36   A(13,12,25)           119.3745         calculate D2E/DX2 analytically  !
 ! A37   A(12,13,14)           120.9436         calculate D2E/DX2 analytically  !
 ! A38   A(12,13,15)           118.7076         calculate D2E/DX2 analytically  !
 ! A39   A(14,13,15)           120.3354         calculate D2E/DX2 analytically  !
 ! A40   A(13,14,26)           110.9398         calculate D2E/DX2 analytically  !
 ! A41   A(13,14,27)           111.3228         calculate D2E/DX2 analytically  !
 ! A42   A(13,14,28)           110.7795         calculate D2E/DX2 analytically  !
 ! A43   A(26,14,27)           107.6761         calculate D2E/DX2 analytically  !
 ! A44   A(26,14,28)           108.0356         calculate D2E/DX2 analytically  !
 ! A45   A(27,14,28)           107.9447         calculate D2E/DX2 analytically  !
 ! A46   A(13,15,16)           120.5557         calculate D2E/DX2 analytically  !
 ! A47   A(13,15,29)           119.2999         calculate D2E/DX2 analytically  !
 ! A48   A(16,15,29)           120.1444         calculate D2E/DX2 analytically  !
 ! A49   A(10,16,15)           119.9133         calculate D2E/DX2 analytically  !
 ! A50   A(10,16,30)           119.0621         calculate D2E/DX2 analytically  !
 ! A51   A(15,16,30)           121.0245         calculate D2E/DX2 analytically  !
 ! D1    D(1,2,3,4)           -123.7898         calculate D2E/DX2 analytically  !
 ! D2    D(1,2,3,18)             8.0554         calculate D2E/DX2 analytically  !
 ! D3    D(10,2,3,4)           126.0377         calculate D2E/DX2 analytically  !
 ! D4    D(10,2,3,18)         -102.1171         calculate D2E/DX2 analytically  !
 ! D5    D(17,2,3,4)            15.0361         calculate D2E/DX2 analytically  !
 ! D6    D(17,2,3,18)          146.8812         calculate D2E/DX2 analytically  !
 ! D7    D(1,2,10,11)         -170.169          calculate D2E/DX2 analytically  !
 ! D8    D(1,2,10,16)            9.7809         calculate D2E/DX2 analytically  !
 ! D9    D(3,2,10,11)          -61.5833         calculate D2E/DX2 analytically  !
 ! D10   D(3,2,10,16)          118.3666         calculate D2E/DX2 analytically  !
 ! D11   D(17,2,10,11)          58.0347         calculate D2E/DX2 analytically  !
 ! D12   D(17,2,10,16)        -122.0154         calculate D2E/DX2 analytically  !
 ! D13   D(2,3,4,5)            167.6641         calculate D2E/DX2 analytically  !
 ! D14   D(2,3,4,9)            -13.4983         calculate D2E/DX2 analytically  !
 ! D15   D(18,3,4,5)            41.3934         calculate D2E/DX2 analytically  !
 ! D16   D(18,3,4,9)          -139.769          calculate D2E/DX2 analytically  !
 ! D17   D(3,4,5,6)            178.9834         calculate D2E/DX2 analytically  !
 ! D18   D(3,4,5,19)            -0.6299         calculate D2E/DX2 analytically  !
 ! D19   D(9,4,5,6)              0.0759         calculate D2E/DX2 analytically  !
 ! D20   D(9,4,5,19)          -179.5374         calculate D2E/DX2 analytically  !
 ! D21   D(3,4,9,8)           -178.9473         calculate D2E/DX2 analytically  !
 ! D22   D(3,4,9,23)             2.0321         calculate D2E/DX2 analytically  !
 ! D23   D(5,4,9,8)             -0.0944         calculate D2E/DX2 analytically  !
 ! D24   D(5,4,9,23)          -179.1149         calculate D2E/DX2 analytically  !
 ! D25   D(4,5,6,7)             -0.0405         calculate D2E/DX2 analytically  !
 ! D26   D(4,5,6,20)           179.998          calculate D2E/DX2 analytically  !
 ! D27   D(19,5,6,7)           179.566          calculate D2E/DX2 analytically  !
 ! D28   D(19,5,6,20)           -0.3955         calculate D2E/DX2 analytically  !
 ! D29   D(5,6,7,8)              0.0201         calculate D2E/DX2 analytically  !
 ! D30   D(5,6,7,21)           179.9208         calculate D2E/DX2 analytically  !
 ! D31   D(20,6,7,8)           179.9816         calculate D2E/DX2 analytically  !
 ! D32   D(20,6,7,21)           -0.1176         calculate D2E/DX2 analytically  !
 ! D33   D(6,7,8,9)             -0.0382         calculate D2E/DX2 analytically  !
 ! D34   D(6,7,8,22)           179.7149         calculate D2E/DX2 analytically  !
 ! D35   D(21,7,8,9)          -179.939          calculate D2E/DX2 analytically  !
 ! D36   D(21,7,8,22)           -0.1859         calculate D2E/DX2 analytically  !
 ! D37   D(7,8,9,4)              0.0771         calculate D2E/DX2 analytically  !
 ! D38   D(7,8,9,23)           179.0849         calculate D2E/DX2 analytically  !
 ! D39   D(22,8,9,4)          -179.6761         calculate D2E/DX2 analytically  !
 ! D40   D(22,8,9,23)           -0.6683         calculate D2E/DX2 analytically  !
 ! D41   D(2,10,11,12)        -179.9884         calculate D2E/DX2 analytically  !
 ! D42   D(2,10,11,24)          -0.0008         calculate D2E/DX2 analytically  !
 ! D43   D(16,10,11,12)          0.062          calculate D2E/DX2 analytically  !
 ! D44   D(16,10,11,24)       -179.9504         calculate D2E/DX2 analytically  !
 ! D45   D(2,10,16,15)         179.9783         calculate D2E/DX2 analytically  !
 ! D46   D(2,10,16,30)          -0.0827         calculate D2E/DX2 analytically  !
 ! D47   D(11,10,16,15)         -0.0721         calculate D2E/DX2 analytically  !
 ! D48   D(11,10,16,30)        179.8669         calculate D2E/DX2 analytically  !
 ! D49   D(10,11,12,13)          0.2544         calculate D2E/DX2 analytically  !
 ! D50   D(10,11,12,25)       -179.7857         calculate D2E/DX2 analytically  !
 ! D51   D(24,11,12,13)       -179.7331         calculate D2E/DX2 analytically  !
 ! D52   D(24,11,12,25)          0.2268         calculate D2E/DX2 analytically  !
 ! D53   D(11,12,13,14)       -179.2232         calculate D2E/DX2 analytically  !
 ! D54   D(11,12,13,15)         -0.5497         calculate D2E/DX2 analytically  !
 ! D55   D(25,12,13,14)          0.8166         calculate D2E/DX2 analytically  !
 ! D56   D(25,12,13,15)        179.4902         calculate D2E/DX2 analytically  !
 ! D57   D(12,13,14,26)       -136.6604         calculate D2E/DX2 analytically  !
 ! D58   D(12,13,14,27)        -16.7686         calculate D2E/DX2 analytically  !
 ! D59   D(12,13,14,28)        103.3551         calculate D2E/DX2 analytically  !
 ! D60   D(15,13,14,26)         44.6876         calculate D2E/DX2 analytically  !
 ! D61   D(15,13,14,27)        164.5794         calculate D2E/DX2 analytically  !
 ! D62   D(15,13,14,28)        -75.297          calculate D2E/DX2 analytically  !
 ! D63   D(12,13,15,16)          0.5393         calculate D2E/DX2 analytically  !
 ! D64   D(12,13,15,29)       -179.4858         calculate D2E/DX2 analytically  !
 ! D65   D(14,13,15,16)        179.2212         calculate D2E/DX2 analytically  !
 ! D66   D(14,13,15,29)         -0.8039         calculate D2E/DX2 analytically  !
 ! D67   D(13,15,16,10)         -0.2341         calculate D2E/DX2 analytically  !
 ! D68   D(13,15,16,30)        179.8281         calculate D2E/DX2 analytically  !
 ! D69   D(29,15,16,10)        179.7913         calculate D2E/DX2 analytically  !
 ! D70   D(29,15,16,30)         -0.1465         calculate D2E/DX2 analytically  !
 --------------------------------------------------------------------------------
 Trust Radius=3.00D-01 FncErr=1.00D-07 GrdErr=1.00D-06 EigMax=2.50D+02 EigMin=1.00D-04
 Number of steps in this run=    162 maximum allowed number of steps=    180.
 GradGradGradGradGradGradGradGradGradGradGradGradGradGradGradGradGradGrad

                          Input orientation:                          
 ---------------------------------------------------------------------
 Center     Atomic      Atomic             Coordinates (Angstroms)
 Number     Number       Type             X           Y           Z
 ---------------------------------------------------------------------
      1          8           0       -0.198830    2.492310    1.036720
      2         16           0        0.022300    1.372900    0.061180
      3          7           0        0.913220    0.186520    0.910820
      4          6           0        2.141610   -0.282540    0.443350
      5          6           0        2.943150   -1.049610    1.297080
      6          6           0        4.151910   -1.551460    0.875260
      7          6           0        4.596610   -1.304780   -0.408240
      8          6           0        3.824790   -0.551560   -1.269730
      9          6           0        2.616230   -0.048620   -0.852230
     10          6           0       -1.500610    0.426350   -0.033490
     11          6           0       -1.517910   -0.775490   -0.698910
     12          6           0       -2.688150   -1.503500   -0.772310
     13          6           0       -3.852500   -1.030200   -0.183600
     14          6           0       -5.114270   -1.816570   -0.243170
     15          6           0       -3.813720    0.182330    0.489200
     16          6           0       -2.641840    0.907740    0.560930
     17          8           0        0.435760    1.628670   -1.357950
     18          1           0        0.907740    0.530910    1.849200
     19          1           0        2.591060   -1.246160    2.294410
     20          1           0        4.753770   -2.139660    1.548310
     21          1           0        5.544680   -1.697940   -0.736230
     22          1           0        4.172170   -0.353960   -2.270550
     23          1           0        2.023680    0.549490   -1.518790
     24          1           0       -0.612760   -1.137010   -1.158090
     25          1           0       -2.704090   -2.447010   -1.289920
     26          1           0       -5.964220   -1.172850   -0.471660
     27          1           0       -5.065570   -2.586510   -1.013600
     28          1           0       -5.309450   -2.307570    0.710580
     29          1           0       -4.709180    0.554360    0.956430
     30          1           0       -2.603830    1.851990    1.079340
 ---------------------------------------------------------------------
                    Distance matrix (angstroms):
                    1          2          3          4          5
     1  O    0.000000
     2  S    1.501218   0.000000
     3  N    2.563040   1.709715   0.000000
     4  C    3.678252   2.716249   1.395524   0.000000
     5  C    4.741838   3.990911   2.407868   1.399899   0.000000
     6  C    5.941976   5.125260   3.675725   2.416197   1.375095
     7  C    6.285065   5.321150   4.187034   2.792348   2.388966
     8  C    5.547466   4.464728   3.711711   2.416632   2.759322
     9  C    4.236628   3.095724   2.462495   1.399468   2.393406
    10  C    2.666115   1.795599   2.603040   3.741078   4.867841
    11  C    3.928218   2.750557   3.070356   3.865209   4.894913
    12  C    5.043392   4.039173   4.319602   5.127880   6.016638
    13  C    5.219824   4.566058   5.038874   6.073007   6.955117
    14  C    6.660789   6.053900   6.455594   7.447976   8.239091
    15  C    4.324721   4.039271   4.745708   5.973622   6.915608
    16  C    2.950515   2.750230   3.644315   4.930719   5.963661
    17  O    2.623552   1.500099   2.730400   3.131666   4.528727
    18  H    2.394099   2.165633   0.999596   2.039743   2.635484
    19  H    4.831297   4.294801   2.604235   2.134711   1.075763
    20  H    6.800376   6.077536   4.535122   3.390164   2.128302
    21  H    7.327309   6.368878   5.264445   3.869839   3.364913
    22  H    6.176158   5.063638   4.586283   3.390211   3.836978
    23  H    3.904450   2.679521   2.695899   2.134520   3.366255
    24  H    4.261513   2.861742   2.891494   3.298679   4.322036
    25  H    6.007201   4.883686   4.986348   5.583007   6.366837
    26  H    6.996308   6.527111   7.145510   8.205753   9.082118
    27  H    7.326894   6.535939   6.865786   7.705480   8.475901
    28  H    7.018807   6.511155   6.706877   7.725960   8.368504
    29  H    4.909720   4.884504   5.634605   6.920764   7.826041
    30  H    2.489147   2.857050   3.895103   5.242128   6.263839
                    6          7          8          9         10
     6  C    0.000000
     7  C    1.380573   0.000000
     8  C    2.389098   1.380294   0.000000
     9  C    2.757003   2.386833   1.373999   0.000000
    10  C    6.057107   6.349279   5.553781   4.224252   0.000000
    11  C    5.935234   6.144265   5.377771   4.200352   1.373864
    12  C    7.035852   7.296558   6.600909   5.500864   2.383365
    13  C    8.090950   8.456555   7.768498   6.576856   2.770462
    14  C    9.337198   9.725758   9.086301   7.953441   4.258309
    15  C    8.161270   8.587814   7.872691   6.572445   2.383952
    16  C    7.231978   7.630838   6.877367   5.528015   1.373855
    17  O    5.376823   5.178779   4.030721   2.797053   2.636152
    18  H    3.976112   4.698250   4.405525   3.248464   3.058693
    19  H    2.131536   3.366004   3.835056   3.366909   4.995815
    20  H    1.077595   2.133029   3.365474   3.834595   6.942893
    21  H    2.134986   1.077492   2.134674   3.362965   7.392061
    22  H    3.366086   2.133637   1.077664   2.127396   6.147662
    23  H    3.830774   3.360299   2.125639   1.073850   3.826474
    24  H    5.196957   5.265734   4.477395   3.421187   2.120636
    25  H    7.245326   7.441926   6.798486   5.852320   3.359044
    26  H   10.212425  10.561844   9.841120   8.662150   4.761643
    27  H    9.465784   9.765604   9.123877   8.091785   4.769369
    28  H    9.492953  10.019350   9.509971   8.388184   4.747128
    29  H    9.108237   9.587307   8.888616   7.569443   3.360245
    30  H    7.567374   8.001527   7.254126   5.881523   2.118475
                   11         12         13         14         15
    11  C    0.000000
    12  C    1.380162   0.000000
    13  C    2.404315   1.387913   0.000000
    14  C    3.771651   2.502810   1.487948   0.000000
    15  C    2.756768   2.387538   1.387225   2.494674   0.000000
    16  C    2.384047   2.755676   2.403255   3.765814   1.380097
    17  O    3.167198   4.462317   5.180527   6.626858   4.854065
    18  H    3.752775   4.893012   5.406406   6.793620   4.925778
    19  H    5.105402   6.110733   6.906999   8.132453   6.805922
    20  H    6.800362   7.821263   8.848632  10.034540   8.939532
    21  H    7.122674   8.235205   9.437069  10.671007   9.623759
    22  H    5.918171   7.115487   8.319134   9.617040   8.466302
    23  H    3.869190   5.193587   6.229578   7.627305   6.184017
    24  H    1.077423   2.142518   3.384812   4.643541   3.834106
    25  H    2.133142   1.076283   2.133106   2.702241   3.363031
    26  H    4.469811   3.306411   2.136045   1.090412   2.717428
    27  H    3.995587   2.623596   2.140687   1.090294   3.389987
    28  H    4.325472   3.117163   2.133995   1.090328   2.913043
    29  H    3.833126   3.362721   2.131760   2.687833   1.076364
    30  H    3.353363   3.833410   3.385441   4.637852   2.144729
                   16         17         18         19         20
    16  C    0.000000
    17  O    3.697764   0.000000
    18  H    3.794886   3.422521   0.000000
    19  H    5.918402   5.123446   2.487922   0.000000
    20  H    8.059567   6.425875   4.691953   2.456079   0.000000
    21  H    8.688573   6.128126   5.757902   4.255908   2.457596
    22  H    7.485980   4.327172   5.330276   4.912717   4.255664
    23  H    5.120611   1.926652   3.548101   4.252855   4.908362
    24  H    3.354579   2.964511   3.760009   4.711277   6.093402
    25  H    3.831954   5.145333   5.636257   6.506003   7.985593
    26  H    4.053801   7.042284   7.450706   8.991626  10.949443
    27  H    4.534688   6.939089   7.320817   8.447689  10.157879
    28  H    4.180521   7.265001   6.928699   8.127310  10.099425
    29  H    2.134290   5.742900   5.687476   7.637118   9.856748
    30  H    1.077869   3.902481   3.830021   6.169425   8.383763
                   21         22         23         24         25
    21  H    0.000000
    22  H    2.458496   0.000000
    23  H    4.249798   2.448954   0.000000
    24  H    6.197312   4.974564   3.150429   0.000000
    25  H    8.301198   7.254340   5.602071   2.471263   0.000000
    26  H   11.523910  10.327293   8.238294   5.395424   3.594646
    27  H   10.651004   9.586451   7.768345   4.685023   2.381680
    28  H   10.967089  10.129405   8.179711   5.188548   3.287757
    29  H   10.633889   9.492988   7.173433   4.910457   4.251435
    30  H    9.071743   7.874145   5.464488   4.231380   4.909669
                   26         27         28         29         30
    26  H    0.000000
    27  H    1.760598   0.000000
    28  H    1.764654   1.763542   0.000000
    29  H    2.568622   3.724661   2.934520   0.000000
    30  H    4.779904   5.490068   4.975772   2.476176   0.000000
 Stoichiometry    C13H13NO2S
 Framework group  C1[X(C13H13NO2S)]
 Deg. of freedom    84
 Full point group                 C1      NOp   1
 Largest Abelian subgroup         C1      NOp   1
 Largest concise Abelian subgroup C1      NOp   1
                         Standard orientation:                         
 ---------------------------------------------------------------------
 Center     Atomic      Atomic             Coordinates (Angstroms)
 Number     Number       Type             X           Y           Z
 ---------------------------------------------------------------------
      1          8           0        0.191440    2.658282   -0.659946
      2         16           0       -0.035034    1.411444    0.144889
      3          7           0       -0.942949    0.368751   -0.860896
      4          6           0       -2.173146   -0.151903   -0.457135
      5          6           0       -2.987498   -0.779943   -1.406932
      6          6           0       -4.198671   -1.326607   -1.053231
      7          6           0       -4.633108   -1.264386    0.255729
      8          6           0       -3.848566   -0.650904    1.211420
      9          6           0       -2.637556   -0.103785    0.862152
     10          6           0        1.478829    0.447388    0.090218
     11          6           0        1.488068   -0.838257    0.574504
     12          6           0        2.651353   -1.579807    0.533045
     13          6           0        3.816824   -1.036819    0.010414
     14          6           0        5.070963   -1.834938   -0.053858
     15          6           0        3.786170    0.260667   -0.479467
     16          6           0        2.621229    0.999418   -0.436720
     17          8           0       -0.437322    1.462733    1.589130
     18          1           0       -0.939676    0.845346   -1.739553
     19          1           0       -2.643432   -0.833169   -2.424798
     20          1           0       -4.810467   -1.805648   -1.799847
     21          1           0       -5.583083   -1.692286    0.530387
     22          1           0       -4.187891   -0.597187    2.232857
     23          1           0       -2.035009    0.386085    1.603851
     24          1           0        0.582120   -1.254241    0.983229
     25          1           0        2.660935   -2.588438    0.908488
     26          1           0        5.928705   -1.238832    0.259087
     27          1           0        5.019181   -2.707864    0.597342
     28          1           0        5.255434   -2.184385   -1.070063
     29          1           0        4.682486    0.688303   -0.894563
     30          1           0        2.589581    2.009097   -0.812683
 ---------------------------------------------------------------------
 Rotational constants (GHZ):           0.8868689           0.2342434           0.2104204
 Standard basis: def2SVP (5D, 7F)
 There are   324 symmetry adapted cartesian basis functions of A   symmetry.
 There are   307 symmetry adapted basis functions of A   symmetry.
   307 basis functions,   528 primitive gaussians,   324 cartesian basis functions
    65 alpha electrons       65 beta electrons
       nuclear repulsion energy      1298.9350757164 Hartrees.
 NAtoms=   30 NActive=   30 NUniq=   30 SFac= 1.00D+00 NAtFMM=   60 NAOKFM=F Big=F
 Integral buffers will be    131072 words long.
 Raffenetti 2 integral format.
 Two-electron integral symmetry is turned on.
 Nuclear repulsion after empirical dispersion term =     1298.9166094768 Hartrees.
 One-electron integrals computed using PRISM.
   1 Symmetry operations used in ECPInt.
 ECPInt:  NShTT=   10296 NPrTT=   38220 LenC2=    9284 LenP2D=   24368.
 LDataN:  DoStor=T MaxTD1= 4 Len=   56
 NBasis=   307 RedAO= T EigKep=  2.43D-04  NBF=   307
 NBsUse=   307 1.00D-06 EigRej= -1.00D+00 NBFU=   307
 ExpMin= 1.22D-01 ExpMax= 9.18D+03 ExpMxC= 1.38D+03 IAcc=3 IRadAn=         5 AccDes= 0.00D+00
 Harris functional with IExCor= 4639 and IRadAn=       5 diagonalized for initial guess.
 HarFok:  IExCor= 4639 AccDes= 0.00D+00 IRadAn=         5 IDoV= 1 UseB2=F ITyADJ=14
 ICtDFT=  3500011 ScaDFX=  1.000000  1.000000  1.000000  1.000000
 FoFCou: FMM=F IPFlag=           0 FMFlag=      100000 FMFlg1=           0
         NFxFlg=           0 DoJE=T BraDBF=F KetDBF=T FulRan=T
         wScrn=  0.000000 ICntrl=       500 IOpCl=  0 I1Cent=   200000004 NGrid=           0
         NMat0=    1 NMatS0=      1 NMatT0=    0 NMatD0=    1 NMtDS0=    0 NMtDT0=    0
 Petite list used in FoFCou.
 Requested convergence on RMS density matrix=1.00D-08 within 128 cycles.
 Requested convergence on MAX density matrix=1.00D-06.
 Requested convergence on             energy=1.00D-06.
 No special actions if energy rises.
 Integral accuracy reduced to 1.0D-05 until final iterations.
 Initial convergence to 1.0D-05 achieved.  Increase integral accuracy.
 SCF Done:  E(RwB97XD) =  -1105.63945880     A.U. after   15 cycles
            NFock= 15  Conv=0.90D-08     -V/T= 2.0070
 DoSCS=F DFT=T ScalE2(SS,OS)=  1.000000  1.000000
 Range of M.O.s used for correlation:     1   307
 NBasis=   307 NAE=    65 NBE=    65 NFC=     0 NFV=     0
 NROrb=    307 NOA=    65 NOB=    65 NVA=   242 NVB=   242

 **** Warning!!: The largest alpha MO coefficient is  0.12942311D+02

   1 Symmetry operations used in ECPInt.
 ECPInt:  NShTT=   10296 NPrTT=   38220 LenC2=    9284 LenP2D=   24368.
 LDataN:  DoStor=T MaxTD1= 5 Len=  102
 Symmetrizing basis deriv contribution to polar:
 IMax=3 JMax=2 DiffMx= 0.00D+00
 G2DrvN: will do    31 centers at a time, making    1 passes.
 Calling FoFCou, ICntrl=  3107 FMM=F I1Cent=   0 AccDes= 0.00D+00.
 End of G2Drv F.D. properties file   721 does not exist.
 End of G2Drv F.D. properties file   722 does not exist.
 End of G2Drv F.D. properties file   788 does not exist.
          IDoAtm=111111111111111111111111111111
          Differentiating once with respect to nuclear coordinates.
 CalDSu exits because no D1Ps are significant.
          There are    93 degrees of freedom in the 1st order CPHF.  IDoFFX=6 NUNeed=     0.
     87 vectors produced by pass  0 Test12= 1.69D-14 1.08D-09 XBig12= 1.25D-01 1.19D-01.
 AX will form    87 AO Fock derivatives at one time.
     87 vectors produced by pass  1 Test12= 1.69D-14 1.08D-09 XBig12= 2.46D-02 2.97D-02.
     87 vectors produced by pass  2 Test12= 1.69D-14 1.08D-09 XBig12= 6.45D-04 5.23D-03.
     87 vectors produced by pass  3 Test12= 1.69D-14 1.08D-09 XBig12= 1.26D-05 5.81D-04.
     87 vectors produced by pass  4 Test12= 1.69D-14 1.08D-09 XBig12= 1.51D-07 4.08D-05.
     87 vectors produced by pass  5 Test12= 1.69D-14 1.08D-09 XBig12= 1.08D-09 2.88D-06.
     83 vectors produced by pass  6 Test12= 1.69D-14 1.08D-09 XBig12= 6.87D-12 2.72D-07.
     42 vectors produced by pass  7 Test12= 1.69D-14 1.08D-09 XBig12= 3.05D-14 1.85D-08.
      1 vectors produced by pass  8 Test12= 1.69D-14 1.08D-09 XBig12= 4.03D-16 1.71D-09.
 InvSVY:  IOpt=1 It=  1 EMax= 3.89D-16
 Solved reduced A of dimension   648 with    93 vectors.
 End of Minotr F.D. properties file   721 does not exist.
 End of Minotr F.D. properties file   722 does not exist.
 End of Minotr F.D. properties file   788 does not exist.

 **********************************************************************

            Population analysis using the SCF Density.

 **********************************************************************

 Orbital symmetries:
       Occupied  (A) (A) (A) (A) (A) (A) (A) (A) (A) (A) (A) (A)
                 (A) (A) (A) (A) (A) (A) (A) (A) (A) (A) (A) (A)
                 (A) (A) (A) (A) (A) (A) (A) (A) (A) (A) (A) (A)
                 (A) (A) (A) (A) (A) (A) (A) (A) (A) (A) (A) (A)
                 (A) (A) (A) (A) (A) (A) (A) (A) (A) (A) (A) (A)
                 (A) (A) (A) (A) (A)
       Virtual   (A) (A) (A) (A) (A) (A) (A) (A) (A) (A) (A) (A)
                 (A) (A) (A) (A) (A) (A) (A) (A) (A) (A) (A) (A)
                 (A) (A) (A) (A) (A) (A) (A) (A) (A) (A) (A) (A)
                 (A) (A) (A) (A) (A) (A) (A) (A) (A) (A) (A) (A)
                 (A) (A) (A) (A) (A) (A) (A) (A) (A) (A) (A) (A)
                 (A) (A) (A) (A) (A) (A) (A) (A) (A) (A) (A) (A)
                 (A) (A) (A) (A) (A) (A) (A) (A) (A) (A) (A) (A)
                 (A) (A) (A) (A) (A) (A) (A) (A) (A) (A) (A) (A)
                 (A) (A) (A) (A) (A) (A) (A) (A) (A) (A) (A) (A)
                 (A) (A) (A) (A) (A) (A) (A) (A) (A) (A) (A) (A)
                 (A) (A) (A) (A) (A) (A) (A) (A) (A) (A) (A) (A)
                 (A) (A) (A) (A) (A) (A) (A) (A) (A) (A) (A) (A)
                 (A) (A) (A) (A) (A) (A) (A) (A) (A) (A) (A) (A)
                 (A) (A) (A) (A) (A) (A) (A) (A) (A) (A) (A) (A)
                 (A) (A) (A) (A) (A) (A) (A) (A) (A) (A) (A) (A)
                 (A) (A) (A) (A) (A) (A) (A) (A) (A) (A) (A) (A)
                 (A) (A) (A) (A) (A) (A) (A) (A) (A) (A) (A) (A)
                 (A) (A) (A) (A) (A) (A) (A) (A) (A) (A) (A) (A)
                 (A) (A) (A) (A) (A) (A) (A) (A) (A) (A) (A) (A)
                 (A) (A) (A) (A) (A) (A) (A) (A) (A) (A) (A) (A)
                 (A) (A)
 The electronic state is 1-A.
 Alpha  occ. eigenvalues --  -89.25913 -19.26626 -19.25951 -14.49937 -10.35541
 Alpha  occ. eigenvalues --  -10.33317 -10.32495 -10.32284 -10.32041 -10.31454
 Alpha  occ. eigenvalues --  -10.31302 -10.30712 -10.30452 -10.30334 -10.29976
 Alpha  occ. eigenvalues --  -10.29485 -10.29171  -8.27699  -6.23130  -6.23038
 Alpha  occ. eigenvalues --   -6.22881  -1.20607  -1.09280  -1.05449  -0.98593
 Alpha  occ. eigenvalues --   -0.95341  -0.90220  -0.86340  -0.85100  -0.84701
 Alpha  occ. eigenvalues --   -0.81247  -0.75891  -0.72567  -0.71569  -0.70652
 Alpha  occ. eigenvalues --   -0.68116  -0.64241  -0.63979  -0.60531  -0.58936
 Alpha  occ. eigenvalues --   -0.58063  -0.56519  -0.54771  -0.53901  -0.53688
 Alpha  occ. eigenvalues --   -0.52936  -0.52787  -0.52775  -0.51330  -0.49609
 Alpha  occ. eigenvalues --   -0.48506  -0.47476  -0.46385  -0.46077  -0.44199
 Alpha  occ. eigenvalues --   -0.44099  -0.43652  -0.41206  -0.40732  -0.39684
 Alpha  occ. eigenvalues --   -0.38354  -0.35313  -0.34456  -0.33872  -0.30472
 Alpha virt. eigenvalues --    0.02917   0.04544   0.05843   0.06510   0.10113
 Alpha virt. eigenvalues --    0.12939   0.13770   0.14416   0.15361   0.15867
 Alpha virt. eigenvalues --    0.17049   0.17245   0.18741   0.19288   0.20087
 Alpha virt. eigenvalues --    0.20933   0.21400   0.23142   0.23728   0.23991
 Alpha virt. eigenvalues --    0.24613   0.25583   0.29400   0.29678   0.33474
 Alpha virt. eigenvalues --    0.34955   0.36228   0.37263   0.37516   0.37922
 Alpha virt. eigenvalues --    0.38377   0.39462   0.40101   0.41188   0.43720
 Alpha virt. eigenvalues --    0.46465   0.47608   0.47919   0.48180   0.49076
 Alpha virt. eigenvalues --    0.49360   0.51375   0.51834   0.52152   0.54301
 Alpha virt. eigenvalues --    0.54608   0.55270   0.55905   0.56498   0.57183
 Alpha virt. eigenvalues --    0.58169   0.58840   0.59968   0.60327   0.61846
 Alpha virt. eigenvalues --    0.62994   0.64003   0.64132   0.64678   0.66036
 Alpha virt. eigenvalues --    0.67040   0.68811   0.69638   0.70391   0.71571
 Alpha virt. eigenvalues --    0.72240   0.73010   0.73290   0.73677   0.74317
 Alpha virt. eigenvalues --    0.74799   0.75411   0.75933   0.76538   0.77155
 Alpha virt. eigenvalues --    0.77921   0.78073   0.78589   0.79119   0.80294
 Alpha virt. eigenvalues --    0.81274   0.82278   0.82597   0.82983   0.83476
 Alpha virt. eigenvalues --    0.84474   0.85903   0.87492   0.88285   0.90515
 Alpha virt. eigenvalues --    0.91213   0.92105   0.93356   0.95917   0.97222
 Alpha virt. eigenvalues --    0.99010   0.99332   1.00361   1.02926   1.07047
 Alpha virt. eigenvalues --    1.08470   1.10675   1.11595   1.12183   1.14055
 Alpha virt. eigenvalues --    1.14900   1.15361   1.19625   1.21124   1.22049
 Alpha virt. eigenvalues --    1.24182   1.26503   1.26794   1.28294   1.29476
 Alpha virt. eigenvalues --    1.30859   1.31430   1.31940   1.33067   1.33184
 Alpha virt. eigenvalues --    1.34254   1.34927   1.37074   1.37252   1.37923
 Alpha virt. eigenvalues --    1.38022   1.40749   1.42825   1.45094   1.53435
 Alpha virt. eigenvalues --    1.55392   1.56066   1.58518   1.60650   1.61476
 Alpha virt. eigenvalues --    1.62397   1.63477   1.70652   1.75115   1.76165
 Alpha virt. eigenvalues --    1.76583   1.78042   1.78396   1.80130   1.81114
 Alpha virt. eigenvalues --    1.82034   1.82612   1.83419   1.84201   1.84583
 Alpha virt. eigenvalues --    1.84823   1.86232   1.86363   1.87311   1.87915
 Alpha virt. eigenvalues --    1.88167   1.88625   1.90481   1.91743   1.93599
 Alpha virt. eigenvalues --    1.94413   1.95006   1.98128   1.99480   2.03144
 Alpha virt. eigenvalues --    2.04130   2.04297   2.05215   2.06264   2.08103
 Alpha virt. eigenvalues --    2.10356   2.10786   2.13425   2.14256   2.15991
 Alpha virt. eigenvalues --    2.19235   2.19831   2.21015   2.21182   2.23089
 Alpha virt. eigenvalues --    2.24554   2.25535   2.29507   2.30299   2.31568
 Alpha virt. eigenvalues --    2.32608   2.35177   2.36474   2.38480   2.38911
 Alpha virt. eigenvalues --    2.40630   2.42991   2.43523   2.44767   2.45449
 Alpha virt. eigenvalues --    2.46053   2.51670   2.54702   2.56581   2.57737
 Alpha virt. eigenvalues --    2.60109   2.61034   2.68444   2.69416   2.71573
 Alpha virt. eigenvalues --    2.71740   2.72562   2.72729   2.73500   2.74386
 Alpha virt. eigenvalues --    2.74847   2.75752   2.75758   2.78426   2.80651
 Alpha virt. eigenvalues --    2.83128   2.83363   2.84353   2.85111   2.86264
 Alpha virt. eigenvalues --    2.91337   2.94138   2.94776   2.97717   2.99694
 Alpha virt. eigenvalues --    3.00683   3.01103   3.02024   3.02732   3.04970
 Alpha virt. eigenvalues --    3.06861   3.08838   3.22827   3.23943   3.25653
 Alpha virt. eigenvalues --    3.31847   3.33671   3.34150   3.46088   3.46763
 Alpha virt. eigenvalues --    3.69846   3.78746
          Condensed to atoms (all electrons):
               1          2          3          4          5          6
     1  O    8.150927   0.432291  -0.049372   0.001347  -0.000128   0.000000
     2  S    0.432291  13.933658   0.204729  -0.035781  -0.000281  -0.000128
     3  N   -0.049372   0.204729   6.855478   0.268508  -0.071775   0.006702
     4  C    0.001347  -0.035781   0.268508   5.188096   0.260550   0.110894
     5  C   -0.000128  -0.000281  -0.071775   0.260550   5.140282   0.310239
     6  C    0.000000  -0.000128   0.006702   0.110894   0.310239   5.007462
     7  C   -0.000000   0.000003  -0.000456  -0.163780   0.085376   0.285447
     8  C   -0.000002  -0.000592   0.007140   0.109993  -0.145833   0.096382
     9  C    0.000001   0.001330  -0.083318   0.250317   0.077274  -0.146346
    10  C   -0.068377   0.235701  -0.099547   0.007720  -0.000839   0.000000
    11  C    0.004067  -0.042222   0.002067  -0.000251   0.000073   0.000002
    12  C    0.000017  -0.001956  -0.000129  -0.000015  -0.000006   0.000000
    13  C   -0.000036   0.001026  -0.000042   0.000006  -0.000000   0.000000
    14  C    0.000000   0.000008  -0.000000  -0.000000   0.000000   0.000000
    15  C    0.001485   0.002496  -0.000091  -0.000011   0.000001  -0.000000
    16  C    0.005133  -0.021859  -0.002602  -0.000220  -0.000004   0.000000
    17  O   -0.026647   0.387846  -0.034251  -0.003272   0.000058   0.000000
    18  H    0.014006  -0.007851   0.324701  -0.003000  -0.012771   0.000242
    19  H   -0.000028  -0.000115  -0.009602  -0.081389   0.451356  -0.059645
    20  H   -0.000000   0.000003  -0.000113   0.015518  -0.069255   0.453806
    21  H    0.000000   0.000000   0.000011  -0.001441   0.014449  -0.070502
    22  H    0.000000   0.000001  -0.000109   0.015371  -0.001964   0.014165
    23  H    0.000310  -0.009195  -0.012810  -0.070227   0.013552  -0.002303
    24  H    0.000145  -0.006435   0.000684   0.001108  -0.000075  -0.000006
    25  H    0.000000  -0.000156   0.000003  -0.000002   0.000000  -0.000000
    26  H    0.000000  -0.000000   0.000000  -0.000000  -0.000000  -0.000000
    27  H    0.000000  -0.000000   0.000000  -0.000000   0.000000  -0.000000
    28  H   -0.000000   0.000000  -0.000000   0.000000  -0.000000   0.000000
    29  H   -0.000008  -0.000160   0.000004  -0.000000   0.000000   0.000000
    30  H    0.017761  -0.012640   0.000673  -0.000055   0.000002   0.000000
               7          8          9         10         11         12
     1  O   -0.000000  -0.000002   0.000001  -0.068377   0.004067   0.000017
     2  S    0.000003  -0.000592   0.001330   0.235701  -0.042222  -0.001956
     3  N   -0.000456   0.007140  -0.083318  -0.099547   0.002067  -0.000129
     4  C   -0.163780   0.109993   0.250317   0.007720  -0.000251  -0.000015
     5  C    0.085376  -0.145833   0.077274  -0.000839   0.000073  -0.000006
     6  C    0.285447   0.096382  -0.146346   0.000000   0.000002   0.000000
     7  C    5.109324   0.269703   0.088720   0.000002   0.000000  -0.000000
     8  C    0.269703   5.050736   0.267731  -0.000129   0.000044   0.000002
     9  C    0.088720   0.267731   5.221107  -0.001774  -0.000316   0.000019
    10  C    0.000002  -0.000129  -0.001774   5.731529   0.172667   0.090468
    11  C    0.000000   0.000044  -0.000316   0.172667   5.050182   0.348528
    12  C   -0.000000   0.000002   0.000019   0.090468   0.348528   5.017500
    13  C   -0.000000  -0.000000  -0.000002  -0.184496   0.083893   0.305792
    14  C   -0.000000   0.000000  -0.000000   0.000586   0.011280  -0.076163
    15  C   -0.000000   0.000000   0.000002   0.087439  -0.121691   0.051753
    16  C   -0.000000   0.000000  -0.000055   0.277591   0.049888  -0.122664
    17  O   -0.000034   0.001825  -0.023376  -0.058006   0.007288   0.000584
    18  H   -0.000002  -0.000193   0.003888   0.005153  -0.001057  -0.000022
    19  H    0.014850  -0.002207   0.016938  -0.000010   0.000022   0.000000
    20  H   -0.069150   0.013789  -0.001887  -0.000000  -0.000000   0.000000
    21  H    0.451786  -0.067903   0.014718   0.000000   0.000000   0.000000
    22  H   -0.074658   0.458241  -0.067813  -0.000000  -0.000000  -0.000000
    23  H    0.013796  -0.053829   0.452922   0.000481   0.000170   0.000029
    24  H   -0.000023   0.000194   0.001061  -0.080724   0.447697  -0.046155
    25  H    0.000000  -0.000000   0.000001   0.016274  -0.066562   0.458964
    26  H   -0.000000  -0.000000  -0.000000   0.000025  -0.000525   0.005354
    27  H   -0.000000   0.000000  -0.000000  -0.000018   0.000889  -0.010627
    28  H   -0.000000  -0.000000   0.000000   0.000114  -0.000518  -0.000922
    29  H    0.000000   0.000000   0.000000   0.016829  -0.002019   0.014388
    30  H   -0.000000   0.000000   0.000002  -0.067952   0.013964  -0.001873
              13         14         15         16         17         18
     1  O   -0.000036   0.000000   0.001485   0.005133  -0.026647   0.014006
     2  S    0.001026   0.000008   0.002496  -0.021859   0.387846  -0.007851
     3  N   -0.000042  -0.000000  -0.000091  -0.002602  -0.034251   0.324701
     4  C    0.000006  -0.000000  -0.000011  -0.000220  -0.003272  -0.003000
     5  C   -0.000000   0.000000   0.000001  -0.000004   0.000058  -0.012771
     6  C    0.000000   0.000000  -0.000000   0.000000   0.000000   0.000242
     7  C   -0.000000  -0.000000  -0.000000  -0.000000  -0.000034  -0.000002
     8  C   -0.000000   0.000000   0.000000   0.000000   0.001825  -0.000193
     9  C   -0.000002  -0.000000   0.000002  -0.000055  -0.023376   0.003888
    10  C   -0.184496   0.000586   0.087439   0.277591  -0.058006   0.005153
    11  C    0.083893   0.011280  -0.121691   0.049888   0.007288  -0.001057
    12  C    0.305792  -0.076163   0.051753  -0.122664   0.000584  -0.000022
    13  C    5.258279   0.407088   0.277951   0.100974  -0.000025   0.000011
    14  C    0.407088   4.548928  -0.077756   0.008642  -0.000000  -0.000000
    15  C    0.277951  -0.077756   5.119204   0.266995  -0.000069  -0.000067
    16  C    0.100974   0.008642   0.266995   5.050038  -0.002287   0.000864
    17  O   -0.000025  -0.000000  -0.000069  -0.002287   8.162113   0.002119
    18  H    0.000011  -0.000000  -0.000067   0.000864   0.002119   0.503971
    19  H    0.000000   0.000000   0.000000  -0.000003   0.000007   0.003071
    20  H   -0.000000  -0.000000   0.000000   0.000000  -0.000000  -0.000024
    21  H    0.000000   0.000000   0.000000   0.000000   0.000000  -0.000001
    22  H    0.000000   0.000000  -0.000000   0.000000   0.000026   0.000011
    23  H    0.000001  -0.000000  -0.000002  -0.000084   0.035655  -0.000609
    24  H    0.014435  -0.000262  -0.001401   0.012339   0.003819   0.000070
    25  H   -0.073314  -0.015178   0.014718  -0.002034  -0.000003  -0.000001
    26  H   -0.018142   0.391458  -0.007050   0.000634  -0.000000  -0.000000
    27  H   -0.018145   0.392624   0.008471  -0.000518   0.000000  -0.000000
    28  H   -0.013245   0.389520  -0.004851   0.000041   0.000000   0.000000
    29  H   -0.079328  -0.012124   0.462126  -0.066655   0.000001  -0.000001
    30  H    0.013500  -0.000199  -0.053308   0.446652   0.000188  -0.000056
              19         20         21         22         23         24
     1  O   -0.000028  -0.000000   0.000000   0.000000   0.000310   0.000145
     2  S   -0.000115   0.000003   0.000000   0.000001  -0.009195  -0.006435
     3  N   -0.009602  -0.000113   0.000011  -0.000109  -0.012810   0.000684
     4  C   -0.081389   0.015518  -0.001441   0.015371  -0.070227   0.001108
     5  C    0.451356  -0.069255   0.014449  -0.001964   0.013552  -0.000075
     6  C   -0.059645   0.453806  -0.070502   0.014165  -0.002303  -0.000006
     7  C    0.014850  -0.069150   0.451786  -0.074658   0.013796  -0.000023
     8  C   -0.002207   0.013789  -0.067903   0.458241  -0.053829   0.000194
     9  C    0.016938  -0.001887   0.014718  -0.067813   0.452922   0.001061
    10  C   -0.000010  -0.000000   0.000000  -0.000000   0.000481  -0.080724
    11  C    0.000022  -0.000000   0.000000  -0.000000   0.000170   0.447697
    12  C    0.000000   0.000000   0.000000  -0.000000   0.000029  -0.046155
    13  C    0.000000  -0.000000   0.000000   0.000000   0.000001   0.014435
    14  C    0.000000  -0.000000   0.000000   0.000000  -0.000000  -0.000262
    15  C    0.000000   0.000000   0.000000  -0.000000  -0.000002  -0.001401
    16  C   -0.000003   0.000000   0.000000   0.000000  -0.000084   0.012339
    17  O    0.000007  -0.000000   0.000000   0.000026   0.035655   0.003819
    18  H    0.003071  -0.000024  -0.000001   0.000011  -0.000609   0.000070
    19  H    0.687155  -0.013128  -0.000232   0.000023  -0.000085  -0.000022
    20  H   -0.013128   0.668140  -0.012369  -0.000258   0.000012  -0.000000
    21  H   -0.000232  -0.012369   0.673195  -0.012014  -0.000190  -0.000000
    22  H    0.000023  -0.000258  -0.012014   0.665649  -0.012783   0.000003
    23  H   -0.000085   0.000012  -0.000190  -0.012783   0.605035  -0.000168
    24  H   -0.000022  -0.000000  -0.000000   0.000003  -0.000168   0.645185
    25  H    0.000000   0.000000  -0.000000  -0.000000  -0.000001  -0.012158
    26  H    0.000000   0.000000   0.000000   0.000000   0.000000   0.000007
    27  H   -0.000000   0.000000   0.000000   0.000000   0.000000   0.000002
    28  H   -0.000000  -0.000000  -0.000000  -0.000000  -0.000000   0.000007
    29  H    0.000000   0.000000  -0.000000  -0.000000  -0.000000   0.000024
    30  H   -0.000000   0.000000  -0.000000  -0.000000  -0.000009  -0.000206
              25         26         27         28         29         30
     1  O    0.000000   0.000000   0.000000  -0.000000  -0.000008   0.017761
     2  S   -0.000156  -0.000000  -0.000000   0.000000  -0.000160  -0.012640
     3  N    0.000003   0.000000   0.000000  -0.000000   0.000004   0.000673
     4  C   -0.000002  -0.000000  -0.000000   0.000000  -0.000000  -0.000055
     5  C    0.000000  -0.000000   0.000000  -0.000000   0.000000   0.000002
     6  C   -0.000000  -0.000000  -0.000000   0.000000   0.000000   0.000000
     7  C    0.000000  -0.000000  -0.000000  -0.000000   0.000000  -0.000000
     8  C   -0.000000  -0.000000   0.000000  -0.000000   0.000000   0.000000
     9  C    0.000001  -0.000000  -0.000000   0.000000   0.000000   0.000002
    10  C    0.016274   0.000025  -0.000018   0.000114   0.016829  -0.067952
    11  C   -0.066562  -0.000525   0.000889  -0.000518  -0.002019   0.013964
    12  C    0.458964   0.005354  -0.010627  -0.000922   0.014388  -0.001873
    13  C   -0.073314  -0.018142  -0.018145  -0.013245  -0.079328   0.013500
    14  C   -0.015178   0.391458   0.392624   0.389520  -0.012124  -0.000199
    15  C    0.014718  -0.007050   0.008471  -0.004851   0.462126  -0.053308
    16  C   -0.002034   0.000634  -0.000518   0.000041  -0.066655   0.446652
    17  O   -0.000003  -0.000000   0.000000   0.000000   0.000001   0.000188
    18  H   -0.000001  -0.000000  -0.000000   0.000000  -0.000001  -0.000056
    19  H    0.000000   0.000000  -0.000000  -0.000000   0.000000  -0.000000
    20  H    0.000000   0.000000   0.000000  -0.000000   0.000000   0.000000
    21  H   -0.000000   0.000000   0.000000  -0.000000  -0.000000  -0.000000
    22  H   -0.000000   0.000000   0.000000  -0.000000  -0.000000  -0.000000
    23  H   -0.000001   0.000000   0.000000  -0.000000  -0.000000  -0.000009
    24  H   -0.012158   0.000007   0.000002   0.000007   0.000024  -0.000206
    25  H    0.666014   0.000213   0.005340   0.000474  -0.000225   0.000020
    26  H    0.000213   0.613883  -0.021473  -0.017320   0.003334  -0.000002
    27  H    0.005340  -0.021473   0.624543  -0.017984   0.000125   0.000008
    28  H    0.000474  -0.017320  -0.017984   0.602194   0.001196  -0.000000
    29  H   -0.000225   0.003334   0.000125   0.001196   0.666617  -0.011170
    30  H    0.000020  -0.000002   0.000008  -0.000000  -0.011170   0.620924
 Mulliken charges:
               1
     1  O   -0.482892
     2  S    0.940281
     3  N   -0.306484
     4  C    0.130018
     5  C   -0.050284
     6  C   -0.006411
     7  C   -0.010905
     8  C   -0.005092
     9  C   -0.071145
    10  C   -0.080706
    11  C    0.042438
    12  C   -0.032867
    13  C   -0.076181
    14  C    0.031549
    15  C   -0.026344
    16  C   -0.000805
    17  O   -0.453560
    18  H    0.167546
    19  H   -0.006957
    20  H    0.014917
    21  H    0.010492
    22  H    0.016108
    23  H    0.040333
    24  H    0.020853
    25  H    0.007613
    26  H    0.049605
    27  H    0.036763
    28  H    0.061294
    29  H    0.007046
    30  H    0.033777
 Sum of Mulliken charges =  -0.00000
 Mulliken charges with hydrogens summed into heavy atoms:
               1
     1  O   -0.482892
     2  S    0.940281
     3  N   -0.138938
     4  C    0.130018
     5  C   -0.057240
     6  C    0.008506
     7  C   -0.000414
     8  C    0.011016
     9  C   -0.030812
    10  C   -0.080706
    11  C    0.063291
    12  C   -0.025254
    13  C   -0.076181
    14  C    0.179210
    15  C   -0.019298
    16  C    0.032973
    17  O   -0.453560
 APT charges:
               1
     1  O    0.015069
     2  S    0.129702
     3  N   -0.492424
     4  C   -0.679213
     5  C   -0.412219
     6  C   -0.482918
     7  C   -0.638479
     8  C   -0.461555
     9  C   -0.324407
    10  C   -0.490060
    11  C   -0.349014
    12  C   -0.598365
    13  C    0.187056
    14  C   -1.043840
    15  C   -0.713268
    16  C   -0.396076
    17  O   -0.179164
    18  H    0.521855
    19  H    0.297100
    20  H    0.900189
    21  H    1.052520
    22  H    0.651373
    23  H    0.058102
    24  H    0.090344
    25  H    0.498037
    26  H    0.718685
    27  H    0.418586
    28  H    0.462955
    29  H    0.823715
    30  H    0.435714
 Sum of APT charges =  -0.00000
 APT charges with hydrogens summed into heavy atoms:
               1
     1  O    0.015069
     2  S    0.129702
     3  N    0.029431
     4  C   -0.679213
     5  C   -0.115118
     6  C    0.417271
     7  C    0.414041
     8  C    0.189818
     9  C   -0.266305
    10  C   -0.490060
    11  C   -0.258671
    12  C   -0.100328
    13  C    0.187056
    14  C    0.556386
    15  C    0.110447
    16  C    0.039638
    17  O   -0.179164
 Electronic spatial extent (au):  <R**2>=           5279.9817
 Charge=             -0.0000 electrons
 Dipole moment (field-independent basis, Debye):
    X=              1.8415    Y=             -3.4856    Z=             -1.8702  Tot=              4.3633
 Quadrupole moment (field-independent basis, Debye-Ang):
   XX=            -87.6147   YY=           -112.4677   ZZ=           -104.2526
   XY=             -0.3542   XZ=             -0.0549   YZ=             -2.7447
 Traceless Quadrupole moment (field-independent basis, Debye-Ang):
   XX=             13.8303   YY=            -11.0227   ZZ=             -2.8076
   XY=             -0.3542   XZ=             -0.0549   YZ=             -2.7447
 Octapole moment (field-independent basis, Debye-Ang**2):
  XXX=             45.2693  YYY=            -11.6056  ZZZ=            -12.2728  XYY=             15.2985
  XXY=            -23.4272  XXZ=             -5.8058  XZZ=            -16.1451  YZZ=             -1.4425
  YYZ=              3.9947  XYZ=             -5.4736
 Hexadecapole moment (field-independent basis, Debye-Ang**3):
 XXXX=          -5067.8955 YYYY=          -1190.9258 ZZZZ=           -513.7648 XXXY=             62.0384
 XXXZ=            -72.8462 YYYX=            -41.7007 YYYZ=              7.9316 ZZZX=             -1.2261
 ZZZY=             -6.5701 XXYY=          -1052.0825 XXZZ=           -972.0187 YYZZ=           -281.2940
 XXYZ=              0.1099 YYXZ=             15.0840 ZZXY=             10.5174
 N-N= 1.298916609477D+03 E-N=-5.186567620114D+03  KE= 1.097900540687D+03
  Exact polarizability:       0.000       0.000       0.000       0.000       0.000       0.000
 Approx polarizability:     204.590      18.040     168.790     -19.286     -10.172     173.704
   1 Symmetry operations used in ECPInt.
 ECPInt:  NShTT=   10296 NPrTT=   38220 LenC2=    9284 LenP2D=   24368.
 LDataN:  DoStor=T MaxTD1= 6 Len=  172
 Calling FoFJK, ICntrl=    100127 FMM=F ISym2X=0 I1Cent= 0 IOpClX= 0 NMat=1 NMatS=1 NMatT=0.
 ***** Axes restored to original set *****
 -------------------------------------------------------------------
 Center     Atomic                   Forces (Hartrees/Bohr)
 Number     Number              X              Y              Z
 -------------------------------------------------------------------
      1        8           0.013496341   -0.036500200   -0.035333996
      2       16          -0.032930183    0.030692753   -0.006797233
      3        7          -0.001269293    0.019434055   -0.027062606
      4        6           0.025712693   -0.010719703   -0.005835492
      5        6          -0.013758582    0.006987647    0.001113326
      6        6           0.003163825   -0.000942442   -0.001133896
      7        6           0.007127245   -0.002769584   -0.003115413
      8        6           0.004971460   -0.005140586    0.003437923
      9        6          -0.012282662    0.003088607    0.002433443
     10        6           0.007448033    0.013136015    0.001182581
     11        6           0.005996758   -0.006582769   -0.007256301
     12        6           0.002082080    0.002710520    0.000587728
     13        6          -0.003786974   -0.002211655    0.001140709
     14        6          -0.002777145   -0.001867376   -0.003715138
     15        6           0.001772623   -0.001621622   -0.001852415
     16        6          -0.002732172    0.010210077    0.006113737
     17        8          -0.008695907   -0.005701161    0.054996830
     18        1           0.001983960    0.000896297    0.019620594
     19        1          -0.003365937   -0.002963694    0.012297793
     20        1           0.005094388   -0.005536499    0.007238814
     21        1           0.009442697   -0.004003451   -0.002894352
     22        1           0.002165343    0.002584825   -0.009651924
     23        1          -0.000892906    0.003043343   -0.007265881
     24        1           0.008453020   -0.005696845   -0.005484647
     25        1           0.000956581   -0.009916221   -0.006099820
     26        1          -0.005701386    0.003270650   -0.000154342
     27        1          -0.000160006   -0.004793442   -0.003463601
     28        1          -0.002197397   -0.003329325    0.006417744
     29        1          -0.009189965    0.005317915    0.005222265
     30        1          -0.000126533    0.008923871    0.005313565
 -------------------------------------------------------------------
 Cartesian Forces:  Max     0.054996830 RMS     0.011842027
 FormGI is forming the generalized inverse of G from B-inverse, IUseBI=4.

 GradGradGradGradGradGradGradGradGradGradGradGradGradGradGradGradGradGrad
 Berny optimization.
 Internal  Forces:  Max     0.055397893 RMS     0.010603578
 Search for a local minimum.
 Step number   1 out of a maximum of  162
 All quantities printed in internal units (Hartrees-Bohrs-Radians)
 Mixed Optimization -- RFO/linear search
 Second derivative matrix not updated -- analytic derivatives used.
 ITU=  0
     Eigenvalues ---   -0.01796  -0.00639  -0.00016   0.00094   0.01471
     Eigenvalues ---    0.01552   0.01668   0.01769   0.01845   0.01861
     Eigenvalues ---    0.01965   0.02095   0.02245   0.02438   0.02456
     Eigenvalues ---    0.02486   0.02695   0.02754   0.02933   0.02999
     Eigenvalues ---    0.03019   0.03068   0.03195   0.05655   0.05780
     Eigenvalues ---    0.09167   0.11299   0.11459   0.11688   0.11747
     Eigenvalues ---    0.11833   0.12091   0.12299   0.12439   0.12458
     Eigenvalues ---    0.12833   0.13038   0.13397   0.14622   0.14901
     Eigenvalues ---    0.15496   0.16787   0.17306   0.18462   0.18752
     Eigenvalues ---    0.19183   0.19517   0.19687   0.20306   0.20994
     Eigenvalues ---    0.21073   0.21617   0.24325   0.32090   0.32813
     Eigenvalues ---    0.34346   0.35978   0.36474   0.36611   0.36850
     Eigenvalues ---    0.39085   0.39406   0.39465   0.39500   0.39590
     Eigenvalues ---    0.39662   0.39742   0.39758   0.39858   0.40096
     Eigenvalues ---    0.45145   0.46175   0.46452   0.46885   0.47931
     Eigenvalues ---    0.48460   0.51810   0.51895   0.53021   0.53217
     Eigenvalues ---    0.53801   0.56975   0.57150   1.15609
 RFO step:  Lambda=-3.54754077D-02 EMin=-1.79640637D-02
 Linear search not attempted -- first point.
 Iteration  1 RMS(Cart)=  0.23330281 RMS(Int)=  0.03408014
 Iteration  2 RMS(Cart)=  0.14850772 RMS(Int)=  0.00566707
 Iteration  3 RMS(Cart)=  0.00966098 RMS(Int)=  0.00106432
 Iteration  4 RMS(Cart)=  0.00002786 RMS(Int)=  0.00106422
 Iteration  5 RMS(Cart)=  0.00000001 RMS(Int)=  0.00106422
 Variable       Old X    -DE/DX   Delta X   Delta X   Delta X     New X
                                 (Linear)    (Quad)   (Total)
    R1        2.83689  -0.05217   0.00000  -0.10393  -0.10393   2.73296
    R2        3.23089   0.00651   0.00000  -0.03117  -0.03117   3.19972
    R3        3.39319  -0.00390   0.00000  -0.03256  -0.03256   3.36063
    R4        2.83478  -0.05540   0.00000  -0.11619  -0.11619   2.71859
    R5        2.63716   0.03073   0.00000   0.02950   0.02950   2.66666
    R6        1.88896   0.01872   0.00000   0.03051   0.03051   1.91947
    R7        2.64543   0.00538   0.00000   0.00500   0.00505   2.65048
    R8        2.64461   0.00778   0.00000   0.00389   0.00396   2.64857
    R9        2.59855   0.01574   0.00000   0.02612   0.02611   2.62466
   R10        2.03290   0.01304   0.00000   0.02897   0.02897   2.06187
   R11        2.60890   0.01099   0.00000   0.02288   0.02282   2.63172
   R12        2.03636   0.01039   0.00000   0.02432   0.02432   2.06068
   R13        2.60838   0.01221   0.00000   0.02142   0.02136   2.62974
   R14        2.03616   0.01065   0.00000   0.02340   0.02340   2.05957
   R15        2.59648   0.02002   0.00000   0.03358   0.03359   2.63007
   R16        2.03649   0.01014   0.00000   0.02429   0.02429   2.06078
   R17        2.02928   0.00670   0.00000   0.02279   0.02279   2.05207
   R18        2.59623   0.01915   0.00000   0.03389   0.03389   2.63012
   R19        2.59621   0.01680   0.00000   0.02853   0.02854   2.62475
   R20        2.60813   0.01029   0.00000   0.01689   0.01689   2.62502
   R21        2.03603   0.01135   0.00000   0.02633   0.02633   2.06236
   R22        2.62278   0.01526   0.00000   0.02462   0.02461   2.64739
   R23        2.03388   0.01161   0.00000   0.02705   0.02705   2.06093
   R24        2.81181   0.01278   0.00000   0.02912   0.02912   2.84093
   R25        2.62148   0.01443   0.00000   0.02168   0.02168   2.64315
   R26        2.06058   0.00641   0.00000   0.01507   0.01507   2.07565
   R27        2.06036   0.00583   0.00000   0.01433   0.01433   2.07469
   R28        2.06042   0.00751   0.00000   0.01919   0.01919   2.07961
   R29        2.60801   0.01248   0.00000   0.02140   0.02140   2.62940
   R30        2.03403   0.01175   0.00000   0.02739   0.02739   2.06143
   R31        2.03688   0.01037   0.00000   0.02226   0.02226   2.05913
    A1        1.84548  -0.00660   0.00000  -0.03800  -0.04185   1.80364
    A2        1.87802  -0.00030   0.00000   0.01417   0.01512   1.89314
    A3        2.12730  -0.00138   0.00000  -0.01546  -0.02132   2.10598
    A4        1.67334   0.02389   0.00000   0.10274   0.10306   1.77640
    A5        2.03176  -0.00820   0.00000  -0.07556  -0.08083   1.95093
    A6        1.84810  -0.00018   0.00000   0.05332   0.05588   1.90398
    A7        2.12404   0.05477   0.00000   0.09303   0.09098   2.21502
    A8        1.79732  -0.01506   0.00000   0.00919   0.00688   1.80420
    A9        2.02094  -0.02005   0.00000  -0.01115  -0.01445   2.00648
   A10        2.07588  -0.02505   0.00000  -0.03342  -0.03392   2.04196
   A11        2.15610   0.02347   0.00000   0.00892   0.00830   2.16440
   A12        2.05103   0.00156   0.00000   0.02349   0.02309   2.07412
   A13        2.11322   0.00271   0.00000  -0.00609  -0.00604   2.10718
   A14        2.06929  -0.00024   0.00000   0.01168   0.01165   2.08094
   A15        2.10066  -0.00247   0.00000  -0.00555  -0.00559   2.09507
   A16        2.09801   0.00054   0.00000   0.00266   0.00260   2.10061
   A17        2.09275  -0.00133   0.00000  -0.00835  -0.00832   2.08443
   A18        2.09243   0.00079   0.00000   0.00569   0.00572   2.09814
   A19        2.09167  -0.00536   0.00000  -0.01395  -0.01407   2.07760
   A20        2.09581   0.00230   0.00000   0.00646   0.00650   2.10231
   A21        2.09571   0.00306   0.00000   0.00750   0.00754   2.10325
   A22        2.09664   0.00492   0.00000   0.01886   0.01883   2.11547
   A23        2.09375  -0.00110   0.00000  -0.00099  -0.00098   2.09277
   A24        2.09279  -0.00383   0.00000  -0.01786  -0.01785   2.07494
   A25        2.11581  -0.00438   0.00000  -0.02501  -0.02490   2.09091
   A26        2.07214   0.00648   0.00000   0.01959   0.01953   2.09166
   A27        2.09512  -0.00210   0.00000   0.00539   0.00534   2.10046
   A28        2.09135  -0.00147   0.00000  -0.00455  -0.00456   2.08679
   A29        2.09094  -0.00212   0.00000  -0.00843  -0.00844   2.08250
   A30        2.10089   0.00359   0.00000   0.01299   0.01300   2.11389
   A31        2.09194  -0.00376   0.00000  -0.01214  -0.01214   2.07980
   A32        2.08216   0.00419   0.00000   0.02030   0.02029   2.10246
   A33        2.10909  -0.00043   0.00000  -0.00815  -0.00816   2.10093
   A34        2.10468   0.00236   0.00000   0.00768   0.00767   2.11235
   A35        2.09502  -0.00244   0.00000  -0.01007  -0.01006   2.08496
   A36        2.08348   0.00008   0.00000   0.00238   0.00239   2.08587
   A37        2.11086   0.00025   0.00000  -0.00086  -0.00085   2.11001
   A38        2.07184  -0.00051   0.00000  -0.00387  -0.00389   2.06795
   A39        2.10025   0.00026   0.00000   0.00469   0.00470   2.10495
   A40        1.93626   0.00099   0.00000   0.00632   0.00630   1.94257
   A41        1.94295   0.00097   0.00000   0.00254   0.00251   1.94546
   A42        1.93347   0.00036   0.00000  -0.00260  -0.00260   1.93087
   A43        1.87930  -0.00018   0.00000   0.00617   0.00612   1.88543
   A44        1.88558  -0.00139   0.00000  -0.00735  -0.00734   1.87824
   A45        1.88399  -0.00087   0.00000  -0.00544  -0.00544   1.87855
   A46        2.10409   0.00236   0.00000   0.01015   0.01015   2.11424
   A47        2.08218   0.00019   0.00000   0.00271   0.00271   2.08489
   A48        2.09692  -0.00255   0.00000  -0.01286  -0.01286   2.08406
   A49        2.09288  -0.00403   0.00000  -0.01477  -0.01476   2.07812
   A50        2.07803   0.00259   0.00000   0.00952   0.00951   2.08754
   A51        2.11228   0.00144   0.00000   0.00525   0.00525   2.11753
    D1       -2.16054   0.00687   0.00000  -0.28373  -0.28738  -2.44792
    D2        0.14059   0.00929   0.00000  -0.21023  -0.21232  -0.07172
    D3        2.19977   0.00052   0.00000  -0.32539  -0.32730   1.87247
    D4       -1.78228   0.00294   0.00000  -0.25189  -0.25224  -2.03452
    D5        0.26243  -0.01046   0.00000  -0.42303  -0.41981  -0.15738
    D6        2.56356  -0.00804   0.00000  -0.34953  -0.34475   2.21881
    D7       -2.97001  -0.00207   0.00000  -0.00961  -0.00995  -2.97996
    D8        0.17071  -0.00145   0.00000  -0.00595  -0.00631   0.16439
    D9       -1.07483  -0.00038   0.00000  -0.00931  -0.01054  -1.08538
   D10        2.06589   0.00024   0.00000  -0.00565  -0.00691   2.05898
   D11        1.01290  -0.00004   0.00000  -0.03609  -0.03448   0.97841
   D12       -2.12957   0.00058   0.00000  -0.03243  -0.03085  -2.16042
   D13        2.92629   0.00414   0.00000  -0.16217  -0.16276   2.76353
   D14       -0.23559   0.00288   0.00000  -0.22263  -0.22249  -0.45808
   D15        0.72245  -0.00729   0.00000  -0.26210  -0.26223   0.46022
   D16       -2.43943  -0.00854   0.00000  -0.32255  -0.32196  -2.76139
   D17        3.12385  -0.00036   0.00000  -0.02692  -0.02635   3.09750
   D18       -0.01099  -0.00055   0.00000  -0.03451  -0.03408  -0.04507
   D19        0.00133   0.00054   0.00000   0.03002   0.03030   0.03163
   D20       -3.13352   0.00034   0.00000   0.02243   0.02257  -3.11095
   D21       -3.12322   0.00123   0.00000   0.03062   0.03153  -3.09169
   D22        0.03547   0.00089   0.00000   0.03228   0.03298   0.06845
   D23       -0.00165  -0.00030   0.00000  -0.02965  -0.02985  -0.03150
   D24       -3.12615  -0.00064   0.00000  -0.02799  -0.02840   3.12864
   D25       -0.00071  -0.00038   0.00000  -0.01118  -0.01085  -0.01155
   D26        3.14156  -0.00023   0.00000  -0.00844  -0.00833   3.13323
   D27        3.13402  -0.00018   0.00000  -0.00339  -0.00299   3.13103
   D28       -0.00690  -0.00003   0.00000  -0.00065  -0.00047  -0.00737
   D29        0.00035  -0.00002   0.00000  -0.00912  -0.00911  -0.00876
   D30        3.14021   0.00012   0.00000   0.00025   0.00015   3.14036
   D31        3.14127  -0.00018   0.00000  -0.01186  -0.01165   3.12962
   D32       -0.00205  -0.00003   0.00000  -0.00249  -0.00240  -0.00445
   D33       -0.00067   0.00025   0.00000   0.00949   0.00932   0.00865
   D34        3.13662   0.00021   0.00000   0.01400   0.01394  -3.13262
   D35       -3.14053   0.00011   0.00000   0.00013   0.00006  -3.14047
   D36       -0.00324   0.00007   0.00000   0.00463   0.00469   0.00144
   D37        0.00135  -0.00009   0.00000   0.01042   0.01039   0.01173
   D38        3.12562   0.00034   0.00000   0.00887   0.00906   3.13468
   D39       -3.13594  -0.00005   0.00000   0.00587   0.00576  -3.13018
   D40       -0.01166   0.00037   0.00000   0.00432   0.00444  -0.00723
   D41       -3.14139   0.00030   0.00000  -0.00062  -0.00059   3.14120
   D42       -0.00001   0.00035   0.00000   0.00089   0.00091   0.00089
   D43        0.00108  -0.00032   0.00000  -0.00429  -0.00428  -0.00320
   D44       -3.14073  -0.00027   0.00000  -0.00278  -0.00279   3.13967
   D45        3.14121  -0.00033   0.00000  -0.00301  -0.00300   3.13821
   D46       -0.00144  -0.00040   0.00000  -0.00240  -0.00239  -0.00384
   D47       -0.00126   0.00029   0.00000   0.00066   0.00069  -0.00057
   D48        3.13927   0.00022   0.00000   0.00127   0.00129   3.14056
   D49        0.00444   0.00003   0.00000   0.00230   0.00228   0.00672
   D50       -3.13785  -0.00000   0.00000  -0.00011  -0.00013  -3.13799
   D51       -3.13693  -0.00002   0.00000   0.00077   0.00078  -3.13615
   D52        0.00396  -0.00005   0.00000  -0.00164  -0.00164   0.00232
   D53       -3.12804   0.00010   0.00000   0.00511   0.00508  -3.12296
   D54       -0.00959   0.00029   0.00000   0.00327   0.00325  -0.00635
   D55        0.01425   0.00013   0.00000   0.00751   0.00750   0.02175
   D56        3.13269   0.00033   0.00000   0.00568   0.00567   3.13836
   D57       -2.38517  -0.00056   0.00000  -0.10891  -0.10893  -2.49411
   D58       -0.29267   0.00051   0.00000  -0.09519  -0.09518  -0.38785
   D59        1.80389   0.00030   0.00000  -0.10212  -0.10213   1.70176
   D60        0.77995  -0.00075   0.00000  -0.10693  -0.10695   0.67300
   D61        2.87245   0.00032   0.00000  -0.09322  -0.09320   2.77926
   D62       -1.31418   0.00011   0.00000  -0.10015  -0.10014  -1.41432
   D63        0.00941  -0.00032   0.00000  -0.00691  -0.00693   0.00248
   D64       -3.13262  -0.00033   0.00000  -0.00646  -0.00646  -3.13908
   D65        3.12800  -0.00013   0.00000  -0.00881  -0.00883   3.11917
   D66       -0.01403  -0.00014   0.00000  -0.00836  -0.00836  -0.02239
   D67       -0.00409   0.00003   0.00000   0.00499   0.00500   0.00091
   D68        3.13859   0.00011   0.00000   0.00436   0.00438  -3.14021
   D69        3.13795   0.00004   0.00000   0.00453   0.00452  -3.14071
   D70       -0.00256   0.00012   0.00000   0.00390   0.00390   0.00135
         Item               Value     Threshold  Converged?
 Maximum Force            0.055398     0.000450     NO 
 RMS     Force            0.010604     0.000300     NO 
 Maximum Displacement     1.644844     0.001800     NO 
 RMS     Displacement     0.368067     0.001200     NO 
 Predicted change in Energy=-2.711294D-02
 GradGradGradGradGradGradGradGradGradGradGradGradGradGradGradGradGradGrad

                          Input orientation:                          
 ---------------------------------------------------------------------
 Center     Atomic      Atomic             Coordinates (Angstroms)
 Number     Number       Type             X           Y           Z
 ---------------------------------------------------------------------
      1          8           0       -0.304713    2.472774    1.392525
      2         16           0       -0.031191    1.519707    0.339717
      3          7           0        1.020670    0.415685    1.075727
      4          6           0        2.152267   -0.194100    0.493527
      5          6           0        3.129197   -0.690411    1.369024
      6          6           0        4.249201   -1.351516    0.881573
      7          6           0        4.412313   -1.543964   -0.488034
      8          6           0        3.432747   -1.073946   -1.357563
      9          6           0        2.305427   -0.410024   -0.882810
     10          6           0       -1.483926    0.525134    0.088757
     11          6           0       -1.416148   -0.593511   -0.736559
     12          6           0       -2.555792   -1.364733   -0.926366
     13          6           0       -3.766831   -1.028122   -0.307734
     14          6           0       -4.992340   -1.878239   -0.496171
     15          6           0       -3.803817    0.101977    0.515588
     16          6           0       -2.669335    0.881527    0.718828
     17          8           0        0.464453    1.959271   -0.937285
     18          1           0        1.175626    0.816563    1.996061
     19          1           0        3.001776   -0.551173    2.443668
     20          1           0        4.999421   -1.721853    1.580954
     21          1           0        5.291116   -2.061500   -0.872339
     22          1           0        3.541981   -1.224374   -2.432119
     23          1           0        1.552751   -0.043400   -1.574376
     24          1           0       -0.479518   -0.862719   -1.227791
     25          1           0       -2.507268   -2.244262   -1.569388
     26          1           0       -5.899682   -1.262259   -0.557459
     27          1           0       -4.927285   -2.479419   -1.412513
     28          1           0       -5.117014   -2.571605    0.349266
     29          1           0       -4.737974    0.377274    1.007053
     30          1           0       -2.694361    1.761788    1.360578
 ---------------------------------------------------------------------
                    Distance matrix (angstroms):
                    1          2          3          4          5
     1  O    0.000000
     2  S    1.446221   0.000000
     3  N    2.467513   1.693218   0.000000
     4  C    3.735929   2.779979   1.411136   0.000000
     5  C    4.668836   3.991510   2.399032   1.402574   0.000000
     6  C    5.968618   5.182595   3.685662   2.426381   1.388913
     7  C    6.474645   5.460402   4.217679   2.809520   2.413215
     8  C    5.840446   4.648297   3.736042   2.416669   2.770112
     9  C    4.505608   3.267755   2.483599   1.401565   2.414120
    10  C    2.623673   1.778369   2.694270   3.728677   4.939386
    11  C    3.894919   2.746301   3.200147   3.795553   5.010292
    12  C    5.017078   4.036901   4.468707   5.054928   6.167870
    13  C    5.208974   4.567891   5.188324   6.031030   7.104981
    14  C    6.668759   6.071058   6.624896   7.406838   8.417200
    15  C    4.316645   4.034054   4.867016   5.963479   7.030143
    16  C    2.928716   2.740585   3.736379   4.945259   6.042906
    17  O    2.506655   1.438615   2.596970   3.087546   4.409165
    18  H    2.301889   2.166632   1.015741   2.057395   2.545699
    19  H    4.602394   4.232499   2.594390   2.156900   1.091092
    20  H    6.764927   6.111910   4.544753   3.409225   2.146282
    21  H    7.550004   6.528482   5.307364   3.899378   3.402571
    22  H    6.564592   5.289671   4.620799   3.398849   3.860596
    23  H    4.310894   2.935290   2.741699   2.158321   3.401089
    24  H    4.245248   2.886873   3.031679   3.215008   4.449265
    25  H    5.989542   4.893169   5.149593   5.492727   6.543582
    26  H    7.004041   6.556176   7.305756   8.190203   9.249811
    27  H    7.332164   6.560111   7.067612   7.679566   8.708869
    28  H    7.049283   6.527214   6.864606   7.649561   8.519318
    29  H    4.918691   4.889202   5.759182   6.932936   7.947538
    30  H    2.493379   2.862382   3.961640   5.297837   6.318796
                    6          7          8          9         10
     6  C    0.000000
     7  C    1.392647   0.000000
[...]
     2  S    0.000033   0.000168  -0.007891   0.309310  -0.018298   0.005428
     3  N    0.000876   0.006013  -0.020666  -0.063741   0.008671  -0.000436
     4  C   -0.110865   0.025063   0.365471   0.046375  -0.005712   0.002714
     5  C    0.034389  -0.097252   0.057175  -0.000621  -0.012765  -0.000723
     6  C    0.440727   0.021730  -0.089864  -0.001703   0.000793   0.001945
     7  C    4.962284   0.414015   0.048364  -0.000210  -0.000454  -0.000195
     8  C    0.414015   4.970184   0.386139  -0.000064  -0.001553   0.000410
     9  C    0.048364   0.386139   5.134641   0.003707   0.001303  -0.002401
    10  C   -0.000210  -0.000064   0.003707   5.295808   0.318971   0.050172
    11  C   -0.000454  -0.001553   0.001303   0.318971   5.138923   0.360026
    12  C   -0.000195   0.000410  -0.002401   0.050172   0.360026   5.083381
    13  C    0.000069  -0.000037   0.000208  -0.091877   0.027464   0.434880
    14  C   -0.000001  -0.000000   0.000005  -0.004825   0.016799  -0.074685
    15  C    0.000025  -0.000011   0.000063   0.020218  -0.055862  -0.007515
    16  C   -0.000077   0.000182   0.000318   0.362056  -0.063987  -0.051838
    17  O    0.000117  -0.001021  -0.003674  -0.079700   0.019204   0.002950
    18  H    0.000136  -0.000713   0.004591  -0.000759   0.000734  -0.000066
    19  H    0.010300  -0.003850   0.011965   0.000784  -0.000141  -0.000296
    20  H   -0.057008   0.010702  -0.003854   0.000009   0.000019   0.000026
    21  H    0.443832  -0.056219   0.011289   0.000003  -0.000016  -0.000001
    22  H   -0.058291   0.446233  -0.057684  -0.000017  -0.000010   0.000008
    23  H    0.010171  -0.048873   0.434380   0.001821  -0.000431  -0.000158
    24  H    0.000157   0.000249   0.000376  -0.045290   0.434579  -0.048733
    25  H   -0.000003   0.000053  -0.000103   0.010276  -0.045612   0.439070
    26  H   -0.000000   0.000000  -0.000000   0.000000  -0.000596   0.004846
    27  H    0.000000   0.000000  -0.000000  -0.000094   0.002477  -0.005633
    28  H   -0.000000  -0.000000   0.000000   0.000462  -0.001193  -0.003992
    29  H   -0.000000   0.000000  -0.000002   0.011788  -0.003949   0.012587
    30  H   -0.000003   0.000008  -0.000017  -0.045712   0.008575  -0.002698
              13         14         15         16         17         18
     1  O    0.000165   0.000001   0.002787   0.026996  -0.043876   0.004374
     2  S   -0.000743  -0.000002   0.005577  -0.038995   0.565705  -0.016637
     3  N    0.000478   0.000003  -0.001202  -0.000120  -0.050002   0.365720
     4  C   -0.001035  -0.000008   0.000021   0.001725  -0.007556  -0.051634
     5  C   -0.000470  -0.000008   0.000897  -0.002066   0.001073   0.008820
     6  C    0.000044  -0.000010  -0.000098  -0.000572   0.000103   0.001085
     7  C    0.000069  -0.000001   0.000025  -0.000077   0.000117   0.000136
     8  C   -0.000037  -0.000000  -0.000011   0.000182  -0.001021  -0.000713
     9  C    0.000208   0.000005   0.000063   0.000318  -0.003674   0.004591
    10  C   -0.091877  -0.004825   0.020218   0.362056  -0.079700  -0.000759
    11  C    0.027464   0.016799  -0.055862  -0.063987   0.019204   0.000734
    12  C    0.434880  -0.074685  -0.007515  -0.051838   0.002950  -0.000066
    13  C    4.965524   0.299233   0.410580   0.021852  -0.000140   0.000078
    14  C    0.299233   4.956277  -0.072804   0.011342  -0.000002   0.000001
    15  C    0.410580  -0.072804   5.075901   0.402859  -0.000184  -0.000169
    16  C    0.021852   0.011342   0.402859   5.110212   0.006495   0.000192
    17  O   -0.000140  -0.000002  -0.000184   0.006495   8.031184   0.002668
    18  H    0.000078   0.000001  -0.000169   0.000192   0.002668   0.429324
    19  H   -0.000003   0.000001   0.000346   0.000309  -0.000017   0.003594
    20  H   -0.000009  -0.000000  -0.000002  -0.000000  -0.000000  -0.000040
    21  H   -0.000001   0.000000   0.000000  -0.000001   0.000001  -0.000002
    22  H   -0.000000  -0.000000  -0.000000   0.000001  -0.000036   0.000013
    23  H    0.000016   0.000000   0.000007  -0.000174   0.008892  -0.000060
    24  H    0.008930  -0.000034  -0.002480   0.008246   0.008573  -0.000096
    25  H   -0.059927  -0.008640   0.013522  -0.003740  -0.000011  -0.000000
    26  H   -0.047951   0.422519  -0.005861   0.001494  -0.000000  -0.000000
    27  H   -0.058196   0.430033   0.008103  -0.000305   0.000000  -0.000000
    28  H   -0.021112   0.392931  -0.003665  -0.001008   0.000000  -0.000000
    29  H   -0.062180  -0.004808   0.447038  -0.053411   0.000004  -0.000010
    30  H    0.008621   0.000012  -0.048991   0.432882   0.000527   0.000357
              19         20         21         22         23         24
     1  O   -0.000175  -0.000000   0.000000  -0.000000  -0.000131   0.000390
     2  S   -0.000111  -0.000007   0.000003  -0.000003  -0.002957  -0.004315
     3  N    0.002843  -0.000357   0.000008  -0.000118  -0.001404   0.000464
     4  C   -0.080137   0.015185  -0.003948   0.013914  -0.044522  -0.000238
     5  C    0.439464  -0.054018   0.012165  -0.003476   0.011257  -0.001417
     6  C   -0.031253   0.438808  -0.056002   0.010531  -0.004419   0.000088
     7  C    0.010300  -0.057008   0.443832  -0.058291   0.010171   0.000157
     8  C   -0.003850   0.010702  -0.056219   0.446233  -0.048873   0.000249
     9  C    0.011965  -0.003854   0.011289  -0.057684   0.434380   0.000376
    10  C    0.000784   0.000009   0.000003  -0.000017   0.001821  -0.045290
    11  C   -0.000141   0.000019  -0.000016  -0.000010  -0.000431   0.434579
    12  C   -0.000296   0.000026  -0.000001   0.000008  -0.000158  -0.048733
    13  C   -0.000003  -0.000009  -0.000001  -0.000000   0.000016   0.008930
    14  C    0.000001  -0.000000   0.000000  -0.000000   0.000000  -0.000034
    15  C    0.000346  -0.000002   0.000000  -0.000000   0.000007  -0.002480
    16  C    0.000309  -0.000000  -0.000001   0.000001  -0.000174   0.008246
    17  O   -0.000017  -0.000000   0.000001  -0.000036   0.008892   0.008573
    18  H    0.003594  -0.000040  -0.000002   0.000013  -0.000060  -0.000096
    19  H    0.538931  -0.007505  -0.000100   0.000029   0.000011  -0.000045
    20  H   -0.007505   0.541813  -0.006646  -0.000126   0.000015   0.000004
    21  H   -0.000100  -0.006646   0.538795  -0.006844  -0.000016  -0.000004
    22  H    0.000029  -0.000126  -0.006844   0.534791  -0.006473  -0.000018
    23  H    0.000011   0.000015  -0.000016  -0.006473   0.475507  -0.000077
    24  H   -0.000045   0.000004  -0.000004  -0.000018  -0.000077   0.480966
    25  H   -0.000003   0.000000  -0.000000   0.000001  -0.000007  -0.005478
    26  H   -0.000000  -0.000000  -0.000000  -0.000000  -0.000000   0.000006
    27  H    0.000000  -0.000000  -0.000000   0.000000  -0.000000  -0.000025
    28  H    0.000001   0.000000   0.000000  -0.000000  -0.000000   0.000001
    29  H   -0.000003   0.000000   0.000000   0.000000  -0.000000   0.000024
    30  H   -0.000070   0.000000  -0.000000   0.000000  -0.000005  -0.000068
              25         26         27         28         29         30
     1  O    0.000003  -0.000000   0.000000  -0.000000  -0.000028   0.013464
     2  S   -0.000089  -0.000001  -0.000001   0.000001  -0.000116  -0.004431
     3  N    0.000023   0.000000   0.000000  -0.000001   0.000016   0.000279
     4  C    0.000053   0.000000  -0.000002   0.000003  -0.000007  -0.000182
     5  C   -0.000076  -0.000000  -0.000000   0.000010   0.000001  -0.000128
     6  C    0.000077   0.000000   0.000001  -0.000005   0.000003   0.000007
     7  C   -0.000003  -0.000000   0.000000  -0.000000  -0.000000  -0.000003
     8  C    0.000053   0.000000   0.000000  -0.000000   0.000000   0.000008
     9  C   -0.000103  -0.000000  -0.000000   0.000000  -0.000002  -0.000017
    10  C    0.010276   0.000000  -0.000094   0.000462   0.011788  -0.045712
    11  C   -0.045612  -0.000596   0.002477  -0.001193  -0.003949   0.008575
    12  C    0.439070   0.004846  -0.005633  -0.003992   0.012587  -0.002698
    13  C   -0.059927  -0.047951  -0.058196  -0.021112  -0.062180   0.008621
    14  C   -0.008640   0.422519   0.430033   0.392931  -0.004808   0.000012
    15  C    0.013522  -0.005861   0.008103  -0.003665   0.447038  -0.048991
    16  C   -0.003740   0.001494  -0.000305  -0.001008  -0.053411   0.432882
    17  O   -0.000011  -0.000000   0.000000   0.000000   0.000004   0.000527
    18  H   -0.000000  -0.000000  -0.000000  -0.000000  -0.000010   0.000357
    19  H   -0.000003  -0.000000   0.000000   0.000001  -0.000003  -0.000070
    20  H    0.000000  -0.000000  -0.000000   0.000000   0.000000   0.000000
    21  H   -0.000000  -0.000000  -0.000000   0.000000   0.000000  -0.000000
    22  H    0.000001  -0.000000   0.000000  -0.000000   0.000000   0.000000
    23  H   -0.000007  -0.000000  -0.000000  -0.000000  -0.000000  -0.000005
    24  H   -0.005478   0.000006  -0.000025   0.000001   0.000024  -0.000068
    25  H    0.534340   0.000083   0.001647   0.000203  -0.000052   0.000031
    26  H    0.000083   0.541130  -0.022187  -0.027412   0.000424  -0.000013
    27  H    0.001647  -0.022187   0.537446  -0.021308   0.000059   0.000004
    28  H    0.000203  -0.027412  -0.021308   0.549550   0.000273  -0.000004
    29  H   -0.000052   0.000424   0.000059   0.000273   0.532373  -0.005759
    30  H    0.000031  -0.000013   0.000004  -0.000004  -0.005759   0.477540
 Mulliken charges:
               1
     1  O   -0.474578
     2  S    0.857318
     3  N   -0.316867
     4  C    0.202555
     5  C   -0.219124
     6  C   -0.095727
     7  C   -0.138387
     8  C   -0.071555
     9  C   -0.273099
    10  C   -0.000942
    11  C   -0.136517
    12  C   -0.198478
    13  C    0.165540
    14  C   -0.363329
    15  C   -0.189100
    16  C   -0.170865
    17  O   -0.461277
    18  H    0.248499
    19  H    0.115129
    20  H    0.122992
    21  H    0.123701
    22  H    0.127576
    23  H    0.167631
    24  H    0.165266
    25  H    0.124361
    26  H    0.133518
    27  H    0.127982
    28  H    0.136267
    29  H    0.125736
    30  H    0.165772
 Sum of Mulliken charges =  -0.00000
 Mulliken charges with hydrogens summed into heavy atoms:
               1
     1  O   -0.474578
     2  S    0.857318
     3  N   -0.068367
     4  C    0.202555
     5  C   -0.103994
     6  C    0.027265
     7  C   -0.014686
     8  C    0.056021
     9  C   -0.105468
    10  C   -0.000942
    11  C    0.028748
    12  C   -0.074118
    13  C    0.165540
    14  C    0.034438
    15  C   -0.063363
    16  C   -0.005092
    17  O   -0.461277
 Electronic spatial extent (au):  <R**2>=           4362.7368
 Charge=              0.0000 electrons
 Dipole moment (field-independent basis, Debye):
    X=              1.7983    Y=             -5.4142    Z=             -1.8134  Tot=              5.9863
 Quadrupole moment (field-independent basis, Debye-Ang):
   XX=            -97.1403   YY=           -113.9958   ZZ=           -100.9865
   XY=             -0.3432   XZ=             -2.9197   YZ=             -4.3743
 Traceless Quadrupole moment (field-independent basis, Debye-Ang):
   XX=              6.9005   YY=             -9.9549   ZZ=              3.0544
   XY=             -0.3432   XZ=             -2.9197   YZ=             -4.3743
 Octapole moment (field-independent basis, Debye-Ang**2):
  XXX=             41.0916  YYY=            -42.2633  ZZZ=            -11.0093  XYY=             -2.9195
  XXY=            -16.0614  XXZ=              5.8827  XZZ=             -3.7069  YZZ=             -1.3008
  YYZ=             -1.3711  XYZ=              0.9446
 Hexadecapole moment (field-independent basis, Debye-Ang**3):
 XXXX=          -3329.7841 YYYY=          -1988.1380 ZZZZ=           -580.0780 XXXY=            -49.8855
 XXXZ=           -121.9369 YYYX=             17.0266 YYYZ=             21.5651 ZZZX=            -10.8196
 ZZZY=            -26.2784 XXYY=           -818.7184 XXZZ=           -644.6332 YYZZ=           -408.8209
 XXYZ=            -33.0015 YYXZ=             12.6173 ZZXY=              0.5280
 N-N= 1.331922383693D+03 E-N=-5.259210896566D+03  KE= 1.102023765329D+03
 Breneman (CHELPG) radii used.
 Read replacement radii for each type of atom:
 Atom Element Radius
    1     8    1.70
    2    16    2.00
    3     7    1.70
    4     6    1.50
    5     6    1.50
    6     6    1.50
    7     6    1.50
    8     6    1.50
    9     6    1.50
   10     6    1.50
   11     6    1.50
   12     6    1.50
   13     6    1.50
   14     6    1.50
   15     6    1.50
   16     6    1.50
   17     8    1.70
   18     1    1.45
   19     1    1.45
   20     1    1.45
   21     1    1.45
   22     1    1.45
   23     1    1.45
   24     1    1.45
   25     1    1.45
   26     1    1.45
   27     1    1.45
   28     1    1.45
   29     1    1.45
   30     1    1.45
 Generate Potential Derived Charges using the Breneman model, NDens= 1.
 Grid spacing= 0.300 Box extension= 2.800
 NStep X,Y,Z=   50     41     34   Total possible points=       69700
 Number of Points to Fit=   18733

 **********************************************************************

            Electrostatic Properties Using The SCF Density.

 **********************************************************************

       Atomic Center    1 is at   0.242785  3.115480 -0.613250
       Atomic Center    2 is at  -0.212717  1.959066  0.134338
       Atomic Center    3 is at  -1.389428  1.264911 -0.844394
       Atomic Center    4 is at  -1.947728  0.001088 -0.532762
       Atomic Center    5 is at  -1.772943 -1.077819 -1.405851
       Atomic Center    6 is at  -2.332763 -2.317436 -1.106061
       Atomic Center    7 is at  -3.044857 -2.496870  0.078580
       Atomic Center    8 is at  -3.207550 -1.422595  0.953625
       Atomic Center    9 is at  -2.676002 -0.172221  0.649573
       Atomic Center   10 is at   1.097917  0.756135  0.175513
       Atomic Center   11 is at   1.047605 -0.285984  1.098841
       Atomic Center   12 is at   2.043886 -1.258014  1.074338
       Atomic Center   13 is at   3.090760 -1.200558  0.147025
       Atomic Center   14 is at   4.153732 -2.265750  0.108352
       Atomic Center   15 is at   3.121544 -0.132419 -0.760605
       Atomic Center   16 is at   2.132160  0.844394 -0.755505
       Atomic Center   17 is at  -0.762753  2.062699  1.471549
       Atomic Center   18 is at  -1.148257  1.408758 -1.821110
       Atomic Center   19 is at  -1.191180 -0.943078 -2.321282
       Atomic Center   20 is at  -2.198541 -3.151110 -1.798584
       Atomic Center   21 is at  -3.475637 -3.471066  0.318131
       Atomic Center   22 is at  -3.770818 -1.553097  1.880175
       Atomic Center   23 is at  -2.809248  0.677247  1.319423
       Atomic Center   24 is at   0.240739 -0.326114  1.832212
       Atomic Center   25 is at   2.008974 -2.076079  1.797826
       Atomic Center   26 is at   5.150605 -1.829567 -0.050404
       Atomic Center   27 is at   4.176922 -2.847398  1.040008
       Atomic Center   28 is at   3.967299 -2.968487 -0.719582
       Atomic Center   29 is at   3.941115 -0.061037 -1.480269
       Atomic Center   30 is at   2.162674  1.684454 -1.451962
   18733 points will be used for fitting atomic charges
 Fitting point charges to electrostatic potential
 Charges from ESP fit, RMS=   0.00369 RRMS=   0.22484:
 ESP charges:
               1
     1  O   -0.480806
     2  S    0.911092
     3  N   -0.628787
     4  C    0.389301
     5  C   -0.258790
     6  C   -0.045542
     7  C   -0.155273
     8  C   -0.049900
     9  C   -0.212496
    10  C   -0.050860
    11  C   -0.036963
    12  C   -0.246791
    13  C    0.263842
    14  C   -0.300758
    15  C   -0.215543
    16  C   -0.074516
    17  O   -0.464566
    18  H    0.351696
    19  H    0.108671
    20  H    0.099994
    21  H    0.106250
    22  H    0.094667
    23  H    0.157712
    24  H    0.101439
    25  H    0.130463
    26  H    0.089220
    27  H    0.093375
    28  H    0.082289
    29  H    0.127841
    30  H    0.113739
 Sum of ESP charges =   0.00000
 ESP charges with hydrogens summed into heavy atoms:
               1
     1  O   -0.480806
     2  S    0.911092
     3  N   -0.277091
     4  C    0.389301
     5  C   -0.150119
     6  C    0.054452
     7  C   -0.049023
     8  C    0.044768
     9  C   -0.054784
    10  C   -0.050860
    11  C    0.064476
    12  C   -0.116327
    13  C    0.263842
    14  C   -0.035875
    15  C   -0.087702
    16  C    0.039223
    17  O   -0.464566
 Charge=   0.00000 Dipole=     1.6868    -5.2753    -1.7675 Tot=     5.8136
 -----------------------------------------------------------------

              Electrostatic Properties (Atomic Units)

 -----------------------------------------------------------------
    Center     Electric         -------- Electric Field --------
               Potential          X             Y             Z
 -----------------------------------------------------------------
    1 Atom    -22.373190
    2 Atom    -59.026710
    3 Atom    -18.345504
    4 Atom    -14.712568
    5 Atom    -14.755755
    6 Atom    -14.756661
    7 Atom    -14.761254
    8 Atom    -14.758962
    9 Atom    -14.763158
   10 Atom    -14.731994
   11 Atom    -14.745703
   12 Atom    -14.752945
   13 Atom    -14.736828
   14 Atom    -14.755005
   15 Atom    -14.752116
   16 Atom    -14.744817
   17 Atom    -22.373299
   18 Atom     -1.001888
   19 Atom     -1.087692
   20 Atom     -1.096018
   21 Atom     -1.099256
   22 Atom     -1.099698
   23 Atom     -1.101889
   24 Atom     -1.088649
   25 Atom     -1.091601
   26 Atom     -1.099602
   27 Atom     -1.101115
   28 Atom     -1.097490
   29 Atom     -1.090063
   30 Atom     -1.086146
 -----------------------------------------------------------------
 Unable to Open any file for archive entry.
 1\1\GINC-NOTCH429\SP\RwB97XD\def2TZVP\C13H13N1O2S1\U1366379\20-Feb-202
 6\0\\#N Guess=Read Geom=Check Integral(Ultrafine) Density Pop=(ChelpG,
 ReadRadii) NMR wB97XD def2TZVP\\prod_5l_16\\0,1\O,0,-0.4647648859,3.19
 35246762,0.7728354113\S,0,0.017889197,2.1158773635,-0.0694131373\N,0,1
 .3049186159,1.4585524045,0.7884299905\C,0,1.9274330831,0.2579946772,0.
 3674817373\C,0,1.8891258807,-0.8764070825,1.1851241309\C,0,2.512276773
 3,-2.0533879097,0.7772961459\C,0,3.1518309484,-2.1156369339,-0.4595319
 229\C,0,3.1782940691,-0.9866331803,-1.2786107404\C,0,2.5828201666,0.20
 29131547,-0.8677387405\C,0,-1.2051161088,0.8235762641,-0.0961464455\C,
 0,-1.145800182,-0.1606413028,-1.0804609849\C,0,-2.0675947195,-1.203377
 0315,-1.0485823595\C,0,-3.0495161629,-1.2733876183,-0.053551575\C,0,-4
 .0301872697,-2.4145770566,-0.0087087275\C,0,-3.0923002576,-0.260972669
 5,0.9153877022\C,0,-2.1763667497,0.7849701099,0.9035661286\O,0,0.46585
 62537,2.3317983614,-1.4310732075\H,0,1.1221701389,1.5313030244,1.78549
 54626\H,0,1.3638439454,-0.8345263561,2.1426952191\H,0,2.4847399089,-2.
 9308468772,1.426853577\H,0,3.6321535465,-3.0410707057,-0.7833773135\H,
 0,3.6841076279,-1.0250567212,-2.2458088078\H,0,2.6098437626,1.09480417
 ,-1.493717389\H,0,-0.3905719012,-0.1015376698,-1.8657084792\H,0,-2.025
 5010452,-1.9763985194,-1.8196524023\H,0,-5.0418070435,-2.0622795532,0.
 2397376826\H,0,-4.0767967192,-2.9452192191,-0.9694806634\H,0,-3.738443
 0608,-3.1453148474,0.7626398319\H,0,-3.8633025377,-0.289151554,1.68964
 27678\H,0,-2.2174852746,1.5816786022,1.6487171083\\Version=ES64L-G16Re
 vC.01\State=1-A\HF=-1106.6304397\RMSD=4.075e-09\Dipole=-0.5059226,-2.2
 118513,0.631361\Quadrupole=4.6908508,-7.5998052,2.9089544,1.4760245,-2
 .4843916,2.453499\PG=C01 [X(C13H13N1O2S1)]\\@
 The archive entry for this job was punched.


 THE NUMBERS ARE MEANINGLESS, BUT THE TRENDS ARE IMPORTANT.
     -- LARRY BURGGRAF
 Job cpu time:       0 days  1 hours 35 minutes  6.4 seconds.
 Elapsed time:       0 days  0 hours  6 minutes 16.0 seconds.
 File lengths (MBytes):  RWF=    226 Int=      0 D2E=      0 Chk=     36 Scr=      2
 Normal termination of Gaussian 16 at Fri Feb 20 10:09:55 2026.
