 Entering Gaussian System, Link 0=g16
 Input=prod_3d_1.com
 Output=prod_3d_1.log
 Initial command:
 /uufs/chpc.utah.edu/sys/installdir/gaussian16/C01/AVX/g16/l1.exe "/scratch/general/vast/u1366379/GAUSSSCRDIR/11028602-notchpeak.peaks/Gau-977110.inp" -scrdir="/scratch/general/vast/u1366379/GAUSSSCRDIR/11028602-notchpeak.peaks/"
 Entering Link 1 = /uufs/chpc.utah.edu/sys/installdir/gaussian16/C01/AVX/g16/l1.exe PID=    977112.
  
 Copyright (c) 1988-2019, Gaussian, Inc.  All Rights Reserved.
  
 This is part of the Gaussian(R) 16 program.  It is based on
 the Gaussian(R) 09 system (copyright 2009, Gaussian, Inc.),
 the Gaussian(R) 03 system (copyright 2003, Gaussian, Inc.),
 the Gaussian(R) 98 system (copyright 1998, Gaussian, Inc.),
 the Gaussian(R) 94 system (copyright 1995, Gaussian, Inc.),
 the Gaussian 92(TM) system (copyright 1992, Gaussian, Inc.),
 the Gaussian 90(TM) system (copyright 1990, Gaussian, Inc.),
 the Gaussian 88(TM) system (copyright 1988, Gaussian, Inc.),
 the Gaussian 86(TM) system (copyright 1986, Carnegie Mellon
 University), and the Gaussian 82(TM) system (copyright 1983,
 Carnegie Mellon University). Gaussian is a federally registered
 trademark of Gaussian, Inc.
  
 This software contains proprietary and confidential information,
 including trade secrets, belonging to Gaussian, Inc.
  
 This software is provided under written license and may be
 used, copied, transmitted, or stored only in accord with that
 written license.
  
 The following legend is applicable only to US Government
 contracts under FAR:
  
                    RESTRICTED RIGHTS LEGEND
  
 Use, reproduction and disclosure by the US Government is
 subject to restrictions as set forth in subparagraphs (a)
 and (c) of the Commercial Computer Software - Restricted
 Rights clause in FAR 52.227-19.
  
 Gaussian, Inc.
 340 Quinnipiac St., Bldg. 40, Wallingford CT 06492
  
  
 ---------------------------------------------------------------
 Warning -- This program may not be used in any manner that
 competes with the business of Gaussian, Inc. or will provide
 assistance to any competitor of Gaussian, Inc.  The licensee
 of this program is prohibited from giving any competitor of
 Gaussian, Inc. access to this program.  By using this program,
 the user acknowledges that Gaussian, Inc. is engaged in the
 business of creating and licensing software in the field of
 computational chemistry and represents and warrants to the
 licensee that it is not a competitor of Gaussian, Inc. and that
 it will not use this program in any manner prohibited above.
 ---------------------------------------------------------------
  

 Cite this work as:
 Gaussian 16, Revision C.01,
 M. J. Frisch, G. W. Trucks, H. B. Schlegel, G. E. Scuseria, 
 M. A. Robb, J. R. Cheeseman, G. Scalmani, V. Barone, 
 G. A. Petersson, H. Nakatsuji, X. Li, M. Caricato, A. V. Marenich, 
 J. Bloino, B. G. Janesko, R. Gomperts, B. Mennucci, H. P. Hratchian, 
 J. V. Ortiz, A. F. Izmaylov, J. L. Sonnenberg, D. Williams-Young, 
 F. Ding, F. Lipparini, F. Egidi, J. Goings, B. Peng, A. Petrone, 
 T. Henderson, D. Ranasinghe, V. G. Zakrzewski, J. Gao, N. Rega, 
 G. Zheng, W. Liang, M. Hada, M. Ehara, K. Toyota, R. Fukuda, 
 J. Hasegawa, M. Ishida, T. Nakajima, Y. Honda, O. Kitao, H. Nakai, 
 T. Vreven, K. Throssell, J. A. Montgomery, Jr., J. E. Peralta, 
 F. Ogliaro, M. J. Bearpark, J. J. Heyd, E. N. Brothers, K. N. Kudin, 
 V. N. Staroverov, T. A. Keith, R. Kobayashi, J. Normand, 
 K. Raghavachari, A. P. Rendell, J. C. Burant, S. S. Iyengar, 
 J. Tomasi, M. Cossi, J. M. Millam, M. Klene, C. Adamo, R. Cammi, 
 J. W. Ochterski, R. L. Martin, K. Morokuma, O. Farkas, 
 J. B. Foresman, and D. J. Fox, Gaussian, Inc., Wallingford CT, 2019.
 
 ******************************************
 Gaussian 16:  ES64L-G16RevC.01  3-Jul-2019
                17-Feb-2026 
 ******************************************
 %NProcShared=8
 Will use up to    8 processors via shared memory.
 %Mem=8GB
 %chk=prod_3d_1.chk
 ------------------------------------------------------
 #N OPT FREQ=NORAMAN Integral(Ultrafine) wB97XD def2SVP
 ------------------------------------------------------
 1/18=20,19=15,26=4,38=1/1,3;
 2/9=110,12=2,17=6,18=5,40=1/2;
 3/5=43,7=101,11=2,25=1,30=1,71=1,74=-58,75=-5/1,2,3;
 4//1;
 5/5=2,38=5/2;
 6/7=2,8=2,9=2,10=2,28=1/1;
 7//1,2,3,16;
 1/18=20,19=15,26=4/3(2);
 2/9=110/2;
 99//99;
 2/9=110/2;
 3/5=43,7=101,11=2,25=1,30=1,71=1,74=-58,75=-5/1,2,3;
 4/5=5,16=3,69=1/1;
 5/5=2,38=5/2;
 7//1,2,3,16;
 1/18=20,19=15,26=4/3(-5);
 2/9=110/2;
 6/7=2,8=2,9=2,10=2,19=2,28=1/1;
 99/9=1/99;
 ---------
 prod_3d_1
 ---------
 Symbolic Z-matrix:
 Charge =  0 Multiplicity = 1
 F                     2.17803   2.12821   0.38654 
 C                     2.25131   0.79372   0.15853 
 C                     3.46132   0.13331   0.17542 
 C                     3.52443  -1.21828  -0.09827 
 C                     2.37218  -1.91724  -0.39937 
 C                     1.15671  -1.27115  -0.41477 
 C                     1.07379   0.08636  -0.1194 
 N                    -0.12868   0.80922  -0.13966 
 C                    -1.46063   0.34315  -0.05106 
 C                    -2.50039   1.12489  -0.55237 
 C                    -3.80621   0.70025  -0.46102 
 C                    -4.10199  -0.50666   0.14152 
 C                    -3.08553  -1.28477   0.65978 
 C                    -1.77823  -0.86442   0.5685 
 H                     4.35108   0.69412   0.40014 
 H                     4.47502  -1.72557  -0.08548 
 H                     2.42562  -2.96864  -0.62912 
 H                     0.26565  -1.80393  -0.69381 
 H                    -0.00643   1.8182   -0.15063 
 H                    -2.2647    2.06359  -1.0225 
 H                    -4.59956   1.3111   -0.85948 
 H                    -5.12505  -0.83732   0.21374 
 H                    -3.31745  -2.21935   1.14365 
 H                    -0.99242  -1.44619   1.01579 
 

 GradGradGradGradGradGradGradGradGradGradGradGradGradGradGradGradGradGrad
 Berny optimization.
 Initialization pass.
                           ----------------------------
                           !    Initial Parameters    !
                           ! (Angstroms and Degrees)  !
 --------------------------                            --------------------------
 ! Name  Definition              Value          Derivative Info.                !
 --------------------------------------------------------------------------------
 ! R1    R(1,2)                  1.3558         estimate D2E/DX2                !
 ! R2    R(2,3)                  1.3786         estimate D2E/DX2                !
 ! R3    R(2,7)                  1.4015         estimate D2E/DX2                !
 ! R4    R(3,4)                  1.3805         estimate D2E/DX2                !
 ! R5    R(3,15)                 1.0755         estimate D2E/DX2                !
 ! R6    R(4,5)                  1.3809         estimate D2E/DX2                !
 ! R7    R(4,16)                 1.0776         estimate D2E/DX2                !
 ! R8    R(5,6)                  1.3766         estimate D2E/DX2                !
 ! R9    R(5,17)                 1.0775         estimate D2E/DX2                !
 ! R10   R(6,7)                  1.3917         estimate D2E/DX2                !
 ! R11   R(6,18)                 1.075          estimate D2E/DX2                !
 ! R12   R(7,8)                  1.4032         estimate D2E/DX2                !
 ! R13   R(8,9)                  1.4139         estimate D2E/DX2                !
 ! R14   R(8,19)                 1.0164         estimate D2E/DX2                !
 ! R15   R(9,10)                 1.3941         estimate D2E/DX2                !
 ! R16   R(9,14)                 1.3939         estimate D2E/DX2                !
 ! R17   R(10,11)                1.3762         estimate D2E/DX2                !
 ! R18   R(10,20)                1.076          estimate D2E/DX2                !
 ! R19   R(11,12)                1.381          estimate D2E/DX2                !
 ! R20   R(11,21)                1.0776         estimate D2E/DX2                !
 ! R21   R(12,13)                1.381          estimate D2E/DX2                !
 ! R22   R(12,22)                1.0776         estimate D2E/DX2                !
 ! R23   R(13,14)                1.3762         estimate D2E/DX2                !
 ! R24   R(13,23)                1.0777         estimate D2E/DX2                !
 ! R25   R(14,24)                1.0752         estimate D2E/DX2                !
 ! A1    A(1,2,3)              121.1237         estimate D2E/DX2                !
 ! A2    A(1,2,7)              118.9944         estimate D2E/DX2                !
 ! A3    A(3,2,7)              119.8738         estimate D2E/DX2                !
 ! A4    A(2,3,4)              120.4455         estimate D2E/DX2                !
 ! A5    A(2,3,15)             118.6134         estimate D2E/DX2                !
 ! A6    A(4,3,15)             120.9402         estimate D2E/DX2                !
 ! A7    A(3,4,5)              120.0435         estimate D2E/DX2                !
 ! A8    A(3,4,16)             119.9277         estimate D2E/DX2                !
 ! A9    A(5,4,16)             120.0264         estimate D2E/DX2                !
 ! A10   A(4,5,6)              120.1078         estimate D2E/DX2                !
 ! A11   A(4,5,17)             119.9335         estimate D2E/DX2                !
 ! A12   A(6,5,17)             119.9575         estimate D2E/DX2                !
 ! A13   A(5,6,7)              120.5323         estimate D2E/DX2                !
 ! A14   A(5,6,18)             120.1423         estimate D2E/DX2                !
 ! A15   A(7,6,18)             119.2818         estimate D2E/DX2                !
 ! A16   A(2,7,6)              118.969          estimate D2E/DX2                !
 ! A17   A(2,7,8)              117.5725         estimate D2E/DX2                !
 ! A18   A(6,7,8)              123.4003         estimate D2E/DX2                !
 ! A19   A(7,8,9)              129.5366         estimate D2E/DX2                !
 ! A20   A(7,8,19)             114.1092         estimate D2E/DX2                !
 ! A21   A(9,8,19)             116.1803         estimate D2E/DX2                !
 ! A22   A(8,9,10)             119.6841         estimate D2E/DX2                !
 ! A23   A(8,9,14)             121.8746         estimate D2E/DX2                !
 ! A24   A(10,9,14)            118.4039         estimate D2E/DX2                !
 ! A25   A(9,10,11)            120.7174         estimate D2E/DX2                !
 ! A26   A(9,10,20)            118.8783         estimate D2E/DX2                !
 ! A27   A(11,10,20)           120.4013         estimate D2E/DX2                !
 ! A28   A(10,11,12)           120.1231         estimate D2E/DX2                !
 ! A29   A(10,11,21)           119.9409         estimate D2E/DX2                !
 ! A30   A(12,11,21)           119.9359         estimate D2E/DX2                !
 ! A31   A(11,12,13)           119.9005         estimate D2E/DX2                !
 ! A32   A(11,12,22)           120.0495         estimate D2E/DX2                !
 ! A33   A(13,12,22)           120.0484         estimate D2E/DX2                !
 ! A34   A(12,13,14)           120.1433         estimate D2E/DX2                !
 ! A35   A(12,13,23)           119.9155         estimate D2E/DX2                !
 ! A36   A(14,13,23)           119.9394         estimate D2E/DX2                !
 ! A37   A(9,14,13)            120.6984         estimate D2E/DX2                !
 ! A38   A(9,14,24)            119.1529         estimate D2E/DX2                !
 ! A39   A(13,14,24)           120.0918         estimate D2E/DX2                !
 ! D1    D(1,2,3,4)           -178.0423         estimate D2E/DX2                !
 ! D2    D(1,2,3,15)             1.6135         estimate D2E/DX2                !
 ! D3    D(7,2,3,4)              0.913          estimate D2E/DX2                !
 ! D4    D(7,2,3,15)          -179.4312         estimate D2E/DX2                !
 ! D5    D(1,2,7,6)            177.034          estimate D2E/DX2                !
 ! D6    D(1,2,7,8)             -0.2872         estimate D2E/DX2                !
 ! D7    D(3,2,7,6)             -1.9436         estimate D2E/DX2                !
 ! D8    D(3,2,7,8)           -179.2648         estimate D2E/DX2                !
 ! D9    D(2,3,4,5)              0.3825         estimate D2E/DX2                !
 ! D10   D(2,3,4,16)           179.8282         estimate D2E/DX2                !
 ! D11   D(15,3,4,5)          -179.2653         estimate D2E/DX2                !
 ! D12   D(15,3,4,16)            0.1804         estimate D2E/DX2                !
 ! D13   D(3,4,5,6)             -0.6252         estimate D2E/DX2                !
 ! D14   D(3,4,5,17)           178.9619         estimate D2E/DX2                !
 ! D15   D(16,4,5,6)           179.9296         estimate D2E/DX2                !
 ! D16   D(16,4,5,17)           -0.4833         estimate D2E/DX2                !
 ! D17   D(4,5,6,7)             -0.4394         estimate D2E/DX2                !
 ! D18   D(4,5,6,18)           177.1383         estimate D2E/DX2                !
 ! D19   D(17,5,6,7)           179.9735         estimate D2E/DX2                !
 ! D20   D(17,5,6,18)           -2.4488         estimate D2E/DX2                !
 ! D21   D(5,6,7,2)              1.713          estimate D2E/DX2                !
 ! D22   D(5,6,7,8)            178.8686         estimate D2E/DX2                !
 ! D23   D(18,6,7,2)          -175.8854         estimate D2E/DX2                !
 ! D24   D(18,6,7,8)             1.2702         estimate D2E/DX2                !
 ! D25   D(2,7,8,9)           -162.1673         estimate D2E/DX2                !
 ! D26   D(2,7,8,19)            12.7934         estimate D2E/DX2                !
 ! D27   D(6,7,8,9)             20.64           estimate D2E/DX2                !
 ! D28   D(6,7,8,19)          -164.3992         estimate D2E/DX2                !
 ! D29   D(7,8,9,10)          -157.2708         estimate D2E/DX2                !
 ! D30   D(7,8,9,14)            24.9909         estimate D2E/DX2                !
 ! D31   D(19,8,9,10)           27.8549         estimate D2E/DX2                !
 ! D32   D(19,8,9,14)         -149.8834         estimate D2E/DX2                !
 ! D33   D(8,9,10,11)         -179.1125         estimate D2E/DX2                !
 ! D34   D(8,9,10,20)            1.5208         estimate D2E/DX2                !
 ! D35   D(14,9,10,11)          -1.2959         estimate D2E/DX2                !
 ! D36   D(14,9,10,20)         179.3374         estimate D2E/DX2                !
 ! D37   D(8,9,14,13)          178.9621         estimate D2E/DX2                !
 ! D38   D(8,9,14,24)            1.7017         estimate D2E/DX2                !
 ! D39   D(10,9,14,13)           1.1959         estimate D2E/DX2                !
 ! D40   D(10,9,14,24)        -176.0646         estimate D2E/DX2                !
 ! D41   D(9,10,11,12)           0.5309         estimate D2E/DX2                !
 ! D42   D(9,10,11,21)        -179.5329         estimate D2E/DX2                !
 ! D43   D(20,10,11,12)        179.8879         estimate D2E/DX2                !
 ! D44   D(20,10,11,21)         -0.1759         estimate D2E/DX2                !
 ! D45   D(10,11,12,13)          0.3634         estimate D2E/DX2                !
 ! D46   D(10,11,12,22)        179.9071         estimate D2E/DX2                !
 ! D47   D(21,11,12,13)       -179.5729         estimate D2E/DX2                !
 ! D48   D(21,11,12,22)         -0.0291         estimate D2E/DX2                !
 ! D49   D(11,12,13,14)         -0.4628         estimate D2E/DX2                !
 ! D50   D(11,12,13,23)        179.0487         estimate D2E/DX2                !
 ! D51   D(22,12,13,14)        179.9934         estimate D2E/DX2                !
 ! D52   D(22,12,13,23)         -0.495          estimate D2E/DX2                !
 ! D53   D(12,13,14,9)          -0.3311         estimate D2E/DX2                !
 ! D54   D(12,13,14,24)        176.9036         estimate D2E/DX2                !
 ! D55   D(23,13,14,9)        -179.8426         estimate D2E/DX2                !
 ! D56   D(23,13,14,24)         -2.6078         estimate D2E/DX2                !
 --------------------------------------------------------------------------------
 Trust Radius=3.00D-01 FncErr=1.00D-07 GrdErr=1.00D-06 EigMax=2.50D+02 EigMin=1.00D-04
 Number of steps in this run=    130 maximum allowed number of steps=    144.
 GradGradGradGradGradGradGradGradGradGradGradGradGradGradGradGradGradGrad

                          Input orientation:                          
 ---------------------------------------------------------------------
 Center     Atomic      Atomic             Coordinates (Angstroms)
 Number     Number       Type             X           Y           Z
 ---------------------------------------------------------------------
      1          9           0        2.178030    2.128210    0.386540
      2          6           0        2.251310    0.793720    0.158530
      3          6           0        3.461320    0.133310    0.175420
      4          6           0        3.524430   -1.218280   -0.098270
      5          6           0        2.372180   -1.917240   -0.399370
      6          6           0        1.156710   -1.271150   -0.414770
      7          6           0        1.073790    0.086360   -0.119400
      8          7           0       -0.128680    0.809220   -0.139660
      9          6           0       -1.460630    0.343150   -0.051060
     10          6           0       -2.500390    1.124890   -0.552370
     11          6           0       -3.806210    0.700250   -0.461020
     12          6           0       -4.101990   -0.506660    0.141520
     13          6           0       -3.085530   -1.284770    0.659780
     14          6           0       -1.778230   -0.864420    0.568500
     15          1           0        4.351080    0.694120    0.400140
     16          1           0        4.475020   -1.725570   -0.085480
     17          1           0        2.425620   -2.968640   -0.629120
     18          1           0        0.265650   -1.803930   -0.693810
     19          1           0       -0.006430    1.818200   -0.150630
     20          1           0       -2.264700    2.063590   -1.022500
     21          1           0       -4.599560    1.311100   -0.859480
     22          1           0       -5.125050   -0.837320    0.213740
     23          1           0       -3.317450   -2.219350    1.143650
     24          1           0       -0.992420   -1.446190    1.015790
 ---------------------------------------------------------------------
                    Distance matrix (angstroms):
                    1          2          3          4          5
     1  F    0.000000
     2  C    1.355810   0.000000
     3  C    2.381393   1.378605   0.000000
     4  C    3.639619   2.394770   1.380465   0.000000
     5  C    4.125653   2.770409   2.391937   1.380901   0.000000
     6  C    3.638797   2.406348   2.762618   2.389365   1.376603
     7  C    2.375810   1.401484   2.406122   2.776359   2.403875
     8  N    2.708788   2.398648   3.666637   4.178239   3.708818
     9  C    4.076491   3.745055   4.931624   5.224090   4.463308
    10  C    4.876045   4.815984   6.087273   6.480363   5.746295
    11  C    6.210359   6.089838   7.317340   7.586213   6.710258
    12  C    6.814780   6.485036   7.590413   7.663301   6.648096
    13  C    6.279184   5.749194   6.716160   6.653618   5.595392
    14  C    4.963964   4.376608   5.348164   5.356118   4.389887
    15  H    2.603641   2.115970   1.075490   2.142204   3.372605
    16  H    4.511162   3.369161   2.133329   1.077557   2.134760
    17  H    5.202956   3.847873   3.367796   2.133763   1.077536
    18  H    4.504007   3.378922   3.836765   3.364120   2.130024
    19  H    2.270798   2.498505   3.869167   4.657244   4.435445
    20  H    4.661268   4.837535   6.160219   6.718549   6.142960
    21  H    6.939450   6.945390   8.211942   8.542624   7.696690
    22  H    7.884111   7.554735   8.641142   8.663486   7.599381
    23  H    7.048035   6.407819   7.240456   7.025370   5.902887
    24  H    4.819133   4.034089   4.799671   4.657790   3.680367
                    6          7          8          9         10
     6  C    0.000000
     7  C    1.391744   0.000000
     8  N    2.460864   1.403165   0.000000
     9  C    3.096566   2.548312   1.413917   0.000000
    10  C    4.374280   3.747102   2.427959   1.394105   0.000000
    11  C    5.340331   4.930311   3.693152   2.407765   1.376165
    12  C    5.343017   5.216172   4.194973   2.781375   2.389260
    13  C    4.376236   4.448265   3.710372   2.407430   2.760101
    14  C    3.121878   3.084024   2.454298   1.393897   2.394832
    15  H    3.838016   3.373414   4.513633   5.839755   6.930763
    16  H    3.365429   3.853908   5.255678   6.285915   7.549798
    17  H    2.130153   3.379391   4.586529   5.138584   6.405346
    18  H    1.075038   2.134534   2.700209   2.828979   4.031001
    19  H    3.311608   2.041353   1.016418   2.073737   2.619525
    20  H    4.816209   3.983785   2.629721   2.133105   1.075978
    21  H    6.324589   5.851035   4.556182   3.382802   2.129673
    22  H    6.328012   6.276128   5.272542   3.858964   3.365417
    23  H    4.831756   5.118064   4.581198   3.382531   3.837709
    24  H    2.587644   2.811866   2.677309   2.135211   3.368019
                   11         12         13         14         15
    11  C    0.000000
    12  C    1.381004   0.000000
    13  C    2.390790   1.381028   0.000000
    14  C    2.760581   2.389595   1.376248   0.000000
    15  H    8.202622   8.541847   7.699778   6.326597   0.000000
    16  H    8.637384   8.666162   7.609969   6.346054   2.471050
    17  H    7.233583   7.018898   5.905036   4.851226   4.264104
    18  H    4.785933   4.632166   3.651320   2.579448   4.911997
    19  H    3.972969   4.718468   4.445902   3.294370   4.533740
    20  H    2.133122   3.367011   3.836058   3.367666   6.904194
    21  H    1.077642   2.133970   3.367340   3.838218   9.059871
    22  H    2.135126   1.077592   2.135136   3.365679   9.600890
    23  H    3.367182   2.133793   1.077663   2.129749   8.236957
    24  H    3.834786   3.363999   2.129298   1.075185   5.789037
                   16         17         18         19         20
    16  H    0.000000
    17  H    2.457805   0.000000
    18  H    4.253822   2.454833   0.000000
    19  H    5.713663   5.390515   3.672723   0.000000
    20  H    7.788425   6.890369   4.633403   2.433137   0.000000
    21  H    9.600440   8.229362   5.779371   4.675090   2.458534
    22  H    9.645717   7.890853   5.551363   5.777960   4.257367
    23  H    7.904250   6.056980   4.048140   5.379575   4.913661
    24  H    5.584241   4.087368   2.152545   3.604019   4.253455
                   21         22         23         24
    21  H    0.000000
    22  H    2.458383   0.000000
    23  H    4.256808   2.458080   0.000000
    24  H    4.912305   4.253544   2.453546   0.000000
 Stoichiometry    C12H10FN
 Framework group  C1[X(C12H10FN)]
 Deg. of freedom    66
 Full point group                 C1      NOp   1
 Largest Abelian subgroup         C1      NOp   1
 Largest concise Abelian subgroup C1      NOp   1
                         Standard orientation:                         
 ---------------------------------------------------------------------
 Center     Atomic      Atomic             Coordinates (Angstroms)
 Number     Number       Type             X           Y           Z
 ---------------------------------------------------------------------
      1          9           0        2.183374    2.186821    0.434290
      2          6           0        2.274897    0.857969    0.181314
      3          6           0        3.493752    0.213832    0.186798
      4          6           0        3.575365   -1.131395   -0.112180
      5          6           0        2.432884   -1.840138   -0.427311
      6          6           0        1.208763   -1.210419   -0.431580
      7          6           0        1.107249    0.140050   -0.110831
      8          7           0       -0.104913    0.846786   -0.118505
      9          6           0       -1.430462    0.361109   -0.039780
     10          6           0       -2.480453    1.137956   -0.527178
     11          6           0       -3.780439    0.694001   -0.444903
     12          6           0       -4.060151   -0.527921    0.134614
     13          6           0       -3.033517   -1.301774    0.639008
     14          6           0       -1.731993   -0.862089    0.556724
     15          1           0        4.375687    0.782337    0.422750
     16          1           0        4.532748   -1.625895   -0.108134
     17          1           0        2.500727   -2.886213   -0.676726
     18          1           0        0.325179   -1.749899   -0.721317
     19          1           0        0.003633    1.857359   -0.110419
     20          1           0       -2.257260    2.088437   -0.979397
     21          1           0       -4.581781    1.301414   -0.832476
     22          1           0       -5.078668   -0.873727    0.199762
     23          1           0       -3.253004   -2.248343    1.105045
     24          1           0       -0.938613   -1.441450    0.993658
 ---------------------------------------------------------------------
 Rotational constants (GHZ):           1.6822333           0.3860141           0.3256679
 Standard basis: def2SVP (5D, 7F)
 There are   260 symmetry adapted cartesian basis functions of A   symmetry.
 There are   246 symmetry adapted basis functions of A   symmetry.
   246 basis functions,   420 primitive gaussians,   260 cartesian basis functions
    49 alpha electrons       49 beta electrons
       nuclear repulsion energy       805.2168789261 Hartrees.
 NAtoms=   24 NActive=   24 NUniq=   24 SFac= 1.00D+00 NAtFMM=   60 NAOKFM=F Big=F
 Integral buffers will be    131072 words long.
 Raffenetti 2 integral format.
 Two-electron integral symmetry is turned on.
 Nuclear repulsion after empirical dispersion term =      805.2031560327 Hartrees.
 One-electron integrals computed using PRISM.
   1 Symmetry operations used in ECPInt.
 ECPInt:  NShTT=    6555 NPrTT=   24083 LenC2=    6175 LenP2D=   16666.
 LDataN:  DoStor=T MaxTD1= 4 Len=   56
 NBasis=   246 RedAO= T EigKep=  2.18D-04  NBF=   246
 NBsUse=   246 1.00D-06 EigRej= -1.00D+00 NBFU=   246
 ExpMin= 1.22D-01 ExpMax= 2.89D+03 ExpMxC= 4.35D+02 IAcc=3 IRadAn=         5 AccDes= 0.00D+00
 Harris functional with IExCor= 4639 and IRadAn=       5 diagonalized for initial guess.
 HarFok:  IExCor= 4639 AccDes= 0.00D+00 IRadAn=         5 IDoV= 1 UseB2=F ITyADJ=14
 ICtDFT=  3500011 ScaDFX=  1.000000  1.000000  1.000000  1.000000
 FoFCou: FMM=F IPFlag=           0 FMFlag=      100000 FMFlg1=           0
         NFxFlg=           0 DoJE=T BraDBF=F KetDBF=T FulRan=T
         wScrn=  0.000000 ICntrl=       500 IOpCl=  0 I1Cent=   200000004 NGrid=           0
         NMat0=    1 NMatS0=      1 NMatT0=    0 NMatD0=    1 NMtDS0=    0 NMtDT0=    0
 Petite list used in FoFCou.
 Requested convergence on RMS density matrix=1.00D-08 within 128 cycles.
 Requested convergence on MAX density matrix=1.00D-06.
 Requested convergence on             energy=1.00D-06.
 No special actions if energy rises.
 Integral accuracy reduced to 1.0D-05 until final iterations.
 Initial convergence to 1.0D-05 achieved.  Increase integral accuracy.
 SCF Done:  E(RwB97XD) =  -617.239694221     A.U. after   16 cycles
            NFock= 16  Conv=0.60D-08     -V/T= 2.0096

 **********************************************************************

            Population analysis using the SCF Density.

 **********************************************************************

 Orbital symmetries:
       Occupied  (A) (A) (A) (A) (A) (A) (A) (A) (A) (A) (A) (A)
                 (A) (A) (A) (A) (A) (A) (A) (A) (A) (A) (A) (A)
                 (A) (A) (A) (A) (A) (A) (A) (A) (A) (A) (A) (A)
                 (A) (A) (A) (A) (A) (A) (A) (A) (A) (A) (A) (A)
                 (A)
       Virtual   (A) (A) (A) (A) (A) (A) (A) (A) (A) (A) (A) (A)
                 (A) (A) (A) (A) (A) (A) (A) (A) (A) (A) (A) (A)
                 (A) (A) (A) (A) (A) (A) (A) (A) (A) (A) (A) (A)
                 (A) (A) (A) (A) (A) (A) (A) (A) (A) (A) (A) (A)
                 (A) (A) (A) (A) (A) (A) (A) (A) (A) (A) (A) (A)
                 (A) (A) (A) (A) (A) (A) (A) (A) (A) (A) (A) (A)
                 (A) (A) (A) (A) (A) (A) (A) (A) (A) (A) (A) (A)
                 (A) (A) (A) (A) (A) (A) (A) (A) (A) (A) (A) (A)
                 (A) (A) (A) (A) (A) (A) (A) (A) (A) (A) (A) (A)
                 (A) (A) (A) (A) (A) (A) (A) (A) (A) (A) (A) (A)
                 (A) (A) (A) (A) (A) (A) (A) (A) (A) (A) (A) (A)
                 (A) (A) (A) (A) (A) (A) (A) (A) (A) (A) (A) (A)
                 (A) (A) (A) (A) (A) (A) (A) (A) (A) (A) (A) (A)
                 (A) (A) (A) (A) (A) (A) (A) (A) (A) (A) (A) (A)
                 (A) (A) (A) (A) (A) (A) (A) (A) (A) (A) (A) (A)
                 (A) (A) (A) (A) (A) (A) (A) (A) (A) (A) (A) (A)
                 (A) (A) (A) (A) (A)
 The electronic state is 1-A.
 Alpha  occ. eigenvalues --  -24.83381 -14.47354 -10.38222 -10.35523 -10.34861
 Alpha  occ. eigenvalues --  -10.30773 -10.30323 -10.30261 -10.30130 -10.30075
 Alpha  occ. eigenvalues --  -10.29993 -10.29869 -10.29650 -10.29260  -1.31361
 Alpha  occ. eigenvalues --   -1.04571  -0.96620  -0.94484  -0.86029  -0.85214
 Alpha  occ. eigenvalues --   -0.84539  -0.81528  -0.73090  -0.72163  -0.70012
 Alpha  occ. eigenvalues --   -0.68376  -0.64682  -0.63126  -0.61204  -0.58779
 Alpha  occ. eigenvalues --   -0.56874  -0.56227  -0.55538  -0.53942  -0.52776
 Alpha  occ. eigenvalues --   -0.52287  -0.51312  -0.50150  -0.48596  -0.46531
 Alpha  occ. eigenvalues --   -0.45912  -0.45127  -0.43638  -0.43016  -0.41377
 Alpha  occ. eigenvalues --   -0.34270  -0.33816  -0.33381  -0.26984
 Alpha virt. eigenvalues --    0.04796   0.06056   0.06239   0.09180   0.13912
 Alpha virt. eigenvalues --    0.14500   0.16253   0.18486   0.19195   0.20003
 Alpha virt. eigenvalues --    0.21473   0.22527   0.23166   0.23704   0.24044
 Alpha virt. eigenvalues --    0.25190   0.26767   0.30731   0.34088   0.34386
 Alpha virt. eigenvalues --    0.36816   0.37459   0.37840   0.38249   0.39298
 Alpha virt. eigenvalues --    0.40277   0.41704   0.43450   0.44671   0.46893
 Alpha virt. eigenvalues --    0.48372   0.49129   0.49732   0.50971   0.53035
 Alpha virt. eigenvalues --    0.54031   0.55266   0.55513   0.56077   0.57757
 Alpha virt. eigenvalues --    0.58123   0.58758   0.60107   0.60980   0.61783
 Alpha virt. eigenvalues --    0.62304   0.63774   0.64046   0.64803   0.66593
 Alpha virt. eigenvalues --    0.68875   0.69570   0.71435   0.72343   0.73506
 Alpha virt. eigenvalues --    0.73789   0.74585   0.75734   0.76526   0.77354
 Alpha virt. eigenvalues --    0.78394   0.79506   0.80372   0.80784   0.80863
 Alpha virt. eigenvalues --    0.81550   0.82582   0.83415   0.84712   0.85453
 Alpha virt. eigenvalues --    0.87217   0.88108   0.89801   0.91994   0.92637
 Alpha virt. eigenvalues --    0.93840   0.95266   0.96312   1.01679   1.03254
 Alpha virt. eigenvalues --    1.05741   1.08084   1.15011   1.17139   1.19981
 Alpha virt. eigenvalues --    1.21255   1.25892   1.26486   1.28832   1.29423
 Alpha virt. eigenvalues --    1.30493   1.31391   1.33085   1.33490   1.34852
 Alpha virt. eigenvalues --    1.36132   1.37081   1.38720   1.39181   1.40342
 Alpha virt. eigenvalues --    1.41501   1.44303   1.50298   1.56042   1.58338
 Alpha virt. eigenvalues --    1.59773   1.62004   1.68629   1.73882   1.74986
 Alpha virt. eigenvalues --    1.76424   1.77530   1.78377   1.79453   1.80944
 Alpha virt. eigenvalues --    1.81732   1.82683   1.83651   1.84599   1.85195
 Alpha virt. eigenvalues --    1.85949   1.86269   1.86982   1.88222   1.89112
 Alpha virt. eigenvalues --    1.90482   1.91537   1.92835   1.94754   1.95897
 Alpha virt. eigenvalues --    1.98963   2.01373   2.03867   2.04123   2.04426
 Alpha virt. eigenvalues --    2.07989   2.09158   2.09632   2.11633   2.13978
 Alpha virt. eigenvalues --    2.17675   2.19077   2.20426   2.20958   2.22554
 Alpha virt. eigenvalues --    2.23342   2.23615   2.26014   2.27065   2.29208
 Alpha virt. eigenvalues --    2.31378   2.33556   2.36531   2.37796   2.38849
 Alpha virt. eigenvalues --    2.40628   2.41261   2.41952   2.42379   2.45555
 Alpha virt. eigenvalues --    2.47623   2.49659   2.56641   2.59290   2.63870
 Alpha virt. eigenvalues --    2.66653   2.70351   2.70704   2.72111   2.73900
 Alpha virt. eigenvalues --    2.76586   2.77503   2.81994   2.84121   2.84490
 Alpha virt. eigenvalues --    2.85192   2.87177   2.90475   2.95052   2.99037
 Alpha virt. eigenvalues --    3.00615   3.04571   3.08566   3.13610   3.15977
 Alpha virt. eigenvalues --    3.17388   3.20888   3.23339   3.24071   3.28383
 Alpha virt. eigenvalues --    3.36397   3.39030   3.53699   3.65119   3.68356
 Alpha virt. eigenvalues --    3.80421   3.98063
          Condensed to atoms (all electrons):
               1          2          3          4          5          6
     1  F    8.973685   0.375495  -0.060505   0.004779  -0.000491   0.004770
     2  C    0.375495   5.062236   0.291770   0.112999  -0.162894   0.084652
     3  C   -0.060505   0.291770   5.196801   0.235226   0.103193  -0.135277
     4  C    0.004779   0.112999   0.235226   5.115505   0.273411   0.077485
     5  C   -0.000491  -0.162894   0.103193   0.273411   5.054626   0.272015
     6  C    0.004770   0.084652  -0.135277   0.077485   0.272015   5.207573
     7  C   -0.083676   0.126938   0.064714  -0.152310   0.130805   0.224947
     8  N   -0.006168  -0.091516   0.007159  -0.000253   0.006943  -0.074500
     9  C   -0.000213   0.008073  -0.000315   0.000033   0.000207  -0.011623
    10  C   -0.000019  -0.000015  -0.000010   0.000000   0.000006  -0.000049
    11  C   -0.000000  -0.000012  -0.000000   0.000000  -0.000000   0.000076
    12  C   -0.000000   0.000001  -0.000000  -0.000000   0.000001  -0.000057
    13  C    0.000000   0.000010   0.000000   0.000001  -0.000019  -0.000313
    14  C   -0.000006  -0.000732   0.000054  -0.000041   0.000185  -0.004362
    15  H    0.000701  -0.068857   0.445400  -0.067698   0.014336  -0.002740
    16  H   -0.000045   0.014946  -0.070466   0.457928  -0.070214   0.016021
    17  H    0.000003  -0.001810   0.014173  -0.071139   0.455014  -0.068102
    18  H   -0.000028   0.015369  -0.002797   0.015203  -0.065482   0.465471
    19  H    0.017080  -0.027617   0.001761  -0.000267  -0.000057   0.009429
    20  H   -0.000036  -0.000050  -0.000004   0.000001  -0.000001   0.000006
    21  H    0.000000  -0.000000   0.000000  -0.000000  -0.000000   0.000000
    22  H    0.000000   0.000000  -0.000000   0.000000  -0.000000   0.000000
    23  H   -0.000000   0.000000  -0.000000   0.000000  -0.000002   0.000044
    24  H   -0.000001  -0.000561   0.000025  -0.000112   0.001314   0.001904
               7          8          9         10         11         12
     1  F   -0.083676  -0.006168  -0.000213  -0.000019  -0.000000  -0.000000
     2  C    0.126938  -0.091516   0.008073  -0.000015  -0.000012   0.000001
     3  C    0.064714   0.007159  -0.000315  -0.000010  -0.000000  -0.000000
     4  C   -0.152310  -0.000253   0.000033   0.000000   0.000000  -0.000000
     5  C    0.130805   0.006943   0.000207   0.000006  -0.000000   0.000001
     6  C    0.224947  -0.074500  -0.011623  -0.000049   0.000076  -0.000057
     7  C    5.343332   0.374967  -0.033912   0.007702  -0.000281   0.000052
     8  N    0.374967   6.429174   0.342521  -0.080810   0.007707  -0.000276
     9  C   -0.033912   0.342521   5.080285   0.280619   0.111600  -0.160316
    10  C    0.007702  -0.080810   0.280619   5.158759   0.295100   0.080091
    11  C   -0.000281   0.007707   0.111600   0.295100   5.023160   0.288017
    12  C    0.000052  -0.000276  -0.160316   0.080091   0.288017   5.096101
    13  C    0.000188   0.007241   0.113750  -0.144838   0.093641   0.291491
    14  C   -0.012940  -0.074234   0.253989   0.058659  -0.144943   0.078442
    15  H    0.020237  -0.000099   0.000006  -0.000000   0.000000   0.000000
    16  H   -0.002815   0.000004  -0.000000   0.000000  -0.000000   0.000000
    17  H    0.015662  -0.000095  -0.000016   0.000000  -0.000000   0.000000
    18  H   -0.074078  -0.011332   0.003547  -0.000470   0.000023  -0.000116
    19  H   -0.017264   0.363606  -0.021232  -0.014523   0.000373  -0.000042
    20  H    0.000171  -0.009145  -0.080101   0.451861  -0.061278   0.015229
    21  H    0.000004  -0.000118   0.015245  -0.067015   0.451785  -0.069617
    22  H    0.000000   0.000009  -0.001655   0.014582  -0.070198   0.453343
    23  H   -0.000017  -0.000119   0.015201  -0.001917   0.014108  -0.071090
    24  H    0.002658  -0.010909  -0.073862   0.014884  -0.002269   0.014569
              13         14         15         16         17         18
     1  F    0.000000  -0.000006   0.000701  -0.000045   0.000003  -0.000028
     2  C    0.000010  -0.000732  -0.068857   0.014946  -0.001810   0.015369
     3  C    0.000000   0.000054   0.445400  -0.070466   0.014173  -0.002797
     4  C    0.000001  -0.000041  -0.067698   0.457928  -0.071139   0.015203
     5  C   -0.000019   0.000185   0.014336  -0.070214   0.455014  -0.065482
     6  C   -0.000313  -0.004362  -0.002740   0.016021  -0.068102   0.465471
     7  C    0.000188  -0.012940   0.020237  -0.002815   0.015662  -0.074078
     8  N    0.007241  -0.074234  -0.000099   0.000004  -0.000095  -0.011332
     9  C    0.113750   0.253989   0.000006  -0.000000  -0.000016   0.003547
    10  C   -0.144838   0.058659  -0.000000   0.000000   0.000000  -0.000470
    11  C    0.093641  -0.144943   0.000000  -0.000000  -0.000000   0.000023
    12  C    0.291491   0.078442   0.000000   0.000000   0.000000  -0.000116
    13  C    5.016995   0.296327  -0.000000  -0.000000  -0.000003   0.001222
    14  C    0.296327   5.190867   0.000000   0.000000   0.000028   0.002583
    15  H   -0.000000   0.000000   0.649858  -0.013050  -0.000224   0.000011
    16  H   -0.000000   0.000000  -0.013050   0.664909  -0.012214  -0.000243
    17  H   -0.000003   0.000028  -0.000224  -0.012214   0.666889  -0.012706
    18  H    0.001222   0.002583   0.000011  -0.000243  -0.012706   0.651739
    19  H   -0.000097   0.007293  -0.000050   0.000003   0.000008  -0.000200
    20  H   -0.002583   0.017098   0.000000  -0.000000   0.000000  -0.000014
    21  H    0.013978  -0.001956  -0.000000   0.000000   0.000000  -0.000001
    22  H   -0.069487   0.014984   0.000000  -0.000000   0.000000  -0.000001
    23  H    0.453125  -0.067481   0.000000   0.000000  -0.000000   0.000052
    24  H   -0.062511   0.458192  -0.000001  -0.000001   0.000055  -0.003447
              19         20         21         22         23         24
     1  F    0.017080  -0.000036   0.000000   0.000000  -0.000000  -0.000001
     2  C   -0.027617  -0.000050  -0.000000   0.000000   0.000000  -0.000561
     3  C    0.001761  -0.000004   0.000000  -0.000000  -0.000000   0.000025
     4  C   -0.000267   0.000001  -0.000000   0.000000   0.000000  -0.000112
     5  C   -0.000057  -0.000001  -0.000000  -0.000000  -0.000002   0.001314
     6  C    0.009429   0.000006   0.000000   0.000000   0.000044   0.001904
     7  C   -0.017264   0.000171   0.000004   0.000000  -0.000017   0.002658
     8  N    0.363606  -0.009145  -0.000118   0.000009  -0.000119  -0.010909
     9  C   -0.021232  -0.080101   0.015245  -0.001655   0.015201  -0.073862
    10  C   -0.014523   0.451861  -0.067015   0.014582  -0.001917   0.014884
    11  C    0.000373  -0.061278   0.451785  -0.070198   0.014108  -0.002269
    12  C   -0.000042   0.015229  -0.069617   0.453343  -0.071090   0.014569
    13  C   -0.000097  -0.002583   0.013978  -0.069487   0.453125  -0.062511
    14  C    0.007293   0.017098  -0.001956   0.014984  -0.067481   0.458192
    15  H   -0.000050   0.000000  -0.000000   0.000000   0.000000  -0.000001
    16  H    0.000003  -0.000000   0.000000  -0.000000   0.000000  -0.000001
    17  H    0.000008   0.000000   0.000000   0.000000  -0.000000   0.000055
    18  H   -0.000200  -0.000014  -0.000001  -0.000001   0.000052  -0.003447
    19  H    0.536588   0.004259  -0.000012  -0.000001   0.000009  -0.000219
    20  H    0.004259   0.686607  -0.013184  -0.000235   0.000026  -0.000198
    21  H   -0.000012  -0.013184   0.669618  -0.012370  -0.000266   0.000021
    22  H   -0.000001  -0.000235  -0.012370   0.674387  -0.012349  -0.000230
    23  H    0.000009   0.000026  -0.000266  -0.012349   0.670855  -0.013015
    24  H   -0.000219  -0.000198   0.000021  -0.000230  -0.013015   0.662496
 Mulliken charges:
               1
     1  F   -0.225326
     2  C    0.261576
     3  C   -0.090902
     4  C   -0.000751
     5  C   -0.012895
     6  C   -0.067368
     7  C    0.064918
     8  N   -0.179756
     9  C    0.158169
    10  C   -0.052596
    11  C   -0.006608
    12  C   -0.015821
    13  C   -0.008119
    14  C   -0.072009
    15  H    0.022170
    16  H    0.015237
    17  H    0.014479
    18  H    0.015697
    19  H    0.141172
    20  H   -0.008426
    21  H    0.013887
    22  H    0.009221
    23  H    0.012836
    24  H    0.011215
 Sum of Mulliken charges =  -0.00000
 Mulliken charges with hydrogens summed into heavy atoms:
               1
     1  F   -0.225326
     2  C    0.261576
     3  C   -0.068731
     4  C    0.014486
     5  C    0.001584
     6  C   -0.051671
     7  C    0.064918
     8  N   -0.038585
     9  C    0.158169
    10  C   -0.061022
    11  C    0.007279
    12  C   -0.006601
    13  C    0.004717
    14  C   -0.060793
 Electronic spatial extent (au):  <R**2>=           3238.0672
 Charge=             -0.0000 electrons
 Dipole moment (field-independent basis, Debye):
    X=             -0.1571    Y=             -0.5139    Z=             -0.2448  Tot=              0.5905
 Quadrupole moment (field-independent basis, Debye-Ang):
   XX=            -72.7390   YY=            -74.9818   ZZ=            -84.3250
   XY=             -2.7337   XZ=              0.7585   YZ=             -2.2020
 Traceless Quadrupole moment (field-independent basis, Debye-Ang):
   XX=              4.6096   YY=              2.3668   ZZ=             -6.9764
   XY=             -2.7337   XZ=              0.7585   YZ=             -2.2020
 Octapole moment (field-independent basis, Debye-Ang**2):
  XXX=             19.6492  YYY=             10.3834  ZZZ=              4.7274  XYY=             -1.4132
  XXY=             -1.5746  XXZ=              0.3931  XZZ=              4.5099  YZZ=              7.3416
  YYZ=             -3.3035  XYZ=              9.7724
 Hexadecapole moment (field-independent basis, Debye-Ang**3):
 XXXX=          -3134.3313 YYYY=           -697.6052 ZZZZ=           -173.2696 XXXY=             22.5326
 XXXZ=             43.1779 YYYX=              4.2564 YYYZ=             -1.0240 ZZZX=             11.7471
 ZZZY=              4.7859 XXYY=           -668.1232 XXZZ=           -647.0298 YYZZ=           -147.8878
 XXYZ=            -20.3536 YYXZ=             -8.8992 ZZXY=             17.0678
 N-N= 8.052031560327D+02 E-N=-3.046302924926D+03  KE= 6.113407130049D+02
   1 Symmetry operations used in ECPInt.
 ECPInt:  NShTT=    6555 NPrTT=   24083 LenC2=    6175 LenP2D=   16666.
 LDataN:  DoStor=T MaxTD1= 5 Len=  102
 Calling FoFJK, ICntrl=      2127 FMM=F ISym2X=0 I1Cent= 0 IOpClX= 0 NMat=1 NMatS=1 NMatT=0.
 ***** Axes restored to original set *****
 -------------------------------------------------------------------
 Center     Atomic                   Forces (Hartrees/Bohr)
 Number     Number              X              Y              Z
 -------------------------------------------------------------------
      1        9          -0.000226676   -0.013103816   -0.001398698
      2        6          -0.001262074    0.000353653    0.000376684
      3        6          -0.000207806    0.011551480    0.001089752
      4        6           0.003162094   -0.005156338    0.000132311
      5        6           0.003869236   -0.001325232    0.000661808
      6        6          -0.001261416    0.002927145   -0.000952395
      7        6          -0.025386559    0.020028729    0.000499483
      8        7          -0.001616167   -0.000194447    0.000425183
      9        6           0.020418527    0.003012250    0.000742255
     10        6           0.008751353    0.001926191   -0.001677111
     11        6          -0.002107223   -0.000065128    0.001615430
     12        6          -0.007518266   -0.003125236    0.000217108
     13        6          -0.003193999   -0.000060298   -0.001237019
     14        6           0.007484341    0.001979355    0.001421637
     15        1           0.009773563    0.006666062    0.002395528
     16        1           0.009232060   -0.003766126    0.000588556
     17        1          -0.000175952   -0.009924286   -0.002545387
     18        1          -0.008555469   -0.005071029   -0.002292288
     19        1          -0.001825074   -0.004700195   -0.000474127
     20        1           0.002266159    0.010765396   -0.005947003
     21        1          -0.007155735    0.006478462   -0.003978108
     22        1          -0.009928700   -0.003254492    0.000470423
     23        1          -0.001482349   -0.009009692    0.005114514
     24        1           0.006946131   -0.006932407    0.004751464
 -------------------------------------------------------------------
 Cartesian Forces:  Max     0.025386559 RMS     0.006629057

 GradGradGradGradGradGradGradGradGradGradGradGradGradGradGradGradGradGrad
 Berny optimization.
 FormGI is forming the generalized inverse of G from B-inverse, IUseBI=4.
 Internal  Forces:  Max     0.017962006 RMS     0.005810672
 Search for a local minimum.
 Step number   1 out of a maximum of  130
 All quantities printed in internal units (Hartrees-Bohrs-Radians)
 Mixed Optimization -- RFO/linear search
 Second derivative matrix not updated -- first step.
 ITU=  0
     Eigenvalues ---    0.01508   0.01590   0.01650   0.01974   0.02001
     Eigenvalues ---    0.02156   0.02196   0.02230   0.02275   0.02296
     Eigenvalues ---    0.02297   0.02331   0.02340   0.02341   0.02344
     Eigenvalues ---    0.02356   0.02358   0.02360   0.02373   0.02373
     Eigenvalues ---    0.02377   0.15975   0.15983   0.15987   0.15999
     Eigenvalues ---    0.15999   0.15999   0.16000   0.16000   0.16000
     Eigenvalues ---    0.16000   0.21999   0.22000   0.22000   0.22011
     Eigenvalues ---    0.22485   0.23464   0.24466   0.24969   0.24980
     Eigenvalues ---    0.24996   0.36278   0.36281   0.36287   0.36291
     Eigenvalues ---    0.36294   0.36485   0.36545   0.36582   0.36601
     Eigenvalues ---    0.42715   0.43148   0.43390   0.43852   0.43872
     Eigenvalues ---    0.44914   0.45100   0.47084   0.47436   0.47997
     Eigenvalues ---    0.48053   0.49088   0.49136   0.49569   0.49802
     Eigenvalues ---    0.53803
 RFO step:  Lambda=-1.04907405D-02 EMin= 1.50768177D-02
 Linear search not attempted -- first point.
 Iteration  1 RMS(Cart)=  0.07418694 RMS(Int)=  0.00111741
 Iteration  2 RMS(Cart)=  0.00224222 RMS(Int)=  0.00005952
 Iteration  3 RMS(Cart)=  0.00000321 RMS(Int)=  0.00005951
 Iteration  4 RMS(Cart)=  0.00000000 RMS(Int)=  0.00005951
 Variable       Old X    -DE/DX   Delta X   Delta X   Delta X     New X
                                 (Linear)    (Quad)   (Total)
    R1        2.56211  -0.01312   0.00000  -0.02392  -0.02392   2.53819
    R2        2.60519   0.00553   0.00000   0.01024   0.01031   2.61549
    R3        2.64842   0.00296   0.00000   0.00514   0.00520   2.65362
    R4        2.60870   0.01285   0.00000   0.02608   0.02609   2.63479
    R5        2.03238   0.01206   0.00000   0.03209   0.03209   2.06447
    R6        2.60952   0.01311   0.00000   0.02738   0.02732   2.63685
    R7        2.03629   0.00992   0.00000   0.02658   0.02658   2.06286
    R8        2.60140   0.01796   0.00000   0.03611   0.03604   2.63745
    R9        2.03625   0.01022   0.00000   0.02736   0.02736   2.06361
   R10        2.63002   0.01024   0.00000   0.02090   0.02089   2.65091
   R11        2.03153   0.01020   0.00000   0.02709   0.02709   2.05862
   R12        2.65160  -0.01112   0.00000  -0.02410  -0.02410   2.62749
   R13        2.67192  -0.01411   0.00000  -0.03175  -0.03175   2.64017
   R14        1.92075  -0.00488   0.00000  -0.01062  -0.01062   1.91013
   R15        2.63448   0.00868   0.00000   0.01771   0.01769   2.65217
   R16        2.63408   0.01054   0.00000   0.02174   0.02173   2.65582
   R17        2.60057   0.01582   0.00000   0.03097   0.03097   2.63154
   R18        2.03330   0.01249   0.00000   0.03327   0.03327   2.06657
   R19        2.60972   0.01364   0.00000   0.02765   0.02766   2.63738
   R20        2.03645   0.01041   0.00000   0.02789   0.02789   2.06434
   R21        2.60977   0.01346   0.00000   0.02743   0.02744   2.63720
   R22        2.03635   0.01046   0.00000   0.02801   0.02801   2.06436
   R23        2.60073   0.01691   0.00000   0.03338   0.03339   2.63412
   R24        2.03649   0.01043   0.00000   0.02794   0.02794   2.06443
   R25        2.03180   0.01080   0.00000   0.02871   0.02871   2.06052
    A1        2.11401  -0.00547   0.00000  -0.01929  -0.01936   2.09465
    A2        2.07684  -0.00761   0.00000  -0.02750  -0.02757   2.04927
    A3        2.09219   0.01308   0.00000   0.04694   0.04704   2.13923
    A4        2.10217  -0.00411   0.00000  -0.01815  -0.01811   2.08407
    A5        2.07019   0.00163   0.00000   0.00664   0.00659   2.07678
    A6        2.11080   0.00248   0.00000   0.01158   0.01153   2.12233
    A7        2.09515  -0.00375   0.00000  -0.01248  -0.01254   2.08262
    A8        2.09313   0.00074   0.00000  -0.00039  -0.00036   2.09277
    A9        2.09486   0.00300   0.00000   0.01285   0.01288   2.10774
   A10        2.09628   0.00176   0.00000   0.01212   0.01199   2.10827
   A11        2.09323  -0.00015   0.00000  -0.00176  -0.00170   2.09154
   A12        2.09365  -0.00162   0.00000  -0.01039  -0.01033   2.08332
   A13        2.10368   0.00014   0.00000   0.00175   0.00167   2.10535
   A14        2.09688   0.00001   0.00000  -0.00027  -0.00024   2.09664
   A15        2.08186  -0.00014   0.00000  -0.00124  -0.00120   2.08066
   A16        2.07640  -0.00713   0.00000  -0.03015  -0.03010   2.04630
   A17        2.05203  -0.00081   0.00000  -0.00180  -0.00183   2.05020
   A18        2.15374   0.00793   0.00000   0.03179   0.03176   2.18550
   A19        2.26084   0.00171   0.00000   0.00757   0.00755   2.26839
   A20        1.99158   0.00044   0.00000   0.00418   0.00416   1.99574
   A21        2.02773  -0.00212   0.00000  -0.01091  -0.01093   2.01680
   A22        2.08888  -0.00755   0.00000  -0.02833  -0.02831   2.06057
   A23        2.12711   0.00549   0.00000   0.02176   0.02175   2.14886
   A24        2.06654   0.00205   0.00000   0.00628   0.00624   2.07278
   A25        2.10692  -0.00036   0.00000  -0.00271  -0.00275   2.10416
   A26        2.07482   0.00071   0.00000   0.00449   0.00451   2.07933
   A27        2.10140  -0.00035   0.00000  -0.00174  -0.00172   2.09967
   A28        2.09654   0.00159   0.00000   0.00750   0.00746   2.10400
   A29        2.09336  -0.00158   0.00000  -0.00835  -0.00836   2.08501
   A30        2.09328  -0.00001   0.00000   0.00086   0.00085   2.09413
   A31        2.09266  -0.00364   0.00000  -0.01387  -0.01387   2.07879
   A32        2.09526   0.00175   0.00000   0.00652   0.00651   2.10177
   A33        2.09524   0.00189   0.00000   0.00733   0.00733   2.10257
   A34        2.09690   0.00225   0.00000   0.01123   0.01122   2.10812
   A35        2.09292  -0.00030   0.00000  -0.00079  -0.00080   2.09212
   A36        2.09334  -0.00196   0.00000  -0.01050  -0.01051   2.08283
   A37        2.10658  -0.00189   0.00000  -0.00845  -0.00847   2.09812
   A38        2.07961   0.00242   0.00000   0.01304   0.01304   2.09265
   A39        2.09600  -0.00053   0.00000  -0.00430  -0.00431   2.09169
    D1       -3.10743  -0.00079   0.00000  -0.02199  -0.02203  -3.12946
    D2        0.02816  -0.00038   0.00000  -0.01097  -0.01107   0.01709
    D3        0.01593  -0.00040   0.00000  -0.01215  -0.01225   0.00369
    D4       -3.13166   0.00001   0.00000  -0.00114  -0.00128  -3.13295
    D5        3.08983   0.00058   0.00000   0.01520   0.01516   3.10498
    D6       -0.00501   0.00043   0.00000   0.01800   0.01790   0.01289
    D7       -0.03392   0.00018   0.00000   0.00551   0.00555  -0.02837
    D8       -3.12876   0.00003   0.00000   0.00831   0.00830  -3.12046
    D9        0.00668   0.00044   0.00000   0.01068   0.01052   0.01720
   D10        3.13859   0.00035   0.00000   0.00898   0.00887  -3.13572
   D11       -3.12877   0.00002   0.00000  -0.00058  -0.00072  -3.12949
   D12        0.00315  -0.00006   0.00000  -0.00227  -0.00237   0.00078
   D13       -0.01091  -0.00002   0.00000  -0.00166  -0.00175  -0.01266
   D14        3.12347  -0.00024   0.00000  -0.00585  -0.00587   3.11760
   D15        3.14036   0.00007   0.00000   0.00011  -0.00001   3.14035
   D16       -0.00843  -0.00014   0.00000  -0.00407  -0.00414  -0.01257
   D17       -0.00767  -0.00024   0.00000  -0.00530  -0.00528  -0.01295
   D18        3.09165  -0.00006   0.00000   0.00145   0.00149   3.09314
   D19        3.14113  -0.00004   0.00000  -0.00115  -0.00121   3.13992
   D20       -0.04274   0.00015   0.00000   0.00560   0.00556  -0.03718
   D21        0.02990  -0.00002   0.00000   0.00262   0.00268   0.03258
   D22        3.12185  -0.00014   0.00000  -0.00144  -0.00144   3.12041
   D23       -3.06978  -0.00021   0.00000  -0.00409  -0.00405  -3.07383
   D24        0.02217  -0.00033   0.00000  -0.00815  -0.00817   0.01400
   D25       -2.83035   0.00104   0.00000   0.04056   0.04049  -2.78987
   D26        0.22329   0.00130   0.00000   0.05223   0.05220   0.27549
   D27        0.36024   0.00133   0.00000   0.04534   0.04537   0.40560
   D28       -2.86931   0.00160   0.00000   0.05701   0.05708  -2.81223
   D29       -2.74489   0.00118   0.00000   0.04524   0.04522  -2.69967
   D30        0.43617   0.00141   0.00000   0.05391   0.05388   0.49005
   D31        0.48616   0.00080   0.00000   0.03272   0.03275   0.51891
   D32       -2.61596   0.00103   0.00000   0.04139   0.04141  -2.57455
   D33       -3.12610   0.00035   0.00000   0.01413   0.01395  -3.11215
   D34        0.02654   0.00022   0.00000   0.00971   0.00957   0.03611
   D35       -0.02262   0.00022   0.00000   0.00614   0.00608  -0.01654
   D36        3.13003   0.00008   0.00000   0.00173   0.00169   3.13172
   D37        3.12348  -0.00018   0.00000  -0.00185  -0.00202   3.12146
   D38        0.02970  -0.00034   0.00000  -0.00870  -0.00885   0.02085
   D39        0.02087   0.00026   0.00000   0.00747   0.00744   0.02832
   D40       -3.07291   0.00009   0.00000   0.00062   0.00062  -3.07229
   D41        0.00927  -0.00061   0.00000  -0.01673  -0.01679  -0.00753
   D42       -3.13344  -0.00018   0.00000  -0.00488  -0.00492  -3.13836
   D43        3.13964  -0.00047   0.00000  -0.01222  -0.01232   3.12732
   D44       -0.00307  -0.00004   0.00000  -0.00036  -0.00044  -0.00351
   D45        0.00634   0.00046   0.00000   0.01344   0.01346   0.01980
   D46        3.13997   0.00037   0.00000   0.01052   0.01055  -3.13266
   D47       -3.13414   0.00003   0.00000   0.00159   0.00153  -3.13261
   D48       -0.00051  -0.00006   0.00000  -0.00133  -0.00138  -0.00189
   D49       -0.00808   0.00003   0.00000   0.00015   0.00019  -0.00789
   D50        3.12499  -0.00027   0.00000  -0.00830  -0.00832   3.11667
   D51        3.14148   0.00012   0.00000   0.00308   0.00310  -3.13860
   D52       -0.00864  -0.00018   0.00000  -0.00537  -0.00540  -0.01404
   D53       -0.00578  -0.00036   0.00000  -0.01056  -0.01055  -0.01633
   D54        3.08755  -0.00011   0.00000  -0.00317  -0.00326   3.08429
   D55       -3.13885  -0.00007   0.00000  -0.00215  -0.00214  -3.14098
   D56       -0.04552   0.00018   0.00000   0.00523   0.00516  -0.04036
         Item               Value     Threshold  Converged?
 Maximum Force            0.017962     0.000450     NO 
 RMS     Force            0.005811     0.000300     NO 
 Maximum Displacement     0.216641     0.001800     NO 
 RMS     Displacement     0.075370     0.001200     NO 
 Predicted change in Energy=-5.492252D-03
 GradGradGradGradGradGradGradGradGradGradGradGradGradGradGradGradGradGrad

                          Input orientation:                          
 ---------------------------------------------------------------------
 Center     Atomic      Atomic             Coordinates (Angstroms)
 Number     Number       Type             X           Y           Z
 ---------------------------------------------------------------------
      1          9           0        2.105918    2.064465    0.472753
      2          6           0        2.227230    0.758464    0.183434
      3          6           0        3.475105    0.159880    0.194577
      4          6           0        3.588188   -1.193271   -0.121943
      5          6           0        2.442869   -1.913111   -0.464140
      6          6           0        1.189988   -1.298282   -0.477782
      7          6           0        1.053933    0.054461   -0.132204
      8          7           0       -0.140047    0.766944   -0.136211
      9          6           0       -1.457080    0.311855   -0.034940
     10          6           0       -2.474299    1.106083   -0.586477
     11          6           0       -3.808255    0.719644   -0.484373
     12          6           0       -4.155265   -0.468511    0.160362
     13          6           0       -3.148773   -1.254267    0.723491
     14          6           0       -1.811744   -0.869250    0.639113
     15          1           0        4.348567    0.761390    0.456761
     16          1           0        4.567724   -1.674946   -0.110316
     17          1           0        2.524823   -2.967730   -0.735350
     18          1           0        0.309399   -1.858401   -0.790131
     19          1           0       -0.026056    1.771087   -0.156669
     20          1           0       -2.205909    2.031212   -1.104188
     21          1           0       -4.585301    1.349923   -0.922877
     22          1           0       -5.201704   -0.773802    0.231973
     23          1           0       -3.408395   -2.174799    1.251375
     24          1           0       -1.043045   -1.466439    1.130431
 ---------------------------------------------------------------------
                    Distance matrix (angstroms):
                    1          2          3          4          5
     1  F    0.000000
     2  C    1.343153   0.000000
     3  C    2.362097   1.384059   0.000000
     4  C    3.628173   2.398903   1.394271   0.000000
     5  C    4.100295   2.757384   2.407636   1.395358   0.000000
     6  C    3.612549   2.396515   2.792859   2.426730   1.395676
     7  C    2.347927   1.404234   2.445398   2.824781   2.431185
     8  N    2.664349   2.388775   3.680662   4.212172   3.736534
     9  C    4.003042   3.717700   4.939861   5.265711   4.510464
    10  C    4.797796   4.776817   6.074599   6.500506   5.771398
    11  C    6.140201   6.072442   7.336323   7.648397   6.782946
    12  C    6.761358   6.499404   7.656278   7.782419   6.783232
    13  C    6.220018   5.765775   6.793770   6.790076   5.754216
    14  C    4.897186   4.378403   5.404395   5.462917   4.517581
    15  H    2.593788   2.138875   1.092470   2.175724   3.410675
    16  H    4.514826   3.389053   2.157165   1.091620   2.167239
    17  H    5.192108   3.849318   3.398491   2.157711   1.092013
    18  H    4.495691   3.387313   3.881341   3.411647   2.158925
    19  H    2.242221   2.493667   3.870076   4.674547   4.445609
    20  H    4.591263   4.788589   6.120670   6.703258   6.130129
    21  H    6.872464   6.927072   8.224053   8.597399   7.762280
    22  H    7.843154   7.585464   8.726979   8.807010   7.760289
    23  H    6.998946   6.442422   7.345074   7.197331   6.103176
    24  H    4.776588   4.067149   4.892281   4.805350   3.859245
                    6          7          8          9         10
     6  C    0.000000
     7  C    1.402800   0.000000
     8  N    2.480085   1.390409   0.000000
     9  C    3.129795   2.526045   1.397117   0.000000
    10  C    4.384038   3.709542   2.401351   1.403469   0.000000
    11  C    5.390223   4.920098   3.684997   2.428231   1.392551
    12  C    5.446786   5.243553   4.211446   2.815549   2.421314
    13  C    4.502203   4.484164   3.725159   2.426887   2.782478
    14  C    3.231395   3.108099   2.464311   1.405398   2.417229
    15  H    3.884874   3.420708   4.527616   5.843748   6.910764
    16  H    3.418481   3.916382   5.303452   6.344393   7.586234
    17  H    2.152947   3.414811   4.626909   5.205939   6.450530
    18  H    1.089372   2.155514   2.742636   2.898409   4.071685
    19  H    3.317062   2.028246   1.010800   2.047439   2.573103
    20  H    4.796877   3.934320   2.608283   2.158755   1.093582
    21  H    6.369070   5.839893   4.551812   3.413471   2.151500
    22  H    6.452329   6.320731   5.303756   3.907953   3.412120
    23  H    4.990329   5.176510   4.611002   3.412577   3.874845
    24  H    2.757002   2.881788   2.721725   2.166067   3.407951
                   11         12         13         14         15
    11  C    0.000000
    12  C    1.395640   0.000000
    13  C    2.406279   1.395548   0.000000
    14  C    2.787986   2.425260   1.393917   0.000000
    15  H    8.211043   8.597422   7.768148   6.375082   0.000000
    16  H    8.719576   8.810181   7.772807   6.473670   2.511043
    17  H    7.332639   7.188322   6.103594   5.009848   4.318971
    18  H    4.867739   4.771630   3.822954   2.742335   4.973221
    19  H    3.939283   4.708150   4.436080   3.285321   4.531348
    20  H    2.161456   3.412871   3.876051   3.406926   6.856396
    21  H    1.092400   2.159870   3.399403   3.880356   9.058906
    22  H    2.164540   1.092412   2.164939   3.415656   9.675486
    23  H    3.398604   2.158598   1.092449   2.151422   8.332051
    24  H    3.877233   3.409224   2.155158   1.090379   5.872524
                   16         17         18         19         20
    16  H    0.000000
    17  H    2.497079   0.000000
    18  H    4.316149   2.478248   0.000000
    19  H    5.742831   5.412785   3.699593   0.000000
    20  H    7.784953   6.892408   4.642682   2.391070   0.000000
    21  H    9.674087   8.320526   5.853977   4.642324   2.481640
    22  H    9.816870   8.090009   5.709055   5.780556   4.316041
    23  H    8.106943   6.307051   4.253215   5.384498   4.968418
    24  H    5.750101   4.297057   2.381449   3.629390   4.310376
                   21         22         23         24
    21  H    0.000000
    22  H    2.494762   0.000000
    23  H    4.305362   2.493578   0.000000
    24  H    4.969461   4.310617   2.472100   0.000000
 Stoichiometry    C12H10FN
 Framework group  C1[X(C12H10FN)]
 Deg. of freedom    66
 Full point group                 C1      NOp   1
 Largest Abelian subgroup         C1      NOp   1
 Largest concise Abelian subgroup C1      NOp   1
                         Standard orientation:                         
 ---------------------------------------------------------------------
 Center     Atomic      Atomic             Coordinates (Angstroms)
 Number     Number       Type             X           Y           Z
 ---------------------------------------------------------------------
      1          9           0        2.099065    2.152434    0.490274
      2          6           0        2.249635    0.850569    0.196105
      3          6           0        3.509960    0.278742    0.210715
      4          6           0        3.653438   -1.070323   -0.110891
      5          6           0        2.525391   -1.813003   -0.461548
      6          6           0        1.259725   -1.225032   -0.478613
      7          6           0        1.093154    0.123009   -0.128061
      8          7           0       -0.115759    0.809829   -0.134803
      9          6           0       -1.423218    0.326277   -0.041718
     10          6           0       -2.454595    1.100933   -0.594795
     11          6           0       -3.780445    0.685649   -0.500672
     12          6           0       -4.104982   -0.512388    0.137447
     13          6           0       -3.084565   -1.278853    0.702100
     14          6           0       -1.755695   -0.865001    0.625711
     15          1           0        4.369120    0.897654    0.479568
     16          1           0        4.642986   -1.531003   -0.096593
     17          1           0        2.631150   -2.864465   -0.736751
     18          1           0        0.392789   -1.802502   -0.797492
     19          1           0       -0.023174    1.816257   -0.150537
     20          1           0       -2.203629    2.033784   -1.107364
     21          1           0       -4.568729    1.301044   -0.940255
     22          1           0       -5.144977   -0.840270    0.202789
     23          1           0       -3.326911   -2.206964    1.224903
     24          1           0       -0.976711   -1.447718    1.118205
 ---------------------------------------------------------------------
 Rotational constants (GHZ):           1.6923843           0.3792262           0.3240480
 Standard basis: def2SVP (5D, 7F)
 There are   260 symmetry adapted cartesian basis functions of A   symmetry.
 There are   246 symmetry adapted basis functions of A   symmetry.
   246 basis functions,   420 primitive gaussians,   260 cartesian basis functions
    49 alpha electrons       49 beta electrons
       nuclear repulsion energy       801.3398939517 Hartrees.
 NAtoms=   24 NActive=   24 NUniq=   24 SFac= 1.00D+00 NAtFMM=   60 NAOKFM=F Big=F
 Integral buffers will be    131072 words long.
 Raffenetti 2 integral format.
 Two-electron integral symmetry is turned on.
 Nuclear repulsion after empirical dispersion term =      801.3262316728 Hartrees.
 One-electron integrals computed using PRISM.
   1 Symmetry operations used in ECPInt.
 ECPInt:  NShTT=    6555 NPrTT=   24083 LenC2=    6161 LenP2D=   16618.
 LDataN:  DoStor=T MaxTD1= 4 Len=   56
 NBasis=   246 RedAO= T EigKep=  2.32D-04  NBF=   246
 NBsUse=   246 1.00D-06 EigRej= -1.00D+00 NBFU=   246
 Initial guess from the checkpoint file:  "prod_3d_1.chk"
 B after Tr=     0.000000   -0.000000   -0.000000
         Rot=    0.999989    0.001968    0.002172   -0.003793 Ang=   0.55 deg.
 ExpMin= 1.22D-01 ExpMax= 2.89D+03 ExpMxC= 4.35D+02 IAcc=3 IRadAn=         5 AccDes= 0.00D+00
 Harris functional with IExCor= 4639 and IRadAn=       5 diagonalized for initial guess.
 HarFok:  IExCor= 4639 AccDes= 0.00D+00 IRadAn=         5 IDoV= 1 UseB2=F ITyADJ=14
 ICtDFT=  3500011 ScaDFX=  1.000000  1.000000  1.000000  1.000000
 FoFCou: FMM=F IPFlag=           0 FMFlag=      100000 FMFlg1=           0
         NFxFlg=           0 DoJE=T BraDBF=F KetDBF=T FulRan=T
         wScrn=  0.000000 ICntrl=       500 IOpCl=  0 I1Cent=   200000004 NGrid=           0
         NMat0=    1 NMatS0=      1 NMatT0=    0 NMatD0=    1 NMtDS0=    0 NMtDT0=    0
 Petite list used in FoFCou.
 Requested convergence on RMS density matrix=1.00D-08 within 128 cycles.
 Requested convergence on MAX density matrix=1.00D-06.
 Requested convergence on             energy=1.00D-06.
 No special actions if energy rises.
 Integral accuracy reduced to 1.0D-05 until final iterations.
 Initial convergence to 1.0D-05 achieved.  Increase integral accuracy.
 SCF Done:  E(RwB97XD) =  -617.244537700     A.U. after   13 cycles
            NFock= 13  Conv=0.90D-08     -V/T= 2.0104
   1 Symmetry operations used in ECPInt.
 ECPInt:  NShTT=    6555 NPrTT=   24083 LenC2=    6161 LenP2D=   16618.
 LDataN:  DoStor=T MaxTD1= 5 Len=  102
 Calling FoFJK, ICntrl=      2127 FMM=F ISym2X=0 I1Cent= 0 IOpClX= 0 NMat=1 NMatS=1 NMatT=0.
 ***** Axes restored to original set *****
 -------------------------------------------------------------------
 Center     Atomic                   Forces (Hartrees/Bohr)
 Number     Number              X              Y              Z
 -------------------------------------------------------------------
      1        9           0.000372116    0.000078134    0.000092004
      2        6           0.002456445   -0.002313668    0.000948789
      3        6           0.000223146    0.002433304    0.000352793
      4        6          -0.001762408   -0.002155409   -0.000898118
      5        6           0.000878203    0.001594137    0.000908311
      6        6           0.001245253    0.000708922   -0.000199843
      7        6          -0.005426287    0.001935254   -0.000461195
      8        7           0.002433016   -0.001463575    0.000626936
      9        6           0.001482648   -0.001089446    0.000628309
     10        6          -0.002127807   -0.000826183   -0.000299919
     11        6           0.000907226   -0.000338494    0.000589065
     12        6           0.000554619   -0.000110449    0.000262206
     13        6          -0.000133452    0.001626348   -0.001311991
     14        6           0.000295271    0.001182511   -0.000530619
     15        1          -0.000989786    0.000079944   -0.000189951
     16        1          -0.000463260    0.000013619   -0.000044602
     17        1          -0.000510364    0.000160083   -0.000048303
     18        1          -0.000968920   -0.000809750    0.000828685
     19        1          -0.000066939    0.000258022   -0.000364444
     20        1          -0.000362000   -0.000519657   -0.000143552
     21        1           0.000192080    0.000189076    0.000018493
     22        1           0.000631145    0.000111856   -0.000094042
     23        1           0.000393257    0.000010089    0.000095168
     24        1           0.000746797   -0.000754666   -0.000764181
 -------------------------------------------------------------------
 Cartesian Forces:  Max     0.005426287 RMS     0.001171942

 GradGradGradGradGradGradGradGradGradGradGradGradGradGradGradGradGradGrad
 Berny optimization.
 Using GEDIIS/GDIIS optimizer.
 FormGI is forming the generalized inverse of G from B-inverse, IUseBI=4.
 Internal  Forces:  Max     0.006422190 RMS     0.001230733
 Search for a local minimum.
 Step number   2 out of a maximum of  130
 All quantities printed in internal units (Hartrees-Bohrs-Radians)
 Mixed Optimization -- RFO/linear search
 Update second derivatives using D2CorX and points    1    2
 DE= -4.84D-03 DEPred=-5.49D-03 R= 8.82D-01
 TightC=F SS=  1.41D+00  RLast= 2.17D-01 DXNew= 5.0454D-01 6.5004D-01
 Trust test= 8.82D-01 RLast= 2.17D-01 DXMaxT set to 5.05D-01
 ITU=  1  0
 Use linear search instead of GDIIS.
     Eigenvalues ---    0.01543   0.01588   0.01728   0.01982   0.02005
     Eigenvalues ---    0.02151   0.02192   0.02233   0.02274   0.02292
     Eigenvalues ---    0.02295   0.02332   0.02340   0.02344   0.02345
     Eigenvalues ---    0.02358   0.02360   0.02360   0.02373   0.02373
     Eigenvalues ---    0.02377   0.15908   0.15984   0.15991   0.15993
     Eigenvalues ---    0.15998   0.15999   0.15999   0.15999   0.16000
     Eigenvalues ---    0.16021   0.20996   0.21999   0.22000   0.22155
     Eigenvalues ---    0.22527   0.23459   0.24020   0.24961   0.24999
     Eigenvalues ---    0.26599   0.35984   0.36279   0.36289   0.36291
     Eigenvalues ---    0.36324   0.36410   0.36514   0.36588   0.36915
     Eigenvalues ---    0.42320   0.42842   0.43234   0.43888   0.44065
     Eigenvalues ---    0.44401   0.44961   0.47082   0.47389   0.48020
     Eigenvalues ---    0.48529   0.49049   0.49138   0.49663   0.52611
     Eigenvalues ---    0.54090
 RFO step:  Lambda=-9.02931871D-04 EMin= 1.54268719D-02
 Quartic linear search produced a step of -0.06139.
 Iteration  1 RMS(Cart)=  0.06452872 RMS(Int)=  0.00084290
 Iteration  2 RMS(Cart)=  0.00154847 RMS(Int)=  0.00003355
 Iteration  3 RMS(Cart)=  0.00000076 RMS(Int)=  0.00003355
 Variable       Old X    -DE/DX   Delta X   Delta X   Delta X     New X
                                 (Linear)    (Quad)   (Total)
    R1        2.53819   0.00006   0.00147  -0.00371  -0.00224   2.53596
    R2        2.61549  -0.00172  -0.00063  -0.00143  -0.00208   2.61342
    R3        2.65362   0.00097  -0.00032   0.00297   0.00265   2.65626
    R4        2.63479   0.00125  -0.00160   0.00664   0.00503   2.63982
    R5        2.06447  -0.00079  -0.00197   0.00308   0.00111   2.06558
    R6        2.63685  -0.00198  -0.00168   0.00043  -0.00124   2.63561
    R7        2.06286  -0.00042  -0.00163   0.00315   0.00151   2.06438
    R8        2.63745  -0.00156  -0.00221   0.00260   0.00040   2.63785
    R9        2.06361  -0.00018  -0.00168   0.00389   0.00222   2.06582
   R10        2.65091  -0.00106  -0.00128   0.00112  -0.00015   2.65076
   R11        2.05862   0.00096  -0.00166   0.00678   0.00512   2.06373
   R12        2.62749  -0.00512   0.00148  -0.01449  -0.01301   2.61448
   R13        2.64017  -0.00238   0.00195  -0.01020  -0.00825   2.63192
   R14        1.91013   0.00026   0.00065  -0.00116  -0.00051   1.90963
   R15        2.65217   0.00046  -0.00109   0.00380   0.00271   2.65488
   R16        2.65582  -0.00249  -0.00133  -0.00158  -0.00291   2.65291
   R17        2.63154  -0.00160  -0.00190   0.00201   0.00010   2.63164
   R18        2.06657  -0.00046  -0.00204   0.00412   0.00208   2.06865
   R19        2.63738  -0.00100  -0.00170   0.00252   0.00082   2.63820
   R20        2.06434  -0.00003  -0.00171   0.00436   0.00264   2.06698
   R21        2.63720  -0.00128  -0.00168   0.00186   0.00018   2.63739
   R22        2.06436  -0.00064  -0.00172   0.00281   0.00109   2.06545
   R23        2.63412  -0.00127  -0.00205   0.00283   0.00079   2.63491
   R24        2.06443  -0.00006  -0.00172   0.00431   0.00259   2.06702
   R25        2.06052   0.00059  -0.00176   0.00610   0.00434   2.06485
    A1        2.09465  -0.00063   0.00119  -0.00580  -0.00461   2.09004
    A2        2.04927   0.00035   0.00169  -0.00344  -0.00175   2.04752
    A3        2.13923   0.00028  -0.00289   0.00918   0.00625   2.14548
    A4        2.08407  -0.00069   0.00111  -0.00516  -0.00408   2.07998
    A5        2.07678  -0.00029  -0.00040  -0.00157  -0.00195   2.07483
    A6        2.12233   0.00099  -0.00071   0.00670   0.00601   2.12834
    A7        2.08262   0.00016   0.00077  -0.00134  -0.00060   2.08202
    A8        2.09277   0.00012   0.00002   0.00085   0.00087   2.09364
    A9        2.10774  -0.00028  -0.00079   0.00057  -0.00022   2.10752
   A10        2.10827   0.00042  -0.00074   0.00296   0.00224   2.11051
   A11        2.09154   0.00032   0.00010   0.00227   0.00236   2.09390
   A12        2.08332  -0.00073   0.00063  -0.00523  -0.00460   2.07872
   A13        2.10535   0.00028  -0.00010   0.00095   0.00080   2.10615
   A14        2.09664  -0.00013   0.00001  -0.00003  -0.00010   2.09654
   A15        2.08066  -0.00014   0.00007  -0.00024  -0.00024   2.08041
   A16        2.04630  -0.00045   0.00185  -0.00611  -0.00432   2.04198
   A17        2.05020   0.00358   0.00011   0.01339   0.01344   2.06364
   A18        2.18550  -0.00311  -0.00195  -0.00636  -0.00838   2.17713
   A19        2.26839  -0.00642  -0.00046  -0.02608  -0.02654   2.24185
   A20        1.99574   0.00323  -0.00026   0.01446   0.01420   2.00994
   A21        2.01680   0.00318   0.00067   0.01174   0.01241   2.02921
   A22        2.06057   0.00331   0.00174   0.00812   0.00981   2.07038
   A23        2.14886  -0.00346  -0.00134  -0.00928  -0.01067   2.13820
   A24        2.07278   0.00017  -0.00038   0.00192   0.00148   2.07425
   A25        2.10416  -0.00012   0.00017  -0.00061  -0.00047   2.10370
   A26        2.07933   0.00035  -0.00028   0.00254   0.00227   2.08159
   A27        2.09967  -0.00024   0.00011  -0.00190  -0.00178   2.09789
   A28        2.10400  -0.00021  -0.00046   0.00058   0.00009   2.10409
   A29        2.08501  -0.00016   0.00051  -0.00257  -0.00204   2.08296
   A30        2.09413   0.00036  -0.00005   0.00193   0.00189   2.09601
   A31        2.07879  -0.00009   0.00085  -0.00264  -0.00181   2.07699
   A32        2.10177   0.00008  -0.00040   0.00149   0.00108   2.10286
   A33        2.10257   0.00001  -0.00045   0.00123   0.00077   2.10334
   A34        2.10812   0.00052  -0.00069   0.00364   0.00296   2.11108
   A35        2.09212   0.00015   0.00005   0.00135   0.00140   2.09352
   A36        2.08283  -0.00067   0.00065  -0.00501  -0.00436   2.07846
   A37        2.09812  -0.00026   0.00052  -0.00263  -0.00216   2.09596
   A38        2.09265  -0.00014  -0.00080   0.00141   0.00056   2.09320
   A39        2.09169   0.00042   0.00026   0.00192   0.00213   2.09382
    D1       -3.12946  -0.00002   0.00135  -0.00591  -0.00460  -3.13406
    D2        0.01709   0.00003   0.00068  -0.00098  -0.00033   0.01676
    D3        0.00369  -0.00030   0.00075  -0.01545  -0.01472  -0.01104
    D4       -3.13295  -0.00025   0.00008  -0.01052  -0.01045   3.13978
    D5        3.10498   0.00021  -0.00093   0.01259   0.01168   3.11666
    D6        0.01289  -0.00013  -0.00110  -0.00646  -0.00765   0.00524
    D7       -0.02837   0.00049  -0.00034   0.02191   0.02159  -0.00678
    D8       -3.12046   0.00014  -0.00051   0.00286   0.00226  -3.11820
    D9        0.01720  -0.00007  -0.00065  -0.00103  -0.00168   0.01552
   D10       -3.13572   0.00011  -0.00054   0.00647   0.00594  -3.12978
   D11       -3.12949  -0.00013   0.00004  -0.00612  -0.00610  -3.13559
   D12        0.00078   0.00005   0.00015   0.00138   0.00151   0.00229
   D13       -0.01266   0.00024   0.00011   0.01022   0.01034  -0.00232
   D14        3.11760   0.00026   0.00036   0.00999   0.01035   3.12795
   D15        3.14035   0.00006   0.00000   0.00266   0.00266  -3.14018
   D16       -0.01257   0.00008   0.00025   0.00242   0.00267  -0.00990
   D17       -0.01295  -0.00007   0.00032  -0.00342  -0.00309  -0.01604
   D18        3.09314   0.00050  -0.00009   0.01884   0.01874   3.11188
   D19        3.13992  -0.00010   0.00007  -0.00323  -0.00315   3.13677
   D20       -0.03718   0.00047  -0.00034   0.01903   0.01868  -0.01850
   D21        0.03258  -0.00029  -0.00016  -0.01231  -0.01243   0.02015
   D22        3.12041   0.00030   0.00009   0.00900   0.00898   3.12939
   D23       -3.07383  -0.00085   0.00025  -0.03438  -0.03406  -3.10790
   D24        0.01400  -0.00026   0.00050  -0.01306  -0.01265   0.00135
   D25       -2.78987  -0.00036  -0.00249  -0.01556  -0.01803  -2.80789
   D26        0.27549  -0.00036  -0.00320  -0.01281  -0.01600   0.25949
   D27        0.40560  -0.00083  -0.00278  -0.03638  -0.03918   0.36642
   D28       -2.81223  -0.00084  -0.00350  -0.03363  -0.03715  -2.84938
   D29       -2.69967  -0.00060  -0.00278  -0.03069  -0.03347  -2.73314
   D30        0.49005  -0.00105  -0.00331  -0.04924  -0.05254   0.43752
   D31        0.51891  -0.00059  -0.00201  -0.03353  -0.03555   0.48335
   D32       -2.57455  -0.00104  -0.00254  -0.05209  -0.05462  -2.62918
   D33       -3.11215   0.00016  -0.00086   0.00457   0.00362  -3.10853
   D34        0.03611   0.00003  -0.00059  -0.00084  -0.00151   0.03460
   D35       -0.01654   0.00048  -0.00037   0.02196   0.02162   0.00508
   D36        3.13172   0.00036  -0.00010   0.01655   0.01649  -3.13497
   D37        3.12146   0.00021   0.00012   0.00581   0.00585   3.12731
   D38        0.02085  -0.00030   0.00054  -0.01409  -0.01361   0.00724
   D39        0.02832  -0.00032  -0.00046  -0.01302  -0.01348   0.01484
[...]
 Alpha virt. eigenvalues --    2.87259   2.88497   2.89208   2.90522   2.90845
 Alpha virt. eigenvalues --    2.91516   2.91998   2.93025   2.93528   2.95101
 Alpha virt. eigenvalues --    2.95471   2.97489   2.97846   2.98220   3.00766
 Alpha virt. eigenvalues --    3.01827   3.03188   3.05093   3.05724   3.07262
 Alpha virt. eigenvalues --    3.10305   3.10896   3.11228   3.13401   3.15800
 Alpha virt. eigenvalues --    3.16323   3.17838   3.19073   3.19344   3.19976
 Alpha virt. eigenvalues --    3.21157   3.21548   3.22513   3.22770   3.23607
 Alpha virt. eigenvalues --    3.24434   3.25885   3.26698   3.27515   3.28400
 Alpha virt. eigenvalues --    3.30349   3.31297   3.32944   3.34120   3.34365
 Alpha virt. eigenvalues --    3.34788   3.35599   3.36369   3.38218   3.39411
 Alpha virt. eigenvalues --    3.41381   3.42041   3.42858   3.44451   3.45110
 Alpha virt. eigenvalues --    3.45757   3.46181   3.47199   3.47764   3.48707
 Alpha virt. eigenvalues --    3.50483   3.50967   3.51399   3.53670   3.54562
 Alpha virt. eigenvalues --    3.55271   3.56064   3.56960   3.58222   3.59426
 Alpha virt. eigenvalues --    3.60155   3.61087   3.61981   3.62249   3.63863
 Alpha virt. eigenvalues --    3.64883   3.67174   3.71222   3.74110   3.74743
 Alpha virt. eigenvalues --    3.77134   3.78624   3.82305   3.83891   3.85498
 Alpha virt. eigenvalues --    3.86768   3.89238   3.90426   3.93578   3.97885
 Alpha virt. eigenvalues --    3.99003   4.00519   4.03290   4.06061   4.07520
 Alpha virt. eigenvalues --    4.09104   4.10196   4.11925   4.12657   4.13789
 Alpha virt. eigenvalues --    4.16494   4.16977   4.17410   4.18451   4.21062
 Alpha virt. eigenvalues --    4.22306   4.24985   4.27026   4.28102   4.28599
 Alpha virt. eigenvalues --    4.29114   4.29408   4.31038   4.31340   4.32826
 Alpha virt. eigenvalues --    4.33656   4.35960   4.37202   4.37685   4.40074
 Alpha virt. eigenvalues --    4.40304   4.46244   4.52771   4.54378   4.55625
 Alpha virt. eigenvalues --    4.66533   4.66966   4.69525   4.71061   4.73856
 Alpha virt. eigenvalues --    4.75433   4.79084   4.81456   4.82636   4.83408
 Alpha virt. eigenvalues --    4.89529   4.92937   4.94566   4.96807   4.97685
 Alpha virt. eigenvalues --    5.00485   5.06306   5.09828   5.15586   5.19410
 Alpha virt. eigenvalues --    5.23289   5.23422   5.25744   5.27177   5.34190
 Alpha virt. eigenvalues --    5.35667   5.37162   5.38473   5.42493   5.50220
 Alpha virt. eigenvalues --    5.53467   5.60261   5.60820   5.67267   5.71800
 Alpha virt. eigenvalues --    5.92607   5.96991   6.14134   6.24785   6.95139
 Alpha virt. eigenvalues --    6.97219   7.06579   7.16139   7.32124   7.50915
 Alpha virt. eigenvalues --    7.67550   8.43576   8.63001   8.84505   9.07289
 Alpha virt. eigenvalues --    9.11128  22.18280  22.25203  22.68269  22.68961
 Alpha virt. eigenvalues --   22.69250  22.73844  22.81912  22.91291  22.93781
 Alpha virt. eigenvalues --   22.96708  23.31694  23.44227  32.86130  57.46510
          Condensed to atoms (all electrons):
               1          2          3          4          5          6
     1  F    9.068046   0.245223  -0.046579   0.008204  -0.001741   0.009813
     2  C    0.245223   4.907888   0.398930   0.049202  -0.108915   0.101797
     3  C   -0.046579   0.398930   5.116094   0.367918   0.039777  -0.136129
     4  C    0.008204   0.049202   0.367918   5.007336   0.427680   0.061781
     5  C   -0.001741  -0.108915   0.039777   0.427680   4.947405   0.382163
     6  C    0.009813   0.101797  -0.136129   0.061781   0.382163   5.306184
     7  C   -0.072302   0.288544   0.038811  -0.114222   0.039129   0.256189
     8  N    0.000196  -0.070745   0.012691  -0.001435   0.003494  -0.048597
     9  C    0.001881   0.009420   0.002384  -0.000682  -0.000057  -0.001824
    10  C   -0.000810  -0.003823  -0.000503   0.000171  -0.000375   0.007699
    11  C   -0.000014  -0.000252  -0.000041   0.000014  -0.000059   0.001108
    12  C    0.000000   0.000043   0.000012  -0.000006   0.000034  -0.000745
    13  C    0.000002  -0.000258  -0.000051   0.000026   0.000069   0.004459
    14  C    0.000292   0.001638   0.001789  -0.001149   0.006243  -0.015023
    15  H    0.002101  -0.062179   0.437478  -0.055160   0.012179  -0.005764
    16  H   -0.000097   0.011353  -0.052280   0.440869  -0.057277   0.013685
    17  H    0.000007  -0.002442   0.009450  -0.053539   0.438303  -0.054959
    18  H   -0.000018  -0.000135  -0.000632   0.004739  -0.023087   0.419618
    19  H    0.014377  -0.020871  -0.001158   0.000052  -0.000419   0.013050
    20  H   -0.000069  -0.000199   0.000003  -0.000000   0.000005   0.000101
    21  H    0.000000   0.000002   0.000000  -0.000000   0.000000  -0.000006
    22  H    0.000000   0.000000   0.000000  -0.000000   0.000000  -0.000004
    23  H   -0.000000   0.000004  -0.000001   0.000001  -0.000012   0.000114
    24  H    0.000041  -0.000635   0.000352  -0.000262   0.001552  -0.008048
               7          8          9         10         11         12
     1  F   -0.072302   0.000196   0.001881  -0.000810  -0.000014   0.000000
     2  C    0.288544  -0.070745   0.009420  -0.003823  -0.000252   0.000043
     3  C    0.038811   0.012691   0.002384  -0.000503  -0.000041   0.000012
     4  C   -0.114222  -0.001435  -0.000682   0.000171   0.000014  -0.000006
     5  C    0.039129   0.003494  -0.000057  -0.000375  -0.000059   0.000034
     6  C    0.256189  -0.048597  -0.001824   0.007699   0.001108  -0.000745
     7  C    5.203200   0.312673  -0.081974   0.008836   0.001968  -0.000775
     8  N    0.312673   6.522070   0.236525  -0.021373   0.012707   0.001138
     9  C   -0.081974   0.236525   4.980983   0.377568  -0.023204  -0.083528
    10  C    0.008836  -0.021373   0.377568   5.149516   0.435104   0.015002
    11  C    0.001968   0.012707  -0.023204   0.435104   4.915310   0.454963
    12  C   -0.000775   0.001138  -0.083528   0.015002   0.454963   4.947118
    13  C    0.000513   0.001855  -0.001567  -0.074071   0.011380   0.452912
    14  C   -0.014360  -0.030852   0.347610   0.025090  -0.099542   0.034631
    15  H    0.021157  -0.000118   0.000024   0.000001   0.000000  -0.000000
    16  H   -0.004904   0.000010  -0.000004   0.000000   0.000000  -0.000000
    17  H    0.013080  -0.000183   0.000009   0.000004  -0.000001   0.000001
    18  H   -0.036439   0.002037   0.003009  -0.000337   0.000204  -0.000150
    19  H   -0.042079   0.399152  -0.058238   0.001386   0.001699  -0.000134
    20  H    0.000899   0.003631  -0.077405   0.440319  -0.027810   0.008304
    21  H   -0.000001  -0.000286   0.014490  -0.054813   0.437794  -0.056474
    22  H   -0.000004   0.000000  -0.004314   0.012621  -0.056989   0.444837
    23  H    0.000051  -0.000223   0.014617  -0.002916   0.010010  -0.055207
    24  H   -0.000386   0.003268  -0.050790   0.002996  -0.001576   0.005874
              13         14         15         16         17         18
     1  F    0.000002   0.000292   0.002101  -0.000097   0.000007  -0.000018
     2  C   -0.000258   0.001638  -0.062179   0.011353  -0.002442  -0.000135
     3  C   -0.000051   0.001789   0.437478  -0.052280   0.009450  -0.000632
     4  C    0.000026  -0.001149  -0.055160   0.440869  -0.053539   0.004739
     5  C    0.000069   0.006243   0.012179  -0.057277   0.438303  -0.023087
     6  C    0.004459  -0.015023  -0.005764   0.013685  -0.054959   0.419618
     7  C    0.000513  -0.014360   0.021157  -0.004904   0.013080  -0.036439
     8  N    0.001855  -0.030852  -0.000118   0.000010  -0.000183   0.002037
     9  C   -0.001567   0.347610   0.000024  -0.000004   0.000009   0.003009
    10  C   -0.074071   0.025090   0.000001   0.000000   0.000004  -0.000337
    11  C    0.011380  -0.099542   0.000000   0.000000  -0.000001   0.000204
    12  C    0.452912   0.034631  -0.000000  -0.000000   0.000001  -0.000150
    13  C    4.896924   0.420112  -0.000000   0.000000  -0.000010   0.000844
    14  C    0.420112   5.277517  -0.000000  -0.000003   0.000101  -0.007353
    15  H   -0.000000  -0.000000   0.523401  -0.006756  -0.000111   0.000015
    16  H    0.000000  -0.000003  -0.006756   0.537939  -0.006663  -0.000091
    17  H   -0.000010   0.000101  -0.000111  -0.006663   0.539824  -0.005390
    18  H    0.000844  -0.007353   0.000015  -0.000091  -0.005390   0.471837
    19  H    0.000030   0.003602  -0.000058   0.000005   0.000007  -0.000212
    20  H   -0.001995   0.005649   0.000000  -0.000000   0.000000   0.000000
    21  H    0.010059  -0.002790  -0.000000  -0.000000   0.000000  -0.000002
    22  H   -0.059300   0.013418   0.000000  -0.000000   0.000000   0.000000
    23  H    0.439992  -0.058013  -0.000000   0.000000  -0.000001   0.000078
    24  H   -0.026183   0.431634  -0.000001  -0.000001   0.000088  -0.006661
              19         20         21         22         23         24
     1  F    0.014377  -0.000069   0.000000   0.000000  -0.000000   0.000041
     2  C   -0.020871  -0.000199   0.000002   0.000000   0.000004  -0.000635
     3  C   -0.001158   0.000003   0.000000   0.000000  -0.000001   0.000352
     4  C    0.000052  -0.000000  -0.000000  -0.000000   0.000001  -0.000262
     5  C   -0.000419   0.000005   0.000000   0.000000  -0.000012   0.001552
     6  C    0.013050   0.000101  -0.000006  -0.000004   0.000114  -0.008048
     7  C   -0.042079   0.000899  -0.000001  -0.000004   0.000051  -0.000386
     8  N    0.399152   0.003631  -0.000286   0.000000  -0.000223   0.003268
     9  C   -0.058238  -0.077405   0.014490  -0.004314   0.014617  -0.050790
    10  C    0.001386   0.440319  -0.054813   0.012621  -0.002916   0.002996
    11  C    0.001699  -0.027810   0.437794  -0.056989   0.010010  -0.001576
    12  C   -0.000134   0.008304  -0.056474   0.444837  -0.055207   0.005874
    13  C    0.000030  -0.001995   0.010059  -0.059300   0.439992  -0.026183
    14  C    0.003602   0.005649  -0.002790   0.013418  -0.058013   0.431634
    15  H   -0.000058   0.000000  -0.000000   0.000000  -0.000000  -0.000001
    16  H    0.000005  -0.000000  -0.000000  -0.000000   0.000000  -0.000001
    17  H    0.000007   0.000000   0.000000   0.000000  -0.000001   0.000088
    18  H   -0.000212   0.000000  -0.000002   0.000000   0.000078  -0.006661
    19  H    0.448512   0.002775  -0.000034  -0.000003   0.000019  -0.000424
    20  H    0.002775   0.534451  -0.007857  -0.000119   0.000038  -0.000175
    21  H   -0.000034  -0.007857   0.546539  -0.006594  -0.000175   0.000039
    22  H   -0.000003  -0.000119  -0.006594   0.544648  -0.006952  -0.000068
    23  H    0.000019   0.000038  -0.000175  -0.006952   0.543706  -0.006113
    24  H   -0.000424  -0.000175   0.000039  -0.000068  -0.006113   0.483568
 Mulliken charges:
               1
     1  F   -0.228553
     2  C    0.256411
     3  C   -0.188317
     4  C   -0.141537
     5  C   -0.106089
     6  C   -0.306663
     7  C    0.182396
     8  N   -0.337633
     9  C    0.395070
    10  C   -0.317292
    11  C   -0.072772
    12  C   -0.167849
    13  C   -0.075742
    14  C   -0.340240
    15  H    0.133793
    16  H    0.124215
    17  H    0.122427
    18  H    0.178126
    19  H    0.238965
    20  H    0.119454
    21  H    0.120110
    22  H    0.118821
    23  H    0.120985
    24  H    0.171912
 Sum of Mulliken charges =  -0.00000
 Mulliken charges with hydrogens summed into heavy atoms:
               1
     1  F   -0.228553
     2  C    0.256411
     3  C   -0.054523
     4  C   -0.017321
     5  C    0.016338
     6  C   -0.128536
     7  C    0.182396
     8  N   -0.098668
     9  C    0.395070
    10  C   -0.197838
    11  C    0.047338
    12  C   -0.049028
    13  C    0.045243
    14  C   -0.168328
 Electronic spatial extent (au):  <R**2>=           3252.0501
 Charge=              0.0000 electrons
 Dipole moment (field-independent basis, Debye):
    X=             -0.1464    Y=             -0.3871    Z=             -0.3169  Tot=              0.5213
 Quadrupole moment (field-independent basis, Debye-Ang):
   XX=            -72.8960   YY=            -75.3870   ZZ=            -84.9041
   XY=             -2.3453   XZ=              0.9597   YZ=             -2.7525
 Traceless Quadrupole moment (field-independent basis, Debye-Ang):
   XX=              4.8330   YY=              2.3421   ZZ=             -7.1751
   XY=             -2.3453   XZ=              0.9597   YZ=             -2.7525
 Octapole moment (field-independent basis, Debye-Ang**2):
  XXX=             20.6374  YYY=             10.9159  ZZZ=              5.3852  XYY=             -0.4252
  XXY=             -1.0961  XXZ=              1.1651  XZZ=              3.6819  YZZ=              7.3801
  YYZ=             -3.9988  XYZ=             11.6221
 Hexadecapole moment (field-independent basis, Debye-Ang**3):
 XXXX=          -3151.2031 YYYY=           -692.9842 ZZZZ=           -197.6191 XXXY=             27.0851
 XXXZ=             50.5178 YYYX=              3.8276 YYYZ=             -2.0996 ZZZX=             13.6759
 ZZZY=              3.6936 XXYY=           -674.1227 XXZZ=           -663.9988 YYZZ=           -149.1350
 XXYZ=            -23.7436 YYXZ=             -9.9142 ZZXY=             16.9342
 N-N= 8.027416348192D+02 E-N=-3.046135499152D+03  KE= 6.147196592551D+02
 Breneman (CHELPG) radii used.
 Read replacement radii for each type of atom:
 Atom Element Radius
    1     9    1.70
    2     6    1.50
    3     6    1.50
    4     6    1.50
    5     6    1.50
    6     6    1.50
    7     6    1.50
    8     7    1.70
    9     6    1.50
   10     6    1.50
   11     6    1.50
   12     6    1.50
   13     6    1.50
   14     6    1.50
   15     1    1.45
   16     1    1.45
   17     1    1.45
   18     1    1.45
   19     1    1.45
   20     1    1.45
   21     1    1.45
   22     1    1.45
   23     1    1.45
   24     1    1.45
 Generate Potential Derived Charges using the Breneman model, NDens= 1.
 Grid spacing= 0.300 Box extension= 2.800
 NStep X,Y,Z=   53     37     28   Total possible points=       54908
 Number of Points to Fit=   15736

 **********************************************************************

            Electrostatic Properties Using The SCF Density.

 **********************************************************************

       Atomic Center    1 is at   2.125609  2.150244  0.489504
       Atomic Center    2 is at   2.253957  0.845165  0.195765
       Atomic Center    3 is at   3.505113  0.258391  0.205269
       Atomic Center    4 is at   3.625763 -1.095256 -0.114238
       Atomic Center    5 is at   2.485798 -1.818387 -0.455275
       Atomic Center    6 is at   1.230407 -1.211316 -0.474429
       Atomic Center    7 is at   1.082632  0.140320 -0.131730
       Atomic Center    8 is at  -0.114310  0.837569 -0.140248
       Atomic Center    9 is at  -1.415993  0.344461 -0.046268
       Atomic Center   10 is at  -2.463252  1.108790 -0.585795
       Atomic Center   11 is at  -3.782108  0.680714 -0.478950
       Atomic Center   12 is at  -4.086887 -0.525516  0.151474
       Atomic Center   13 is at  -3.051201 -1.285815  0.691486
       Atomic Center   14 is at  -1.728371 -0.857853  0.606809
       Atomic Center   15 is at   4.369384  0.869822  0.469774
       Atomic Center   16 is at   4.606437 -1.573272 -0.102554
       Atomic Center   17 is at   2.568100 -2.873382 -0.724098
       Atomic Center   18 is at   0.354128 -1.785620 -0.775685
       Atomic Center   19 is at  -0.021217  1.843665 -0.175467
       Atomic Center   20 is at  -2.230504  2.045807 -1.098165
       Atomic Center   21 is at  -4.579619  1.293833 -0.904730
       Atomic Center   22 is at  -5.121162 -0.866151  0.225513
       Atomic Center   23 is at  -3.273000 -2.224491  1.204496
       Atomic Center   24 is at  -0.938000 -1.447577  1.072415
   15736 points will be used for fitting atomic charges
 Fitting point charges to electrostatic potential
 Charges from ESP fit, RMS=   0.00414 RRMS=   0.43410:
 ESP charges:
               1
     1  F   -0.200683
     2  C    0.160988
     3  C   -0.166476
     4  C   -0.139260
     5  C   -0.114439
     6  C   -0.207618
     7  C    0.306623
     8  N   -0.658922
     9  C    0.426974
    10  C   -0.291501
    11  C   -0.023450
    12  C   -0.172638
    13  C   -0.069057
    14  C   -0.206815
    15  H    0.138512
    16  H    0.107151
    17  H    0.111348
    18  H    0.119740
    19  H    0.357845
    20  H    0.126779
    21  H    0.089127
    22  H    0.102711
    23  H    0.100453
    24  H    0.102607
 Sum of ESP charges =  -0.00000
 ESP charges with hydrogens summed into heavy atoms:
               1
     1  F   -0.200683
     2  C    0.160988
     3  C   -0.027964
     4  C   -0.032109
     5  C   -0.003091
     6  C   -0.087878
     7  C    0.306623
     8  N   -0.301077
     9  C    0.426974
    10  C   -0.164721
    11  C    0.065678
    12  C   -0.069928
    13  C    0.031396
    14  C   -0.104208
 Charge=  -0.00000 Dipole=    -0.1507    -0.3783    -0.3238 Tot=     0.5203
 -----------------------------------------------------------------

              Electrostatic Properties (Atomic Units)

 -----------------------------------------------------------------
    Center     Electric         -------- Electric Field --------
               Potential          X             Y             Z
 -----------------------------------------------------------------
    1 Atom    -26.576629
    2 Atom    -14.685432
    3 Atom    -14.760366
    4 Atom    -14.766004
    5 Atom    -14.764365
    6 Atom    -14.763111
    7 Atom    -14.711816
    8 Atom    -18.351698
    9 Atom    -14.716479
   10 Atom    -14.767340
   11 Atom    -14.764989
   12 Atom    -14.772815
   13 Atom    -14.765367
   14 Atom    -14.768558
   15 Atom     -1.090238
   16 Atom     -1.103385
   17 Atom     -1.104065
   18 Atom     -1.098343
   19 Atom     -1.018172
   20 Atom     -1.098472
   21 Atom     -1.104578
   22 Atom     -1.108413
   23 Atom     -1.105643
   24 Atom     -1.102164
 -----------------------------------------------------------------
 Unable to Open any file for archive entry.
 1\1\GINC-NOTCH241\SP\RwB97XD\def2TZVP\C12H10F1N1\U1366379\17-Feb-2026\
 0\\#N Guess=Read Geom=Check Integral(Ultrafine) Density Pop=(ChelpG,Re
 adRadii) NMR wB97XD def2TZVP\\prod_3d_1\\0,1\F,0,2.129558043,2.0693996
 456,0.4742925944\C,0,2.2316718736,0.7602798056,0.1883483148\C,0,3.4710
 6697,0.1490782253,0.1992487743\C,0,3.5644812791,-1.2086050493,-0.11215
 10471\C,0,2.4098805518,-1.9112431883,-0.4467299769\C,0,1.1666317054,-1
 .2797240782,-0.4673980584\C,0,1.046102993,0.0766233272,-0.1327455974\N
 ,0,-0.1369155557,0.79721601,-0.1434347055\C,0,-1.4478610738,0.33039006
 88,-0.0441320544\C,0,-2.4809064682,1.1118616511,-0.5864949097\C,0,-3.8
 07719709,0.7104700588,-0.4746976765\C,0,-4.1349639081,-0.4856604711,0.
 1636596056\C,0,-3.1134083082,-1.2628719093,0.7065021471\C,0,-1.7825831
 498,-0.861537883,0.6168658799\H,0,4.3476881315,0.744995042,0.458468681
 3\H,0,4.5355888486,-1.7057385661,-0.0992616733\H,0,2.4709208145,-2.969
 2740806,-0.7092136189\H,0,0.2786665734,-1.8385103053,-0.7635748646\H,0
 ,-0.0241283968,1.8010530713,-0.1849958448\H,0,-2.2307495701,2.04097421
 57,-1.1050200543\H,0,-4.5938247783,1.3365460676,-0.9028271472\H,0,-5.1
 755940273,-0.8054268019,0.2416127828\H,0,-3.3526505978,-2.1938544917,1
 .225658113\H,0,-1.0030822406,-1.4638403642,1.0846903357\\Version=ES64L
 -G16RevC.01\State=1-A\HF=-617.9101219\RMSD=3.096e-09\Dipole=-0.0608318
 ,-0.1519088,-0.1236545\Quadrupole=3.5264703,1.7851434,-5.3116137,-1.77
 85687,0.6673241,-2.1001489\PG=C01 [X(C12H10F1N1)]\\@
 The archive entry for this job was punched.


 FIREWORKS ENDED
 AND SPECTATORS GONE AWAY....
 AH, HOW VAST AND DARK
                     SHIKI
 Job cpu time:       0 days  0 hours 44 minutes  4.6 seconds.
 Elapsed time:       0 days  0 hours  5 minutes 40.9 seconds.
 File lengths (MBytes):  RWF=    154 Int=      0 D2E=      0 Chk=     24 Scr=      2
 Normal termination of Gaussian 16 at Tue Feb 17 16:05:34 2026.
