 Entering Gaussian System, Link 0=g16
 Input=prod_5d_4.com
 Output=prod_5d_4.log
 Initial command:
 /uufs/chpc.utah.edu/sys/installdir/gaussian16/C01/AVX/g16/l1.exe "/scratch/general/vast/u1366379/GAUSSSCRDIR/11028643-notchpeak.peaks/Gau-3402193.inp" -scrdir="/scratch/general/vast/u1366379/GAUSSSCRDIR/11028643-notchpeak.peaks/"
 Entering Link 1 = /uufs/chpc.utah.edu/sys/installdir/gaussian16/C01/AVX/g16/l1.exe PID=   3402197.
  
 Copyright (c) 1988-2019, Gaussian, Inc.  All Rights Reserved.
  
 This is part of the Gaussian(R) 16 program.  It is based on
 the Gaussian(R) 09 system (copyright 2009, Gaussian, Inc.),
 the Gaussian(R) 03 system (copyright 2003, Gaussian, Inc.),
 the Gaussian(R) 98 system (copyright 1998, Gaussian, Inc.),
 the Gaussian(R) 94 system (copyright 1995, Gaussian, Inc.),
 the Gaussian 92(TM) system (copyright 1992, Gaussian, Inc.),
 the Gaussian 90(TM) system (copyright 1990, Gaussian, Inc.),
 the Gaussian 88(TM) system (copyright 1988, Gaussian, Inc.),
 the Gaussian 86(TM) system (copyright 1986, Carnegie Mellon
 University), and the Gaussian 82(TM) system (copyright 1983,
 Carnegie Mellon University). Gaussian is a federally registered
 trademark of Gaussian, Inc.
  
 This software contains proprietary and confidential information,
 including trade secrets, belonging to Gaussian, Inc.
  
 This software is provided under written license and may be
 used, copied, transmitted, or stored only in accord with that
 written license.
  
 The following legend is applicable only to US Government
 contracts under FAR:
  
                    RESTRICTED RIGHTS LEGEND
  
 Use, reproduction and disclosure by the US Government is
 subject to restrictions as set forth in subparagraphs (a)
 and (c) of the Commercial Computer Software - Restricted
 Rights clause in FAR 52.227-19.
  
 Gaussian, Inc.
 340 Quinnipiac St., Bldg. 40, Wallingford CT 06492
  
  
 ---------------------------------------------------------------
 Warning -- This program may not be used in any manner that
 competes with the business of Gaussian, Inc. or will provide
 assistance to any competitor of Gaussian, Inc.  The licensee
 of this program is prohibited from giving any competitor of
 Gaussian, Inc. access to this program.  By using this program,
 the user acknowledges that Gaussian, Inc. is engaged in the
 business of creating and licensing software in the field of
 computational chemistry and represents and warrants to the
 licensee that it is not a competitor of Gaussian, Inc. and that
 it will not use this program in any manner prohibited above.
 ---------------------------------------------------------------
  

 Cite this work as:
 Gaussian 16, Revision C.01,
 M. J. Frisch, G. W. Trucks, H. B. Schlegel, G. E. Scuseria, 
 M. A. Robb, J. R. Cheeseman, G. Scalmani, V. Barone, 
 G. A. Petersson, H. Nakatsuji, X. Li, M. Caricato, A. V. Marenich, 
 J. Bloino, B. G. Janesko, R. Gomperts, B. Mennucci, H. P. Hratchian, 
 J. V. Ortiz, A. F. Izmaylov, J. L. Sonnenberg, D. Williams-Young, 
 F. Ding, F. Lipparini, F. Egidi, J. Goings, B. Peng, A. Petrone, 
 T. Henderson, D. Ranasinghe, V. G. Zakrzewski, J. Gao, N. Rega, 
 G. Zheng, W. Liang, M. Hada, M. Ehara, K. Toyota, R. Fukuda, 
 J. Hasegawa, M. Ishida, T. Nakajima, Y. Honda, O. Kitao, H. Nakai, 
 T. Vreven, K. Throssell, J. A. Montgomery, Jr., J. E. Peralta, 
 F. Ogliaro, M. J. Bearpark, J. J. Heyd, E. N. Brothers, K. N. Kudin, 
 V. N. Staroverov, T. A. Keith, R. Kobayashi, J. Normand, 
 K. Raghavachari, A. P. Rendell, J. C. Burant, S. S. Iyengar, 
 J. Tomasi, M. Cossi, J. M. Millam, M. Klene, C. Adamo, R. Cammi, 
 J. W. Ochterski, R. L. Martin, K. Morokuma, O. Farkas, 
 J. B. Foresman, and D. J. Fox, Gaussian, Inc., Wallingford CT, 2019.
 
 ******************************************
 Gaussian 16:  ES64L-G16RevC.01  3-Jul-2019
                17-Feb-2026 
 ******************************************
 %NProcShared=8
 Will use up to    8 processors via shared memory.
 %Mem=8GB
 %chk=prod_5d_4.chk
 ------------------------------------------------------
 #N OPT FREQ=NORAMAN Integral(Ultrafine) wB97XD def2SVP
 ------------------------------------------------------
 1/18=20,19=15,26=4,38=1/1,3;
 2/9=110,12=2,17=6,18=5,40=1/2;
 3/5=43,7=101,11=2,25=1,30=1,71=1,74=-58,75=-5/1,2,3;
 4//1;
 5/5=2,38=5/2;
 6/7=2,8=2,9=2,10=2,28=1/1;
 7//1,2,3,16;
 1/18=20,19=15,26=4/3(2);
 2/9=110/2;
 99//99;
 2/9=110/2;
 3/5=43,7=101,11=2,25=1,30=1,71=1,74=-58,75=-5/1,2,3;
 4/5=5,16=3,69=1/1;
 5/5=2,38=5/2;
 7//1,2,3,16;
 1/18=20,19=15,26=4/3(-5);
 2/9=110/2;
 6/7=2,8=2,9=2,10=2,19=2,28=1/1;
 99/9=1/99;
 ---------
 prod_5d_4
 ---------
 Symbolic Z-matrix:
 Charge =  0 Multiplicity = 1
 C                    -4.48203   1.39051   0.17781 
 C                    -3.25652   0.55448   0.30868 
 C                    -2.06107   0.96696  -0.25404 
 C                    -0.90426   0.19283  -0.16252 
 N                     0.32335   0.61556  -0.75119 
 C                     0.2998    1.66126  -1.77373 
 C                     1.59043   0.07405  -0.35472 
 C                     2.54403  -0.29613  -1.30342 
 C                     3.7601   -0.8113   -0.91372 
 C                     4.05088  -0.96564   0.42814 
 C                     3.11887  -0.60258   1.38114 
 C                     1.90174  -0.08779   0.99544 
 C                    -0.98399  -1.03004   0.50155 
 C                    -2.16879  -1.4556    1.0565 
 C                    -3.30067  -0.67035   0.96099 
 H                    -5.17085   1.2132    1.00502 
 H                    -5.00699   1.16513  -0.75155 
 H                    -4.23484   2.45313   0.17568 
 H                    -2.02868   1.91033  -0.76693 
 H                     0.00347   2.61051  -1.33132 
 H                     1.28506   1.79275  -2.21615 
 H                    -0.4025    1.39895  -2.56303 
 H                     2.30743  -0.19847  -2.34851 
 H                     4.48583  -1.09807  -1.65736 
 H                     5.00354  -1.36886   0.73099 
 H                     3.34611  -0.71992   2.42824 
 H                     1.17805   0.21178   1.73347 
 H                    -0.10741  -1.65097   0.55849 
 H                    -2.21505  -2.40598   1.56295 
 H                    -4.22998  -1.00551   1.38928 
 

 GradGradGradGradGradGradGradGradGradGradGradGradGradGradGradGradGradGrad
 Berny optimization.
 Initialization pass.
                           ----------------------------
                           !    Initial Parameters    !
                           ! (Angstroms and Degrees)  !
 --------------------------                            --------------------------
 ! Name  Definition              Value          Derivative Info.                !
 --------------------------------------------------------------------------------
 ! R1    R(1,2)                  1.4893         estimate D2E/DX2                !
 ! R2    R(1,16)                 1.091          estimate D2E/DX2                !
 ! R3    R(1,17)                 1.0909         estimate D2E/DX2                !
 ! R4    R(1,18)                 1.091          estimate D2E/DX2                !
 ! R5    R(2,3)                  1.3842         estimate D2E/DX2                !
 ! R6    R(2,15)                 1.3884         estimate D2E/DX2                !
 ! R7    R(3,4)                  1.3949         estimate D2E/DX2                !
 ! R8    R(3,19)                 1.0743         estimate D2E/DX2                !
 ! R9    R(4,5)                  1.4256         estimate D2E/DX2                !
 ! R10   R(4,13)                 1.3938         estimate D2E/DX2                !
 ! R11   R(5,6)                  1.4627         estimate D2E/DX2                !
 ! R12   R(5,7)                  1.4338         estimate D2E/DX2                !
 ! R13   R(6,20)                 1.0884         estimate D2E/DX2                !
 ! R14   R(6,21)                 1.088          estimate D2E/DX2                !
 ! R15   R(6,22)                 1.0886         estimate D2E/DX2                !
 ! R16   R(7,8)                  1.3951         estimate D2E/DX2                !
 ! R17   R(7,12)                 1.395          estimate D2E/DX2                !
 ! R18   R(8,9)                  1.377          estimate D2E/DX2                !
 ! R19   R(8,23)                 1.076          estimate D2E/DX2                !
 ! R20   R(9,10)                 1.3817         estimate D2E/DX2                !
 ! R21   R(9,24)                 1.0779         estimate D2E/DX2                !
 ! R22   R(10,11)                1.3815         estimate D2E/DX2                !
 ! R23   R(10,25)                1.0779         estimate D2E/DX2                !
 ! R24   R(11,12)                1.3767         estimate D2E/DX2                !
 ! R25   R(11,26)                1.0779         estimate D2E/DX2                !
 ! R26   R(12,27)                1.0762         estimate D2E/DX2                !
 ! R27   R(13,14)                1.3758         estimate D2E/DX2                !
 ! R28   R(13,28)                1.0757         estimate D2E/DX2                !
 ! R29   R(14,15)                1.3809         estimate D2E/DX2                !
 ! R30   R(14,29)                1.0779         estimate D2E/DX2                !
 ! R31   R(15,30)                1.0767         estimate D2E/DX2                !
 ! A1    A(2,1,16)             111.2044         estimate D2E/DX2                !
 ! A2    A(2,1,17)             110.7854         estimate D2E/DX2                !
 ! A3    A(2,1,18)             111.1305         estimate D2E/DX2                !
 ! A4    A(16,1,17)            107.9715         estimate D2E/DX2                !
 ! A5    A(16,1,18)            107.628          estimate D2E/DX2                !
 ! A6    A(17,1,18)            107.9743         estimate D2E/DX2                !
 ! A7    A(1,2,3)              120.51           estimate D2E/DX2                !
 ! A8    A(1,2,15)             120.687          estimate D2E/DX2                !
 ! A9    A(3,2,15)             118.7743         estimate D2E/DX2                !
 ! A10   A(2,3,4)              121.613          estimate D2E/DX2                !
 ! A11   A(2,3,19)             118.8048         estimate D2E/DX2                !
 ! A12   A(4,3,19)             119.5811         estimate D2E/DX2                !
 ! A13   A(3,4,5)              121.4984         estimate D2E/DX2                !
 ! A14   A(3,4,13)             118.0803         estimate D2E/DX2                !
 ! A15   A(5,4,13)             120.4083         estimate D2E/DX2                !
 ! A16   A(4,5,6)              119.1297         estimate D2E/DX2                !
 ! A17   A(4,5,7)              122.331          estimate D2E/DX2                !
 ! A18   A(6,5,7)              118.5228         estimate D2E/DX2                !
 ! A19   A(5,6,20)             110.1039         estimate D2E/DX2                !
 ! A20   A(5,6,21)             110.8594         estimate D2E/DX2                !
 ! A21   A(5,6,22)             110.181          estimate D2E/DX2                !
 ! A22   A(20,6,21)            107.8445         estimate D2E/DX2                !
 ! A23   A(20,6,22)            109.2221         estimate D2E/DX2                !
 ! A24   A(21,6,22)            108.5726         estimate D2E/DX2                !
 ! A25   A(5,7,8)              121.0776         estimate D2E/DX2                !
 ! A26   A(5,7,12)             120.5732         estimate D2E/DX2                !
 ! A27   A(8,7,12)             118.3481         estimate D2E/DX2                !
 ! A28   A(7,8,9)              120.6945         estimate D2E/DX2                !
 ! A29   A(7,8,23)             119.0845         estimate D2E/DX2                !
 ! A30   A(9,8,23)             120.2012         estimate D2E/DX2                !
 ! A31   A(8,9,10)             120.1665         estimate D2E/DX2                !
 ! A32   A(8,9,24)             119.9257         estimate D2E/DX2                !
 ! A33   A(10,9,24)            119.9074         estimate D2E/DX2                !
 ! A34   A(9,10,11)            119.9079         estimate D2E/DX2                !
 ! A35   A(9,10,25)            120.044          estimate D2E/DX2                !
 ! A36   A(11,10,25)           120.0481         estimate D2E/DX2                !
 ! A37   A(10,11,12)           120.0957         estimate D2E/DX2                !
 ! A38   A(10,11,26)           119.9523         estimate D2E/DX2                !
 ! A39   A(12,11,26)           119.9518         estimate D2E/DX2                !
 ! A40   A(7,12,11)            120.7871         estimate D2E/DX2                !
 ! A41   A(7,12,27)            118.7756         estimate D2E/DX2                !
 ! A42   A(11,12,27)           120.4305         estimate D2E/DX2                !
 ! A43   A(4,13,14)            120.8517         estimate D2E/DX2                !
 ! A44   A(4,13,28)            119.0142         estimate D2E/DX2                !
 ! A45   A(14,13,28)           120.1225         estimate D2E/DX2                !
 ! A46   A(13,14,15)           120.1378         estimate D2E/DX2                !
 ! A47   A(13,14,29)           119.9476         estimate D2E/DX2                !
 ! A48   A(15,14,29)           119.914          estimate D2E/DX2                !
 ! A49   A(2,15,14)            120.5364         estimate D2E/DX2                !
 ! A50   A(2,15,30)            119.2699         estimate D2E/DX2                !
 ! A51   A(14,15,30)           120.1931         estimate D2E/DX2                !
 ! D1    D(16,1,2,3)          -153.4283         estimate D2E/DX2                !
 ! D2    D(16,1,2,15)           28.5444         estimate D2E/DX2                !
 ! D3    D(17,1,2,3)            86.4889         estimate D2E/DX2                !
 ! D4    D(17,1,2,15)          -91.5384         estimate D2E/DX2                !
 ! D5    D(18,1,2,3)           -33.5484         estimate D2E/DX2                !
 ! D6    D(18,1,2,15)          148.4243         estimate D2E/DX2                !
 ! D7    D(1,2,3,4)           -179.037          estimate D2E/DX2                !
 ! D8    D(1,2,3,19)             1.3635         estimate D2E/DX2                !
 ! D9    D(15,2,3,4)            -0.9724         estimate D2E/DX2                !
 ! D10   D(15,2,3,19)          179.428          estimate D2E/DX2                !
 ! D11   D(1,2,15,14)          178.6576         estimate D2E/DX2                !
 ! D12   D(1,2,15,30)           -1.063          estimate D2E/DX2                !
 ! D13   D(3,2,15,14)            0.5966         estimate D2E/DX2                !
 ! D14   D(3,2,15,30)         -179.124          estimate D2E/DX2                !
 ! D15   D(2,3,4,5)            179.5468         estimate D2E/DX2                !
 ! D16   D(2,3,4,13)             0.8538         estimate D2E/DX2                !
 ! D17   D(19,3,4,5)            -0.8567         estimate D2E/DX2                !
 ! D18   D(19,3,4,13)         -179.5497         estimate D2E/DX2                !
 ! D19   D(3,4,5,6)            -17.5151         estimate D2E/DX2                !
 ! D20   D(3,4,5,7)            160.981          estimate D2E/DX2                !
 ! D21   D(13,4,5,6)           161.1479         estimate D2E/DX2                !
 ! D22   D(13,4,5,7)           -20.356          estimate D2E/DX2                !
 ! D23   D(3,4,13,14)           -0.362          estimate D2E/DX2                !
 ! D24   D(3,4,13,28)          178.4041         estimate D2E/DX2                !
 ! D25   D(5,4,13,14)         -179.0698         estimate D2E/DX2                !
 ! D26   D(5,4,13,28)           -0.3037         estimate D2E/DX2                !
 ! D27   D(4,5,6,20)            67.72           estimate D2E/DX2                !
 ! D28   D(4,5,6,21)          -173.0262         estimate D2E/DX2                !
 ! D29   D(4,5,6,22)           -52.8145         estimate D2E/DX2                !
 ! D30   D(7,5,6,20)          -110.8337         estimate D2E/DX2                !
 ! D31   D(7,5,6,21)             8.4201         estimate D2E/DX2                !
 ! D32   D(7,5,6,22)           128.6318         estimate D2E/DX2                !
 ! D33   D(4,5,7,8)            135.3278         estimate D2E/DX2                !
 ! D34   D(4,5,7,12)           -45.0564         estimate D2E/DX2                !
 ! D35   D(6,5,7,8)            -46.1674         estimate D2E/DX2                !
 ! D36   D(6,5,7,12)           133.4484         estimate D2E/DX2                !
 ! D37   D(5,7,8,9)            179.7851         estimate D2E/DX2                !
 ! D38   D(5,7,8,23)            -1.8293         estimate D2E/DX2                !
 ! D39   D(12,7,8,9)             0.161          estimate D2E/DX2                !
 ! D40   D(12,7,8,23)          178.5466         estimate D2E/DX2                !
 ! D41   D(5,7,12,11)         -179.7551         estimate D2E/DX2                !
 ! D42   D(5,7,12,27)           -0.6974         estimate D2E/DX2                !
 ! D43   D(8,7,12,11)           -0.129          estimate D2E/DX2                !
 ! D44   D(8,7,12,27)          178.9287         estimate D2E/DX2                !
 ! D45   D(7,8,9,10)            -0.1104         estimate D2E/DX2                !
 ! D46   D(7,8,9,24)           179.6812         estimate D2E/DX2                !
 ! D47   D(23,8,9,10)         -178.478          estimate D2E/DX2                !
 ! D48   D(23,8,9,24)            1.3136         estimate D2E/DX2                !
 ! D49   D(8,9,10,11)            0.0239         estimate D2E/DX2                !
 ! D50   D(8,9,10,25)         -179.983          estimate D2E/DX2                !
 ! D51   D(24,9,10,11)        -179.7676         estimate D2E/DX2                !
 ! D52   D(24,9,10,25)           0.2254         estimate D2E/DX2                !
 ! D53   D(9,10,11,12)           0.008          estimate D2E/DX2                !
 ! D54   D(9,10,11,26)        -179.8167         estimate D2E/DX2                !
 ! D55   D(25,10,11,12)       -179.985          estimate D2E/DX2                !
 ! D56   D(25,10,11,26)          0.1903         estimate D2E/DX2                !
 ! D57   D(10,11,12,7)           0.0462         estimate D2E/DX2                !
 ! D58   D(10,11,12,27)       -178.9959         estimate D2E/DX2                !
 ! D59   D(26,11,12,7)         179.8709         estimate D2E/DX2                !
 ! D60   D(26,11,12,27)          0.8289         estimate D2E/DX2                !
 ! D61   D(4,13,14,15)           0.0092         estimate D2E/DX2                !
 ! D62   D(4,13,14,29)         179.7231         estimate D2E/DX2                !
 ! D63   D(28,13,14,15)       -178.7433         estimate D2E/DX2                !
 ! D64   D(28,13,14,29)          0.9707         estimate D2E/DX2                !
 ! D65   D(13,14,15,2)          -0.1258         estimate D2E/DX2                !
 ! D66   D(13,14,15,30)        179.5921         estimate D2E/DX2                !
 ! D67   D(29,14,15,2)        -179.8399         estimate D2E/DX2                !
 ! D68   D(29,14,15,30)         -0.1219         estimate D2E/DX2                !
 --------------------------------------------------------------------------------
 Trust Radius=3.00D-01 FncErr=1.00D-07 GrdErr=1.00D-06 EigMax=2.50D+02 EigMin=1.00D-04
 Number of steps in this run=    160 maximum allowed number of steps=    180.
 GradGradGradGradGradGradGradGradGradGradGradGradGradGradGradGradGradGrad

                          Input orientation:                          
 ---------------------------------------------------------------------
 Center     Atomic      Atomic             Coordinates (Angstroms)
 Number     Number       Type             X           Y           Z
 ---------------------------------------------------------------------
      1          6           0       -4.482030    1.390510    0.177810
      2          6           0       -3.256520    0.554480    0.308680
      3          6           0       -2.061070    0.966960   -0.254040
      4          6           0       -0.904260    0.192830   -0.162520
      5          7           0        0.323350    0.615560   -0.751190
      6          6           0        0.299800    1.661260   -1.773730
      7          6           0        1.590430    0.074050   -0.354720
      8          6           0        2.544030   -0.296130   -1.303420
      9          6           0        3.760100   -0.811300   -0.913720
     10          6           0        4.050880   -0.965640    0.428140
     11          6           0        3.118870   -0.602580    1.381140
     12          6           0        1.901740   -0.087790    0.995440
     13          6           0       -0.983990   -1.030040    0.501550
     14          6           0       -2.168790   -1.455600    1.056500
     15          6           0       -3.300670   -0.670350    0.960990
     16          1           0       -5.170850    1.213200    1.005020
     17          1           0       -5.006990    1.165130   -0.751550
     18          1           0       -4.234840    2.453130    0.175680
     19          1           0       -2.028680    1.910330   -0.766930
     20          1           0        0.003470    2.610510   -1.331320
     21          1           0        1.285060    1.792750   -2.216150
     22          1           0       -0.402500    1.398950   -2.563030
     23          1           0        2.307430   -0.198470   -2.348510
     24          1           0        4.485830   -1.098070   -1.657360
     25          1           0        5.003540   -1.368860    0.730990
     26          1           0        3.346110   -0.719920    2.428240
     27          1           0        1.178050    0.211780    1.733470
     28          1           0       -0.107410   -1.650970    0.558490
     29          1           0       -2.215050   -2.405980    1.562950
     30          1           0       -4.229980   -1.005510    1.389280
 ---------------------------------------------------------------------
                    Distance matrix (angstroms):
                    1          2          3          4          5
     1  C    0.000000
     2  C    1.489278   0.000000
     3  C    2.495383   1.384158   0.000000
     4  C    3.788232   2.426097   1.394942   0.000000
     5  N    4.955327   3.733969   2.460914   1.425573   0.000000
     6  C    5.171819   4.267178   2.892269   2.490390   1.462748
     7  C    6.236299   4.915673   3.760436   2.504901   1.433846
     8  C    7.375928   6.080196   4.889125   3.664893   2.463241
     9  C    8.600704   7.252074   6.122369   4.829993   3.724728
    10  C    8.855770   7.464793   6.446413   5.122923   4.217285
    11  C    7.949471   6.567690   5.654118   4.381910   3.720971
    12  C    6.603515   5.243262   4.286906   3.048484   2.456976
    13  C    4.266164   2.777102   2.391449   1.393828   2.446731
    14  C    3.771408   2.404748   2.756432   2.408810   3.710554
    15  C    2.501225   1.388404   2.386145   2.783906   4.209352
    16  H    1.090957   2.140902   3.364015   4.539614   5.798938
    17  H    1.090912   2.135679   2.994200   4.257313   5.358596
    18  H    1.090994   2.140017   2.668077   4.039319   5.001285
    19  H    2.679864   2.121994   1.074268   2.139962   2.684906
    20  H    4.887288   4.188603   2.850283   2.834651   2.102070
    21  H    6.257169   5.341725   3.965904   3.401509   2.111106
    22  H    4.914757   4.135853   2.875570   2.732936   2.103170
    23  H    7.416463   6.211693   4.982853   3.904692   2.674070
    24  H    9.485958   8.157219   7.006822   5.740561   4.591722
    25  H    9.894249   8.491535   7.505668   6.175705   5.295183
    26  H    8.414162   7.050628   6.267199   5.060711   4.585778
    27  H    5.987152   4.670426   3.874583   2.816230   2.658399
    28  H    5.341612   3.852701   3.366088   2.134110   2.652918
    29  H    4.633697   3.379671   3.834304   3.383671   4.574759
    30  H    2.696683   2.132813   3.360849   3.860637   5.286047
                    6          7          8          9         10
     6  C    0.000000
     7  C    2.489689   0.000000
     8  C    3.014819   1.395141   0.000000
     9  C    4.338991   2.409106   1.376987   0.000000
    10  C    5.081283   2.783458   2.391054   1.381652   0.000000
    11  C    4.798472   2.409806   2.762465   2.391887   1.381544
    12  C    3.646051   1.395005   2.395976   2.760772   2.389823
    13  C    3.750748   2.929138   4.030318   4.955525   5.035817
    14  C    4.880467   4.296872   5.396690   6.280814   6.270502
    15  C    5.087090   5.119383   6.279181   7.306769   7.376748
    16  H    6.152253   6.990097   8.193067   9.356390   9.493179
    17  H    5.427063   6.698797   7.710885   8.988573   9.379598
    18  H    4.999022   6.314675   7.463193   8.704158   8.966877
    19  H    2.549020   4.079191   5.105484   6.398343   6.830845
    20  H    1.088400   3.147351   3.860541   5.098573   5.680324
    21  H    1.088008   2.551882   2.604132   3.821416   4.717070
    22  H    1.088589   3.256342   3.625183   4.993262   5.862677
    23  H    2.796345   2.136248   1.075979   2.131768   3.367188
    24  H    5.015007   3.384387   2.130486   1.077925   2.134486
    25  H    6.130287   3.861357   3.367308   2.135904   1.077899
    26  H    5.710217   3.384918   3.840341   3.368744   2.134825
    27  H    3.895224   2.132971   3.368468   3.836833   3.367990
    28  H    4.071356   2.586949   3.511757   4.222568   4.216402
    29  H    5.830981   4.930485   5.942759   6.661780   6.528725
    30  H    6.134754   6.171236   7.324006   8.317626   8.336547
                   11         12         13         14         15
    11  C    0.000000
    12  C    1.376655   0.000000
    13  C    4.217803   3.075581   0.000000
    14  C    5.365853   4.294630   1.375799   0.000000
    15  C    6.433631   5.235039   2.389031   1.380903   0.000000
    16  H    8.494585   7.191258   4.776547   4.017152   2.654670
    17  H    8.585032   7.235491   4.751164   4.265284   3.035343
    18  H    8.054039   6.692226   4.775635   4.508057   3.353433
    19  H    6.117695   4.748329   3.368411   3.830667   3.356125
    20  H    5.233269   4.037086   4.193816   5.191690   5.189997
    21  H    4.694780   3.772404   4.527982   5.761171   6.098360
    22  H    5.653552   4.492508   3.953451   4.936520   5.010001
    23  H    3.838233   3.370287   4.432583   5.762900   6.528878
    24  H    3.368467   3.838689   5.880855   7.195612   8.226073
    25  H    2.135851   3.366339   6.001496   7.180237   8.336709
    26  H    1.077880   2.130425   4.749534   5.730359   6.806979
    27  H    2.134034   1.076177   2.781036   3.799971   4.629666
    28  H    3.490667   2.582855   1.075727   2.129665   3.364600
    29  H    5.633472   4.758575   2.129622   1.077893   2.133855
    30  H    7.359892   6.212512   3.365281   2.135844   1.076746
                   16         17         18         19         20
    16  H    0.000000
    17  H    1.764851   0.000000
    18  H    1.761064   1.764912   0.000000
    19  H    3.674103   3.070161   2.459733   0.000000
    20  H    5.846755   5.246901   4.501010   2.222256   0.000000
    21  H    7.238134   6.490674   6.051962   3.618693   1.759013
    22  H    5.958410   4.953530   4.826868   2.476277   1.774767
    23  H    8.316468   7.609890   7.496920   5.074474   3.772701
    24  H   10.280161   9.800826   9.592765   7.230642   5.826785
    25  H   10.500492  10.432149  10.013173   7.902466   6.714850
    26  H    8.848792   9.134482   8.521331   6.783487   6.033183
    27  H    6.468540   6.733418   6.062156   4.406834   4.065278
    28  H    5.834491   5.801078   5.833169   4.258036   4.663034
    29  H    4.706007   5.089663   5.441968   4.908524   6.201919
    30  H    2.440403   3.146200   3.665384   4.242297   6.196722
                   21         22         23         24         25
    21  H    0.000000
    22  H    1.767276   0.000000
    23  H    2.242257   3.153013   0.000000
    24  H    4.349025   5.563373   2.456093   0.000000
    25  H    5.701623   6.909168   4.257011   2.458773   0.000000
    26  H    5.668492   6.592000   4.916107   4.258414   2.459442
    27  H    4.255633   4.729421   4.255157   4.914758   4.258845
    28  H    4.636465   4.374126   4.048686   5.129673   5.121636
    29  H    6.645427   5.898012   6.373809   7.548696   7.340015
    30  H    7.158565   6.004314   7.573646   9.233414   9.264084
                   26         27         28         29         30
    26  H    0.000000
    27  H    2.459930   0.000000
    28  H    4.036040   2.550063   0.000000
    29  H    5.875204   4.288924   2.453798   0.000000
    30  H    7.652329   5.554012   4.254693   2.459963   0.000000
 Stoichiometry    C14H15N
 Framework group  C1[X(C14H15N)]
 Deg. of freedom    84
 Full point group                 C1      NOp   1
 Largest Abelian subgroup         C1      NOp   1
 Largest concise Abelian subgroup C1      NOp   1
                         Standard orientation:                         
 ---------------------------------------------------------------------
 Center     Atomic      Atomic             Coordinates (Angstroms)
 Number     Number       Type             X           Y           Z
 ---------------------------------------------------------------------
      1          6           0       -4.607900    0.565118    0.455216
      2          6           0       -3.286484   -0.033175    0.117795
      3          6           0       -2.128229    0.717631    0.220894
      4          6           0       -0.880949    0.186660   -0.108081
      5          7           0        0.309294    0.965102   -0.010058
      6          6           0        0.203128    2.422124    0.063737
      7          6           0        1.612203    0.369591    0.050847
      8          6           0        2.668979    0.869854   -0.710323
      9          6           0        3.918184    0.294556   -0.642416
     10          6           0        4.139683   -0.788471    0.186410
     11          6           0        3.104966   -1.295650    0.948509
     12          6           0        1.854507   -0.723619    0.882843
     13          6           0       -0.827950   -1.128685   -0.566138
     14          6           0       -1.973307   -1.881993   -0.682361
     15          6           0       -3.197300   -1.339411   -0.344222
     16          1           0       -5.316830   -0.199454    0.776207
     17          1           0       -5.033244    1.076865   -0.409242
     18          1           0       -4.515866    1.290974    1.264494
     19          1           0       -2.197828    1.731381    0.569490
     20          1           0       -0.254413    2.716623    1.006362
     21          1           0        1.186197    2.885352    0.011221
     22          1           0       -0.401214    2.796858   -0.760503
     23          1           0        2.489694    1.697753   -1.373776
     24          1           0        4.724574    0.687916   -1.239848
     25          1           0        5.118408   -1.237109    0.238239
     26          1           0        3.277695   -2.138681    1.597576
     27          1           0        1.048665   -1.104146    1.486147
     28          1           0        0.122913   -1.544856   -0.848715
     29          1           0       -1.915979   -2.896342   -1.042448
     30          1           0       -4.095018   -1.926017   -0.441054
 ---------------------------------------------------------------------
 Rotational constants (GHZ):           1.5120877           0.3324404           0.2915459
 Standard basis: def2SVP (5D, 7F)
 There are   300 symmetry adapted cartesian basis functions of A   symmetry.
 There are   285 symmetry adapted basis functions of A   symmetry.
   285 basis functions,   480 primitive gaussians,   300 cartesian basis functions
    53 alpha electrons       53 beta electrons
       nuclear repulsion energy       916.6153465039 Hartrees.
 NAtoms=   30 NActive=   30 NUniq=   30 SFac= 1.00D+00 NAtFMM=   60 NAOKFM=F Big=F
 Integral buffers will be    131072 words long.
 Raffenetti 2 integral format.
 Two-electron integral symmetry is turned on.
 Nuclear repulsion after empirical dispersion term =      916.5955365471 Hartrees.
 One-electron integrals computed using PRISM.
   1 Symmetry operations used in ECPInt.
 ECPInt:  NShTT=    9180 NPrTT=   32880 LenC2=    8614 LenP2D=   22638.
 LDataN:  DoStor=T MaxTD1= 4 Len=   56
 NBasis=   285 RedAO= T EigKep=  2.31D-04  NBF=   285
 NBsUse=   285 1.00D-06 EigRej= -1.00D+00 NBFU=   285
 ExpMin= 1.22D-01 ExpMax= 1.71D+03 ExpMxC= 2.58D+02 IAcc=3 IRadAn=         5 AccDes= 0.00D+00
 Harris functional with IExCor= 4639 and IRadAn=       5 diagonalized for initial guess.
 HarFok:  IExCor= 4639 AccDes= 0.00D+00 IRadAn=         5 IDoV= 1 UseB2=F ITyADJ=14
 ICtDFT=  3500011 ScaDFX=  1.000000  1.000000  1.000000  1.000000
 FoFCou: FMM=F IPFlag=           0 FMFlag=      100000 FMFlg1=           0
         NFxFlg=           0 DoJE=T BraDBF=F KetDBF=T FulRan=T
         wScrn=  0.000000 ICntrl=       500 IOpCl=  0 I1Cent=   200000004 NGrid=           0
         NMat0=    1 NMatS0=      1 NMatT0=    0 NMatD0=    1 NMtDS0=    0 NMtDT0=    0
 Petite list used in FoFCou.
 Requested convergence on RMS density matrix=1.00D-08 within 128 cycles.
 Requested convergence on MAX density matrix=1.00D-06.
 Requested convergence on             energy=1.00D-06.
 No special actions if energy rises.
 Integral accuracy reduced to 1.0D-05 until final iterations.
 Initial convergence to 1.0D-05 achieved.  Increase integral accuracy.
 SCF Done:  E(RwB97XD) =  -596.648870294     A.U. after   15 cycles
            NFock= 15  Conv=0.65D-08     -V/T= 2.0108

 **********************************************************************

            Population analysis using the SCF Density.

 **********************************************************************

 Orbital symmetries:
       Occupied  (A) (A) (A) (A) (A) (A) (A) (A) (A) (A) (A) (A)
                 (A) (A) (A) (A) (A) (A) (A) (A) (A) (A) (A) (A)
                 (A) (A) (A) (A) (A) (A) (A) (A) (A) (A) (A) (A)
                 (A) (A) (A) (A) (A) (A) (A) (A) (A) (A) (A) (A)
                 (A) (A) (A) (A) (A)
       Virtual   (A) (A) (A) (A) (A) (A) (A) (A) (A) (A) (A) (A)
                 (A) (A) (A) (A) (A) (A) (A) (A) (A) (A) (A) (A)
                 (A) (A) (A) (A) (A) (A) (A) (A) (A) (A) (A) (A)
                 (A) (A) (A) (A) (A) (A) (A) (A) (A) (A) (A) (A)
                 (A) (A) (A) (A) (A) (A) (A) (A) (A) (A) (A) (A)
                 (A) (A) (A) (A) (A) (A) (A) (A) (A) (A) (A) (A)
                 (A) (A) (A) (A) (A) (A) (A) (A) (A) (A) (A) (A)
                 (A) (A) (A) (A) (A) (A) (A) (A) (A) (A) (A) (A)
                 (A) (A) (A) (A) (A) (A) (A) (A) (A) (A) (A) (A)
                 (A) (A) (A) (A) (A) (A) (A) (A) (A) (A) (A) (A)
                 (A) (A) (A) (A) (A) (A) (A) (A) (A) (A) (A) (A)
                 (A) (A) (A) (A) (A) (A) (A) (A) (A) (A) (A) (A)
                 (A) (A) (A) (A) (A) (A) (A) (A) (A) (A) (A) (A)
                 (A) (A) (A) (A) (A) (A) (A) (A) (A) (A) (A) (A)
                 (A) (A) (A) (A) (A) (A) (A) (A) (A) (A) (A) (A)
                 (A) (A) (A) (A) (A) (A) (A) (A) (A) (A) (A) (A)
                 (A) (A) (A) (A) (A) (A) (A) (A) (A) (A) (A) (A)
                 (A) (A) (A) (A) (A) (A) (A) (A) (A) (A) (A) (A)
                 (A) (A) (A) (A) (A) (A) (A) (A) (A) (A) (A) (A)
                 (A) (A) (A) (A)
 The electronic state is 1-A.
 Alpha  occ. eigenvalues --  -14.46384 -10.33986 -10.33656 -10.32889 -10.29912
 Alpha  occ. eigenvalues --  -10.29843 -10.29809 -10.29677 -10.29425 -10.29321
 Alpha  occ. eigenvalues --  -10.29040 -10.28966 -10.28457 -10.28225 -10.27911
 Alpha  occ. eigenvalues --   -1.03994  -0.95584  -0.94025  -0.86516  -0.84783
 Alpha  occ. eigenvalues --   -0.84456  -0.82655  -0.78281  -0.76204  -0.70839
 Alpha  occ. eigenvalues --   -0.69675  -0.68212  -0.65685  -0.61650  -0.60077
 Alpha  occ. eigenvalues --   -0.56910  -0.56117  -0.55548  -0.53443  -0.52635
 Alpha  occ. eigenvalues --   -0.52110  -0.51173  -0.50925  -0.50674  -0.49088
 Alpha  occ. eigenvalues --   -0.47688  -0.46365  -0.46122  -0.44875  -0.44448
 Alpha  occ. eigenvalues --   -0.43162  -0.42542  -0.41463  -0.37774  -0.33569
 Alpha  occ. eigenvalues --   -0.33225  -0.31796  -0.25925
 Alpha virt. eigenvalues --    0.05577   0.05995   0.07531   0.09270   0.13977
 Alpha virt. eigenvalues --    0.15205   0.16510   0.17120   0.18407   0.19729
 Alpha virt. eigenvalues --    0.20490   0.20615   0.20964   0.21594   0.22612
 Alpha virt. eigenvalues --    0.23108   0.23581   0.23884   0.24826   0.25316
 Alpha virt. eigenvalues --    0.26357   0.27766   0.31585   0.33301   0.34906
 Alpha virt. eigenvalues --    0.36772   0.37367   0.37935   0.38808   0.39967
 Alpha virt. eigenvalues --    0.40952   0.41610   0.43293   0.43661   0.45678
 Alpha virt. eigenvalues --    0.47491   0.48955   0.49334   0.49809   0.50549
 Alpha virt. eigenvalues --    0.51150   0.52690   0.54074   0.55566   0.55811
 Alpha virt. eigenvalues --    0.56743   0.57182   0.58036   0.58618   0.58724
 Alpha virt. eigenvalues --    0.59542   0.60679   0.61736   0.63309   0.64698
 Alpha virt. eigenvalues --    0.65037   0.66089   0.67173   0.68024   0.70042
 Alpha virt. eigenvalues --    0.71153   0.71843   0.72976   0.73477   0.73791
 Alpha virt. eigenvalues --    0.74120   0.74568   0.74907   0.75554   0.75886
 Alpha virt. eigenvalues --    0.76299   0.76737   0.77203   0.77859   0.78280
 Alpha virt. eigenvalues --    0.79301   0.79736   0.80858   0.81194   0.83373
 Alpha virt. eigenvalues --    0.83572   0.83986   0.84954   0.85188   0.87191
 Alpha virt. eigenvalues --    0.87776   0.88830   0.89555   0.91260   0.92420
 Alpha virt. eigenvalues --    0.93431   0.94731   0.96130   0.99240   1.03098
 Alpha virt. eigenvalues --    1.03977   1.05702   1.07589   1.11791   1.11977
 Alpha virt. eigenvalues --    1.16919   1.18540   1.19847   1.23753   1.24572
 Alpha virt. eigenvalues --    1.28603   1.29100   1.31402   1.33071   1.33644
 Alpha virt. eigenvalues --    1.34997   1.35734   1.37269   1.37832   1.38684
 Alpha virt. eigenvalues --    1.39193   1.39998   1.41413   1.41753   1.45160
 Alpha virt. eigenvalues --    1.47707   1.56546   1.58129   1.59608   1.61883
 Alpha virt. eigenvalues --    1.63817   1.64221   1.65255   1.68299   1.71276
 Alpha virt. eigenvalues --    1.76349   1.77550   1.78147   1.79447   1.80463
 Alpha virt. eigenvalues --    1.81303   1.82066   1.83529   1.83917   1.83983
 Alpha virt. eigenvalues --    1.84975   1.85773   1.86193   1.87029   1.87195
 Alpha virt. eigenvalues --    1.89002   1.90029   1.90329   1.91019   1.91946
 Alpha virt. eigenvalues --    1.92176   1.92464   1.93366   1.94424   1.95860
 Alpha virt. eigenvalues --    1.98561   1.99433   2.01878   2.03624   2.04430
 Alpha virt. eigenvalues --    2.05214   2.07261   2.08508   2.09520   2.10837
 Alpha virt. eigenvalues --    2.13405   2.13781   2.16194   2.16970   2.17230
 Alpha virt. eigenvalues --    2.20017   2.22710   2.23604   2.24890   2.26946
 Alpha virt. eigenvalues --    2.27449   2.28509   2.29537   2.30223   2.30448
 Alpha virt. eigenvalues --    2.33520   2.37528   2.38729   2.39050   2.40427
 Alpha virt. eigenvalues --    2.40827   2.41526   2.43665   2.44632   2.45629
 Alpha virt. eigenvalues --    2.46590   2.47595   2.53491   2.56037   2.59024
 Alpha virt. eigenvalues --    2.60321   2.62487   2.65723   2.67320   2.70203
 Alpha virt. eigenvalues --    2.71095   2.72340   2.74222   2.75335   2.76374
 Alpha virt. eigenvalues --    2.77775   2.79266   2.84622   2.84898   2.85256
 Alpha virt. eigenvalues --    2.86176   2.88912   2.92565   2.96373   2.98780
 Alpha virt. eigenvalues --    3.00485   3.00857   3.01480   3.04449   3.05310
 Alpha virt. eigenvalues --    3.06654   3.08361   3.10307   3.15804   3.22240
 Alpha virt. eigenvalues --    3.25032   3.28040   3.30176   3.40317   3.48027
 Alpha virt. eigenvalues --    3.76449   3.79528
          Condensed to atoms (all electrons):
               1          2          3          4          5          6
     1  C    4.554138   0.420980  -0.087804   0.012375  -0.000070  -0.000055
     2  C    0.420980   5.201596   0.268140   0.126090   0.008999   0.000510
     3  C   -0.087804   0.268140   5.269971   0.265560  -0.092114   0.003905
     4  C    0.012375   0.126090   0.265560   5.028145   0.341250  -0.051709
     5  N   -0.000070   0.008999  -0.092114   0.341250   6.812789   0.340102
     6  C   -0.000055   0.000510   0.003905  -0.051709   0.340102   4.430917
     7  C    0.000004  -0.000071   0.007359  -0.045874   0.306970  -0.050432
     8  C   -0.000000   0.000001  -0.000425   0.003992  -0.075542  -0.008063
     9  C    0.000000  -0.000000   0.000001  -0.000175   0.008406   0.000400
    10  C   -0.000000  -0.000000   0.000001   0.000022  -0.000407   0.000008
    11  C    0.000000   0.000002  -0.000039   0.000139   0.009165  -0.000103
    12  C    0.000000  -0.000024   0.000325  -0.006138  -0.076920   0.003903
    13  C   -0.000755  -0.168884   0.074091   0.258587  -0.088256   0.006519
    14  C    0.012055   0.110418  -0.148876   0.125841   0.008923  -0.000274
    15  C   -0.080664   0.291441   0.066860  -0.160205  -0.000835   0.000118
    16  H    0.389082  -0.018355   0.008002  -0.000523   0.000002   0.000000
    17  H    0.387073  -0.012690  -0.003470  -0.000165   0.000003  -0.000004
    18  H    0.389229  -0.019118  -0.008652   0.001045  -0.000014   0.000006
    19  H   -0.015003  -0.076825   0.457023  -0.075505  -0.016768   0.012175
    20  H   -0.000002   0.001306   0.003394  -0.012107  -0.031395   0.399356
    21  H   -0.000000  -0.000066   0.000566   0.006088  -0.018146   0.399800
    22  H    0.000017   0.000803   0.004936  -0.006069  -0.028867   0.401511
    23  H   -0.000000   0.000000  -0.000023  -0.000330  -0.010040   0.001284
    24  H   -0.000000   0.000000  -0.000000   0.000007  -0.000143  -0.000013
    25  H    0.000000  -0.000000   0.000000   0.000001   0.000008   0.000000
    26  H   -0.000000   0.000000  -0.000000  -0.000020  -0.000135   0.000005
    27  H   -0.000001   0.000035  -0.000816   0.004032  -0.011574  -0.000144
    28  H    0.000024  -0.002084   0.016279  -0.069114  -0.015301  -0.000117
    29  H   -0.000307   0.015554  -0.002034   0.015570  -0.000115   0.000006
    30  H   -0.015756  -0.074260   0.016477  -0.001576   0.000010   0.000000
               7          8          9         10         11         12
     1  C    0.000004  -0.000000   0.000000  -0.000000   0.000000   0.000000
     2  C   -0.000071   0.000001  -0.000000  -0.000000   0.000002  -0.000024
     3  C    0.007359  -0.000425   0.000001   0.000001  -0.000039   0.000325
     4  C   -0.045874   0.003992  -0.000175   0.000022   0.000139  -0.006138
     5  N    0.306970  -0.075542   0.008406  -0.000407   0.009165  -0.076920
     6  C   -0.050432  -0.008063   0.000400   0.000008  -0.000103   0.003903
     7  C    5.123412   0.280318   0.113339  -0.165630   0.119891   0.273244
     8  C    0.280318   5.155984   0.278105   0.086116  -0.148689   0.058635
     9  C    0.113339   0.278105   5.048711   0.282636   0.098829  -0.148094
    10  C   -0.165630   0.086116   0.282636   5.105358   0.272889   0.088946
    11  C    0.119891  -0.148689   0.098829   0.272889   5.072728   0.264316
    12  C    0.273244   0.058635  -0.148094   0.088946   0.264316   5.162331
    13  C   -0.006727   0.000972   0.000046   0.000038  -0.001663  -0.004839
    14  C   -0.000301  -0.000051   0.000004  -0.000003   0.000028  -0.000418
    15  C    0.000043   0.000000  -0.000000   0.000000  -0.000002  -0.000018
    16  H   -0.000000   0.000000  -0.000000  -0.000000   0.000000   0.000000
    17  H    0.000000   0.000000  -0.000000   0.000000  -0.000000  -0.000000
    18  H   -0.000001  -0.000000   0.000000  -0.000000  -0.000000   0.000000
    19  H   -0.000137   0.000017   0.000000   0.000000  -0.000000  -0.000026
    20  H    0.004331   0.000040   0.000037  -0.000004  -0.000073   0.001015
    21  H   -0.008092   0.003642   0.000454  -0.000073   0.000005  -0.000063
    22  H    0.002382   0.001205  -0.000063   0.000000   0.000030  -0.000587
    23  H   -0.071108   0.452200  -0.066783   0.014965  -0.002605   0.016459
    24  H    0.015219  -0.065367   0.450027  -0.070746   0.014100  -0.002047
    25  H   -0.001696   0.014634  -0.069742   0.452904  -0.069545   0.014747
    26  H    0.015290  -0.002190   0.014366  -0.072426   0.453066  -0.067013
    27  H   -0.069175   0.016237  -0.002528   0.014828  -0.070476   0.461167
    28  H    0.006535  -0.001163   0.000046   0.000036  -0.000469   0.002541
    29  H   -0.000016   0.000002  -0.000000  -0.000000   0.000001   0.000035
    30  H    0.000000   0.000000  -0.000000  -0.000000   0.000000   0.000000
              13         14         15         16         17         18
     1  C   -0.000755   0.012055  -0.080664   0.389082   0.387073   0.389229
     2  C   -0.168884   0.110418   0.291441  -0.018355  -0.012690  -0.019118
     3  C    0.074091  -0.148876   0.066860   0.008002  -0.003470  -0.008652
     4  C    0.258587   0.125841  -0.160205  -0.000523  -0.000165   0.001045
     5  N   -0.088256   0.008923  -0.000835   0.000002   0.000003  -0.000014
     6  C    0.006519  -0.000274   0.000118   0.000000  -0.000004   0.000006
     7  C   -0.006727  -0.000301   0.000043  -0.000000   0.000000  -0.000001
     8  C    0.000972  -0.000051   0.000000   0.000000   0.000000  -0.000000
     9  C    0.000046   0.000004  -0.000000  -0.000000  -0.000000   0.000000
    10  C    0.000038  -0.000003   0.000000  -0.000000   0.000000  -0.000000
    11  C   -0.001663   0.000028  -0.000002   0.000000  -0.000000  -0.000000
    12  C   -0.004839  -0.000418  -0.000018   0.000000  -0.000000   0.000000
    13  C    5.235385   0.265998   0.095092   0.000015   0.000112   0.000043
    14  C    0.265998   5.037816   0.272358   0.000804  -0.000277  -0.000533
    15  C    0.095092   0.272358   5.148865  -0.008526  -0.003328   0.006601
    16  H    0.000015   0.000804  -0.008526   0.631746  -0.018553  -0.022981
    17  H    0.000112  -0.000277  -0.003328  -0.018553   0.615251  -0.019436
    18  H    0.000043  -0.000533   0.006601  -0.022981  -0.019436   0.634569
    19  H    0.017902  -0.002805   0.017314   0.000079   0.000955   0.005073
    20  H   -0.000758   0.000069  -0.000056  -0.000002  -0.000005   0.000019
    21  H   -0.000110   0.000004   0.000004   0.000000   0.000000   0.000000
    22  H    0.000300  -0.000062  -0.000081   0.000000   0.000006  -0.000022
    23  H   -0.000034   0.000002   0.000000  -0.000000  -0.000000   0.000000
    24  H   -0.000002  -0.000000   0.000000   0.000000   0.000000  -0.000000
    25  H   -0.000001  -0.000000   0.000000  -0.000000  -0.000000   0.000000
    26  H    0.000035   0.000001  -0.000000  -0.000000  -0.000000   0.000000
    27  H    0.002506  -0.000051  -0.000043   0.000000  -0.000000   0.000000
    28  H    0.459776  -0.070783   0.014933  -0.000001   0.000000  -0.000002
    29  H   -0.072160   0.455507  -0.073311  -0.000002   0.000007   0.000009
    30  H    0.015526  -0.069535   0.453280   0.005104   0.000800   0.000167
              19         20         21         22         23         24
     1  C   -0.015003  -0.000002  -0.000000   0.000017  -0.000000  -0.000000
     2  C   -0.076825   0.001306  -0.000066   0.000803   0.000000   0.000000
     3  C    0.457023   0.003394   0.000566   0.004936  -0.000023  -0.000000
     4  C   -0.075505  -0.012107   0.006088  -0.006069  -0.000330   0.000007
     5  N   -0.016768  -0.031395  -0.018146  -0.028867  -0.010040  -0.000143
     6  C    0.012175   0.399356   0.399800   0.401511   0.001284  -0.000013
     7  C   -0.000137   0.004331  -0.008092   0.002382  -0.071108   0.015219
     8  C    0.000017   0.000040   0.003642   0.001205   0.452200  -0.065367
     9  C    0.000000   0.000037   0.000454  -0.000063  -0.066783   0.450027
    10  C    0.000000  -0.000004  -0.000073   0.000000   0.014965  -0.070746
    11  C   -0.000000  -0.000073   0.000005   0.000030  -0.002605   0.014100
    12  C   -0.000026   0.001015  -0.000063  -0.000587   0.016459  -0.002047
    13  C    0.017902  -0.000758  -0.000110   0.000300  -0.000034  -0.000002
    14  C   -0.002805   0.000069   0.000004  -0.000062   0.000002  -0.000000
    15  C    0.017314  -0.000056   0.000004  -0.000081   0.000000   0.000000
    16  H    0.000079  -0.000002   0.000000   0.000000  -0.000000   0.000000
    17  H    0.000955  -0.000005   0.000000   0.000006  -0.000000   0.000000
    18  H    0.005073   0.000019   0.000000  -0.000022   0.000000  -0.000000
    19  H    0.715430  -0.001954  -0.000006  -0.001190  -0.000004  -0.000000
    20  H   -0.001954   0.657145  -0.021415  -0.039600   0.000309  -0.000002
    21  H   -0.000006  -0.021415   0.606022  -0.019478   0.000741   0.000049
    22  H   -0.001190  -0.039600  -0.019478   0.645601  -0.000719   0.000002
    23  H   -0.000004   0.000309   0.000741  -0.000719   0.679242  -0.013112
    24  H   -0.000000  -0.000002   0.000049   0.000002  -0.013112   0.673395
    25  H    0.000000  -0.000000  -0.000001   0.000000  -0.000229  -0.012330
    26  H   -0.000000   0.000001   0.000001  -0.000000   0.000026  -0.000266
    27  H   -0.000012   0.000017  -0.000034   0.000001  -0.000196   0.000021
    28  H   -0.000201  -0.000031  -0.000008   0.000038  -0.000046  -0.000004
    29  H    0.000022  -0.000000  -0.000000   0.000001  -0.000000   0.000000
    30  H   -0.000279  -0.000000  -0.000000  -0.000000   0.000000   0.000000
              25         26         27         28         29         30
     1  C    0.000000  -0.000000  -0.000001   0.000024  -0.000307  -0.015756
     2  C   -0.000000   0.000000   0.000035  -0.002084   0.015554  -0.074260
     3  C    0.000000  -0.000000  -0.000816   0.016279  -0.002034   0.016477
     4  C    0.000001  -0.000020   0.004032  -0.069114   0.015570  -0.001576
     5  N    0.000008  -0.000135  -0.011574  -0.015301  -0.000115   0.000010
     6  C    0.000000   0.000005  -0.000144  -0.000117   0.000006   0.000000
     7  C   -0.001696   0.015290  -0.069175   0.006535  -0.000016   0.000000
     8  C    0.014634  -0.002190   0.016237  -0.001163   0.000002   0.000000
     9  C   -0.069742   0.014366  -0.002528   0.000046  -0.000000  -0.000000
    10  C    0.452904  -0.072426   0.014828   0.000036  -0.000000  -0.000000
    11  C   -0.069545   0.453066  -0.070476  -0.000469   0.000001   0.000000
    12  C    0.014747  -0.067013   0.461167   0.002541   0.000035   0.000000
    13  C   -0.000001   0.000035   0.002506   0.459776  -0.072160   0.015526
    14  C   -0.000000   0.000001  -0.000051  -0.070783   0.455507  -0.069535
    15  C    0.000000  -0.000000  -0.000043   0.014933  -0.073311   0.453280
    16  H   -0.000000  -0.000000   0.000000  -0.000001  -0.000002   0.005104
    17  H   -0.000000  -0.000000  -0.000000   0.000000   0.000007   0.000800
    18  H    0.000000   0.000000   0.000000  -0.000002   0.000009   0.000167
    19  H    0.000000  -0.000000  -0.000012  -0.000201   0.000022  -0.000279
    20  H   -0.000000   0.000001   0.000017  -0.000031  -0.000000  -0.000000
    21  H   -0.000001   0.000001  -0.000034  -0.000008  -0.000000  -0.000000
    22  H    0.000000  -0.000000   0.000001   0.000038   0.000001  -0.000000
    23  H   -0.000229   0.000026  -0.000196  -0.000046  -0.000000   0.000000
    24  H   -0.012330  -0.000266   0.000021  -0.000004   0.000000   0.000000
    25  H    0.674294  -0.012316  -0.000222   0.000000   0.000000  -0.000000
    26  H   -0.012316   0.671509  -0.012524   0.000024  -0.000000   0.000000
    27  H   -0.000222  -0.012524   0.656593  -0.002694   0.000022  -0.000000
    28  H    0.000000   0.000024  -0.002694   0.661802  -0.013023  -0.000261
    29  H    0.000000  -0.000000   0.000022  -0.013023   0.680449  -0.012613
    30  H   -0.000000   0.000000  -0.000000  -0.000261  -0.012613   0.697658
 Mulliken charges:
               1
     1  C    0.035441
     2  C   -0.073496
     3  C   -0.118638
     4  C    0.240768
     5  N   -0.369986
     6  C    0.110387
     7  C    0.150923
     8  C   -0.050609
     9  C   -0.008024
    10  C   -0.009459
    11  C   -0.011525
    12  C   -0.041478
    13  C   -0.088758
    14  C    0.004141
    15  C   -0.039842
    16  H    0.034106
    17  H    0.053718
    18  H    0.033995
    19  H   -0.035276
    20  H    0.040364
    21  H    0.050119
    22  H    0.039905
    23  H    0.000000
    24  H    0.011211
    25  H    0.009495
    26  H    0.012567
    27  H    0.015030
    28  H    0.013266
    29  H    0.006397
    30  H   -0.014741
 Sum of Mulliken charges =  -0.00000
 Mulliken charges with hydrogens summed into heavy atoms:
               1
     1  C    0.157260
     2  C   -0.073496
     3  C   -0.153914
     4  C    0.240768
     5  N   -0.369986
     6  C    0.240775
     7  C    0.150923
     8  C   -0.050609
     9  C    0.003187
    10  C    0.000036
    11  C    0.001042
    12  C   -0.026448
    13  C   -0.075493
    14  C    0.010538
    15  C   -0.054583
 Electronic spatial extent (au):  <R**2>=           3812.1605
 Charge=             -0.0000 electrons
 Dipole moment (field-independent basis, Debye):
    X=              0.2000    Y=              1.0495    Z=              0.1097  Tot=              1.0740
 Quadrupole moment (field-independent basis, Debye-Ang):
   XX=            -81.8329   YY=            -81.8671   ZZ=            -91.2052
   XY=             -1.2089   XZ=             -2.0466   YZ=             -1.3525
 Traceless Quadrupole moment (field-independent basis, Debye-Ang):
   XX=              3.1355   YY=              3.1013   ZZ=             -6.2368
   XY=             -1.2089   XZ=             -2.0466   YZ=             -1.3525
 Octapole moment (field-independent basis, Debye-Ang**2):
  XXX=             -1.1127  YYY=              8.4555  ZZZ=              2.7211  XYY=             -0.7302
  XXY=             -3.8863  XXZ=             -5.2005  XZZ=              3.1302  YZZ=              2.1252
  YYZ=             -1.1982  XYZ=            -12.6026
 Hexadecapole moment (field-independent basis, Debye-Ang**3):
 XXXX=          -3862.7994 YYYY=           -841.0494 ZZZZ=           -284.6196 XXXY=            -25.9405
 XXXZ=            -49.1908 YYYX=              8.2252 YYYZ=              3.3747 ZZZX=             -9.8860
 ZZZY=             -8.9588 XXYY=           -805.4497 XXZZ=           -752.0338 YYZZ=           -183.3896
 XXYZ=            -28.0906 YYXZ=             11.2086 ZZXY=             -6.8266
 N-N= 9.165955365471D+02 E-N=-3.213745704338D+03  KE= 5.902779702045D+02
   1 Symmetry operations used in ECPInt.
 ECPInt:  NShTT=    9180 NPrTT=   32880 LenC2=    8614 LenP2D=   22638.
 LDataN:  DoStor=T MaxTD1= 5 Len=  102
 Calling FoFJK, ICntrl=      2127 FMM=F ISym2X=0 I1Cent= 0 IOpClX= 0 NMat=1 NMatS=1 NMatT=0.
 ***** Axes restored to original set *****
 -------------------------------------------------------------------
 Center     Atomic                   Forces (Hartrees/Bohr)
 Number     Number              X              Y              Z
 -------------------------------------------------------------------
      1        6          -0.001585459    0.003709944    0.002349603
      2        6          -0.001636739   -0.005247124    0.000839336
      3        6           0.007384867    0.001181725   -0.002604162
      4        6           0.025273149    0.008153406   -0.009620430
      5        7           0.001786411   -0.004977750    0.001683666
      6        6          -0.001955917   -0.014042501    0.014340021
      7        6          -0.019970043    0.006054813   -0.003592140
      8        6          -0.010071277    0.002611854   -0.000435065
      9        6           0.003956419    0.000341578    0.001524358
     10        6           0.006049520   -0.002719109    0.000922481
     11        6           0.001320425   -0.001924782    0.000530612
     12        6          -0.005233868    0.005053790   -0.002922416
     13        6           0.005618094   -0.003346501   -0.001449248
     14        6          -0.000646277    0.001987320   -0.000568905
     15        6          -0.004734246    0.002280355    0.001198550
     16        1          -0.004389824   -0.001210811    0.003564190
     17        1          -0.004191268   -0.000842980   -0.006155668
     18        1           0.000464394    0.006088151   -0.001095169
     19        1          -0.000284899    0.011317679   -0.005309705
     20        1          -0.002761215    0.010485970    0.001317278
     21        1           0.005206934   -0.000668893   -0.000333176
     22        1          -0.005950588   -0.000075212   -0.007282092
     23        1          -0.001846054    0.000585171   -0.011569507
     24        1           0.006484536   -0.002715357   -0.007563328
     25        1           0.009119555   -0.003919058    0.002825173
     26        1           0.001723264   -0.000595661    0.010201658
     27        1          -0.007285756    0.002776499    0.008100703
     28        1           0.007763903   -0.007181612    0.001306092
     29        1           0.000241162   -0.009335623    0.004447795
     30        1          -0.009849202   -0.003825280    0.005349495
 -------------------------------------------------------------------
 Cartesian Forces:  Max     0.025273149 RMS     0.006308233

 GradGradGradGradGradGradGradGradGradGradGradGradGradGradGradGradGradGrad
 Berny optimization.
 FormGI is forming the generalized inverse of G from B-inverse, IUseBI=4.
 Internal  Forces:  Max     0.021035517 RMS     0.005515204
 Search for a local minimum.
 Step number   1 out of a maximum of  160
 All quantities printed in internal units (Hartrees-Bohrs-Radians)
 Mixed Optimization -- RFO/linear search
 Second derivative matrix not updated -- first step.
 ITU=  0
     Eigenvalues ---    0.00862   0.00908   0.01121   0.01244   0.01353
     Eigenvalues ---    0.01715   0.01878   0.01919   0.02182   0.02185
     Eigenvalues ---    0.02224   0.02263   0.02270   0.02284   0.02284
     Eigenvalues ---    0.02301   0.02332   0.02332   0.02341   0.02350
     Eigenvalues ---    0.02365   0.02370   0.02377   0.07296   0.07325
     Eigenvalues ---    0.07386   0.07439   0.15994   0.15996   0.15998
     Eigenvalues ---    0.16000   0.16000   0.16000   0.16000   0.16000
     Eigenvalues ---    0.16000   0.16000   0.16000   0.16000   0.16000
     Eigenvalues ---    0.16000   0.16000   0.22000   0.22000   0.22000
     Eigenvalues ---    0.23453   0.23468   0.23481   0.24985   0.24993
     Eigenvalues ---    0.24993   0.24995   0.24999   0.33529   0.34698
     Eigenvalues ---    0.34702   0.34707   0.34976   0.34998   0.35044
     Eigenvalues ---    0.36246   0.36249   0.36250   0.36252   0.36390
     Eigenvalues ---    0.36460   0.36485   0.36516   0.36622   0.36696
     Eigenvalues ---    0.40442   0.41632   0.42982   0.43021   0.43617
     Eigenvalues ---    0.43731   0.47047   0.47289   0.47382   0.47869
     Eigenvalues ---    0.48514   0.49027   0.49414   0.49689
 RFO step:  Lambda=-1.17789620D-02 EMin= 8.61747209D-03
 Linear search not attempted -- first point.
 Iteration  1 RMS(Cart)=  0.05629619 RMS(Int)=  0.00057200
 Iteration  2 RMS(Cart)=  0.00123643 RMS(Int)=  0.00008889
 Iteration  3 RMS(Cart)=  0.00000091 RMS(Int)=  0.00008889
 Variable       Old X    -DE/DX   Delta X   Delta X   Delta X     New X
                                 (Linear)    (Quad)   (Total)
    R1        2.81433   0.01245   0.00000   0.03587   0.03587   2.85020
    R2        2.06161   0.00567   0.00000   0.01580   0.01580   2.07742
    R3        2.06153   0.00744   0.00000   0.02072   0.02072   2.08225
    R4        2.06168   0.00604   0.00000   0.01683   0.01683   2.07851
    R5        2.61568   0.01496   0.00000   0.03001   0.03000   2.64568
    R6        2.62370   0.00958   0.00000   0.01964   0.01963   2.64334
    R7        2.63606   0.00914   0.00000   0.01896   0.01896   2.65502
    R8        2.03007   0.01247   0.00000   0.03291   0.03291   2.06298
    R9        2.69394  -0.02104   0.00000  -0.04914  -0.04914   2.64481
   R10        2.63395   0.01241   0.00000   0.02594   0.02595   2.65990
   R11        2.76419  -0.00861   0.00000  -0.02277  -0.02277   2.74142
   R12        2.70958  -0.01656   0.00000  -0.03980  -0.03980   2.66978
   R13        2.05678   0.01043   0.00000   0.02884   0.02884   2.08562
   R14        2.05604   0.00477   0.00000   0.01317   0.01317   2.06921
   R15        2.05714   0.00914   0.00000   0.02527   0.02527   2.08241
   R16        2.63643   0.00694   0.00000   0.01397   0.01397   2.65040
   R17        2.63618   0.00812   0.00000   0.01648   0.01648   2.65265
   R18        2.60213   0.01645   0.00000   0.03234   0.03234   2.63446
   R19        2.03331   0.01170   0.00000   0.03106   0.03106   2.06436
   R20        2.61094   0.01230   0.00000   0.02516   0.02517   2.63611
   R21        2.03698   0.01031   0.00000   0.02754   0.02754   2.06452
   R22        2.61074   0.01365   0.00000   0.02788   0.02789   2.63863
   R23        2.03693   0.01032   0.00000   0.02757   0.02757   2.06451
   R24        2.60150   0.01556   0.00000   0.03060   0.03060   2.63210
   R25        2.03690   0.01034   0.00000   0.02762   0.02762   2.06452
   R26        2.03368   0.01123   0.00000   0.02983   0.02983   2.06351
   R27        2.59988   0.01368   0.00000   0.02699   0.02700   2.62688
   R28        2.03283   0.01054   0.00000   0.02797   0.02797   2.06079
   R29        2.60953   0.01402   0.00000   0.02817   0.02817   2.63770
   R30        2.03692   0.01031   0.00000   0.02755   0.02755   2.06447
   R31        2.03475   0.01182   0.00000   0.03146   0.03146   2.06622
    A1        1.94088   0.00058   0.00000   0.00428   0.00424   1.94513
    A2        1.93357   0.00063   0.00000   0.00164   0.00164   1.93521
    A3        1.93959   0.00130   0.00000   0.00869   0.00866   1.94826
    A4        1.88446  -0.00110   0.00000  -0.00856  -0.00856   1.87590
    A5        1.87846  -0.00018   0.00000   0.00277   0.00271   1.88117
    A6        1.88451  -0.00137   0.00000  -0.00964  -0.00964   1.87486
    A7        2.10330  -0.00136   0.00000  -0.00501  -0.00501   2.09828
    A8        2.10639   0.00061   0.00000   0.00252   0.00252   2.10891
    A9        2.07300   0.00077   0.00000   0.00283   0.00277   2.07577
   A10        2.12255   0.00028   0.00000   0.00055   0.00052   2.12307
   A11        2.07353  -0.00097   0.00000  -0.00513  -0.00512   2.06842
   A12        2.08708   0.00069   0.00000   0.00457   0.00459   2.09167
   A13        2.12055  -0.00688   0.00000  -0.02629  -0.02633   2.09422
   A14        2.06089   0.00166   0.00000   0.00602   0.00594   2.06683
   A15        2.10152   0.00520   0.00000   0.01986   0.01979   2.12131
   A16        2.07921  -0.00388   0.00000  -0.01497  -0.01502   2.06418
   A17        2.13508   0.00077   0.00000   0.00280   0.00274   2.13782
   A18        2.06861   0.00310   0.00000   0.01172   0.01166   2.08027
   A19        1.92168   0.00477   0.00000   0.02892   0.02880   1.95047
   A20        1.93486  -0.00464   0.00000  -0.02954  -0.02938   1.90548
   A21        1.92302   0.00301   0.00000   0.01888   0.01870   1.94172
   A22        1.88224  -0.00069   0.00000  -0.00676  -0.00656   1.87568
   A23        1.90629  -0.00294   0.00000  -0.01214  -0.01255   1.89373
   A24        1.89495   0.00034   0.00000  -0.00024  -0.00014   1.89481
   A25        2.11320  -0.00296   0.00000  -0.01031  -0.01036   2.10284
   A26        2.10440   0.00070   0.00000   0.00368   0.00362   2.10802
   A27        2.06556   0.00226   0.00000   0.00652   0.00644   2.07201
   A28        2.10652  -0.00043   0.00000  -0.00298  -0.00300   2.10352
   A29        2.07842   0.00111   0.00000   0.00678   0.00678   2.08519
   A30        2.09791  -0.00067   0.00000  -0.00357  -0.00358   2.09433
   A31        2.09730   0.00101   0.00000   0.00561   0.00558   2.10289
   A32        2.09310  -0.00114   0.00000  -0.00651  -0.00652   2.08657
   A33        2.09278   0.00013   0.00000   0.00086   0.00084   2.09362
   A34        2.09279  -0.00323   0.00000  -0.01134  -0.01134   2.08145
   A35        2.09516   0.00154   0.00000   0.00522   0.00522   2.10038
   A36        2.09524   0.00169   0.00000   0.00612   0.00612   2.10135
   A37        2.09607   0.00133   0.00000   0.00719   0.00717   2.10323
   A38        2.09356  -0.00001   0.00000   0.00020   0.00017   2.09374
   A39        2.09355  -0.00132   0.00000  -0.00742  -0.00744   2.08611
   A40        2.10813  -0.00093   0.00000  -0.00499  -0.00501   2.10312
   A41        2.07303   0.00104   0.00000   0.00585   0.00584   2.07887
   A42        2.10191  -0.00010   0.00000  -0.00075  -0.00075   2.10116
   A43        2.10926  -0.00338   0.00000  -0.01391  -0.01392   2.09534
   A44        2.07719   0.00328   0.00000   0.01627   0.01626   2.09345
   A45        2.09653   0.00010   0.00000  -0.00223  -0.00224   2.09429
   A46        2.09680   0.00323   0.00000   0.01503   0.01501   2.11181
   A47        2.09348  -0.00241   0.00000  -0.01212  -0.01211   2.08137
   A48        2.09289  -0.00083   0.00000  -0.00293  -0.00292   2.08997
   A49        2.10376  -0.00256   0.00000  -0.01041  -0.01045   2.09331
   A50        2.08165   0.00177   0.00000   0.00806   0.00807   2.08972
   A51        2.09777   0.00079   0.00000   0.00233   0.00235   2.10011
    D1       -2.67783  -0.00037   0.00000  -0.00118  -0.00119  -2.67902
    D2        0.49819  -0.00073   0.00000  -0.01274  -0.01278   0.48541
    D3        1.50952   0.00021   0.00000   0.00569   0.00571   1.51523
    D4       -1.59765  -0.00015   0.00000  -0.00587  -0.00588  -1.60353
    D5       -0.58553   0.00066   0.00000   0.01100   0.01104  -0.57449
    D6        2.59049   0.00030   0.00000  -0.00056  -0.00056   2.58994
    D7       -3.12478   0.00010   0.00000   0.00200   0.00208  -3.12271
    D8        0.02380   0.00014   0.00000   0.00285   0.00298   0.02678
    D9       -0.01697   0.00045   0.00000   0.01333   0.01345  -0.00352
   D10        3.13161   0.00049   0.00000   0.01419   0.01436  -3.13722
   D11        3.11816  -0.00036   0.00000  -0.00920  -0.00910   3.10906
   D12       -0.01855  -0.00018   0.00000  -0.00372  -0.00366  -0.02221
   D13        0.01041  -0.00067   0.00000  -0.02040  -0.02040  -0.00999
   D14       -3.12630  -0.00049   0.00000  -0.01493  -0.01496  -3.14126
   D15        3.13368  -0.00042   0.00000  -0.01519  -0.01488   3.11881
   D16        0.01490   0.00015   0.00000   0.00504   0.00513   0.02003
   D17       -0.01495  -0.00047   0.00000  -0.01609  -0.01583  -0.03078
   D18       -3.13373   0.00010   0.00000   0.00413   0.00417  -3.12956
   D19       -0.30570  -0.00001   0.00000  -0.00068  -0.00077  -0.30646
   D20        2.80965  -0.00044   0.00000  -0.02094  -0.02090   2.78875
   D21        2.81256  -0.00064   0.00000  -0.02157  -0.02161   2.79095
   D22       -0.35528  -0.00107   0.00000  -0.04183  -0.04174  -0.39702
   D23       -0.00632  -0.00055   0.00000  -0.01690  -0.01690  -0.02322
   D24        3.11374  -0.00037   0.00000  -0.01043  -0.01049   3.10325
   D25       -3.12536   0.00017   0.00000   0.00373   0.00406  -3.12130
   D26       -0.00530   0.00035   0.00000   0.01020   0.01047   0.00517
   D27        1.18194   0.00049   0.00000  -0.00085  -0.00059   1.18135
   D28       -3.01988  -0.00025   0.00000  -0.00939  -0.00941  -3.02929
   D29       -0.92179  -0.00085   0.00000  -0.01645  -0.01664  -0.93843
   D30       -1.93441   0.00093   0.00000   0.01875   0.01898  -1.91544
   D31        0.14696   0.00019   0.00000   0.01021   0.01016   0.15711
   D32        2.24505  -0.00041   0.00000   0.00315   0.00293   2.24798
   D33        2.36192  -0.00068   0.00000  -0.03103  -0.03098   2.33094
   D34       -0.78638  -0.00129   0.00000  -0.05147  -0.05135  -0.83774
   D35       -0.80577  -0.00120   0.00000  -0.05155  -0.05167  -0.85744
   D36        2.32911  -0.00182   0.00000  -0.07200  -0.07205   2.25707
   D37        3.13784  -0.00080   0.00000  -0.02465  -0.02455   3.11329
   D38       -0.03193  -0.00047   0.00000  -0.01507  -0.01497  -0.04690
   D39        0.00281  -0.00019   0.00000  -0.00464  -0.00458  -0.00177
   D40        3.11623   0.00014   0.00000   0.00494   0.00500   3.12123
   D41       -3.13732   0.00027   0.00000   0.00925   0.00939  -3.12793
   D42       -0.01217   0.00053   0.00000   0.01690   0.01703   0.00486
   D43       -0.00225  -0.00035   0.00000  -0.01072  -0.01070  -0.01295
   D44        3.12289  -0.00009   0.00000  -0.00306  -0.00306   3.11984
   D45       -0.00193   0.00055   0.00000   0.01530   0.01533   0.01341
   D46        3.13603   0.00013   0.00000   0.00344   0.00346   3.13949
   D47       -3.11503   0.00019   0.00000   0.00545   0.00554  -3.10949
   D48        0.02293  -0.00023   0.00000  -0.00642  -0.00634   0.01659
   D49        0.00042  -0.00037   0.00000  -0.01063  -0.01064  -0.01022
   D50       -3.14130  -0.00029   0.00000  -0.00815  -0.00817   3.13372
   D51       -3.13754   0.00005   0.00000   0.00125   0.00130  -3.13624
   D52        0.00393   0.00013   0.00000   0.00373   0.00377   0.00771
   D53        0.00014  -0.00017   0.00000  -0.00465  -0.00467  -0.00453
   D54       -3.13839   0.00027   0.00000   0.00802   0.00805  -3.13034
   D55       -3.14133  -0.00025   0.00000  -0.00714  -0.00715   3.13471
   D56        0.00332   0.00019   0.00000   0.00554   0.00558   0.00890
   D57        0.00081   0.00053   0.00000   0.01541   0.01542   0.01623
   D58       -3.12407   0.00025   0.00000   0.00756   0.00763  -3.11644
   D59        3.13934   0.00009   0.00000   0.00275   0.00277  -3.14108
   D60        0.01447  -0.00019   0.00000  -0.00509  -0.00503   0.00943
   D61        0.00016   0.00034   0.00000   0.01014   0.01014   0.01030
   D62        3.13676   0.00020   0.00000   0.00626   0.00622  -3.14020
   D63       -3.11966   0.00012   0.00000   0.00337   0.00350  -3.11616
   D64        0.01694  -0.00002   0.00000  -0.00051  -0.00042   0.01652
   D65       -0.00220   0.00027   0.00000   0.00891   0.00885   0.00665
   D66        3.13447   0.00009   0.00000   0.00340   0.00339   3.13786
   D67       -3.13880   0.00042   0.00000   0.01281   0.01281  -3.12599
   D68       -0.00213   0.00025   0.00000   0.00730   0.00735   0.00522
         Item               Value     Threshold  Converged?
 Maximum Force            0.021036     0.000450     NO 
 RMS     Force            0.005515     0.000300     NO 
 Maximum Displacement     0.205096     0.001800     NO 
 RMS     Displacement     0.056924     0.001200     NO 
 Predicted change in Energy=-6.184846D-03
 GradGradGradGradGradGradGradGradGradGradGradGradGradGradGradGradGradGrad

                          Input orientation:                          
 ---------------------------------------------------------------------
 Center     Atomic      Atomic             Coordinates (Angstroms)
 Number     Number       Type             X           Y           Z
 ---------------------------------------------------------------------
      1          6           0       -4.471354    1.436151    0.164801
      2          6           0       -3.254020    0.556066    0.300413
      3          6           0       -2.028208    0.960311   -0.241870
      4          6           0       -0.880994    0.154163   -0.152532
      5          7           0        0.320182    0.580215   -0.730853
      6          6           0        0.267888    1.635923   -1.724466
      7          6           0        1.575354    0.060292   -0.343311
      8          6           0        2.512487   -0.331565   -1.310432
      9          6           0        3.764015   -0.813197   -0.929359
     10          6           0        4.097326   -0.927677    0.420360
     11          6           0        3.167268   -0.542583    1.388012
     12          6           0        1.921875   -0.044234    1.012947
     13          6           0       -0.990029   -1.098443    0.480174
     14          6           0       -2.204777   -1.500699    1.023240
     15          6           0       -3.333912   -0.684116    0.942433
     16          1           0       -5.187377    1.260273    0.980206
     17          1           0       -4.995246    1.238285   -0.784156
     18          1           0       -4.203736    2.502926    0.177005
     19          1           0       -1.972620    1.931280   -0.737756
     20          1           0       -0.034381    2.600341   -1.281073
     21          1           0        1.264174    1.771389   -2.158098
     22          1           0       -0.436535    1.387413   -2.534622
     23          1           0        2.248793   -0.273466   -2.368947
     24          1           0        4.481159   -1.115877   -1.695936
     25          1           0        5.076063   -1.312311    0.716443
     26          1           0        3.420151   -0.617470    2.448197
     27          1           0        1.204930    0.278287    1.770808
     28          1           0       -0.124239   -1.759502    0.531690
     29          1           0       -2.274340   -2.475008    1.512500
     30          1           0       -4.284838   -1.012946    1.370360
 ---------------------------------------------------------------------
                    Distance matrix (angstroms):
                    1          2          3          4          5
     1  C    0.000000
     2  C    1.508258   0.000000
     3  C    2.522056   1.400036   0.000000
     4  C    3.825556   2.449069   1.404975   0.000000
     5  N    4.949106   3.720083   2.428686   1.399571   0.000000
     6  C    5.105845   4.203577   2.815422   2.446736   1.450697
     7  C    6.222046   4.897247   3.715641   2.465533   1.412786
     8  C    7.353583   6.052712   4.840319   3.618339   2.444065
     9  C    8.606862   7.255346   6.096542   4.807843   3.720348
    10  C    8.892429   7.500545   6.444007   5.126622   4.226801
    11  C    7.984998   6.604759   5.648732   4.387158   3.722386
    12  C    6.616969   5.259084   4.264603   3.042002   2.448713
    13  C    4.317783   2.809870   2.416119   1.407561   2.449721
    14  C    3.807805   2.419437   2.772769   2.423512   3.712474
    15  C    2.528640   1.398794   2.410721   2.813978   4.213173
    16  H    1.099321   2.167001   3.400558   4.588192   5.807186
    17  H    1.101877   2.161846   3.028970   4.301318   5.356275
    18  H    1.099899   2.169667   2.699637   4.082388   4.998686
    19  H    2.702487   2.147323   1.091685   2.166167   2.661272
    20  H    4.809639   4.128709   2.782982   2.823853   2.123527
    21  H    6.197139   5.285392   3.894812   3.352530   2.084957
    22  H    4.854794   4.082498   2.823571   2.718971   2.116075
    23  H    7.382618   6.172079   4.933498   3.858876   2.670517
    24  H    9.493297   8.161728   6.985465   5.722568   4.595850
    25  H    9.950454   8.547175   7.520229   6.196143   5.319278
    26  H    8.468005   7.108777   6.277775   5.085180   4.598979
    27  H    6.011664   4.703345   3.869006   2.840021   2.670626
    28  H    5.407793   3.900112   3.408941   2.168629   2.695515
    29  H    4.684051   3.408275   3.865205   3.409734   4.593317
    30  H    2.736099   2.160826   3.403734   3.907365   5.306550
                    6          7          8          9         10
     6  C    0.000000
     7  C    2.469751   0.000000
     8  C    3.013413   1.402531   0.000000
     9  C    4.342037   2.428307   1.394098   0.000000
    10  C    5.083003   2.814182   2.421302   1.394971   0.000000
    11  C    4.779101   2.427988   2.784756   2.408225   1.396301
    12  C    3.612759   1.403723   2.414430   2.785200   2.421615
    13  C    3.730891   2.932914   4.007742   4.966799   5.090572
    14  C    4.847922   4.312023   5.391241   6.317577   6.356754
    15  C    5.046572   5.129150   6.275355   7.341719   7.453536
    16  H    6.100514   6.994725   8.189559   9.384729   9.555431
    17  H    5.361239   6.689903   7.688137   8.997462   9.424284
    18  H    4.935859   6.295639   7.440058   8.700906   8.985315
    19  H    2.465909   4.030423   5.056146   6.362221   6.808753
    20  H    1.103660   3.149999   3.883744   5.118960   5.693223
    21  H    1.094977   2.513591   2.588288   3.799880   4.686166
    22  H    1.101963   3.257421   3.626328   5.006413   5.886209
    23  H    2.825793   2.160582   1.092412   2.158616   3.409590
    24  H    5.032382   3.414186   2.153933   1.092497   2.159040
    25  H    6.145622   3.906671   3.412039   2.163157   1.092490
    26  H    5.694352   3.413964   3.877227   3.400652   2.160305
    27  H    3.864991   2.157367   3.402303   3.877004   3.412333
    28  H    4.095475   2.639298   3.519197   4.260127   4.304177
    29  H    5.817269   4.969097   5.956258   6.722055   6.647190
    30  H    6.109154   6.199222   7.338567   8.373329   8.436258
                   11         12         13         14         15
    11  C    0.000000
    12  C    1.392849   0.000000
    13  C    4.291418   3.142354   0.000000
    14  C    5.468995   4.376145   1.390087   0.000000
    15  C    6.517969   5.295066   2.424693   1.395810   0.000000
    16  H    8.556675   7.228020   4.840588   4.064569   2.686523
    17  H    8.632290   7.260923   4.806307   4.307601   3.071931
    18  H    8.066806   6.686549   4.836288   4.554225   3.391123
    19  H    6.087474   4.704754   3.409994   3.864387   3.393590
    20  H    5.220396   4.010392   4.206692   5.180637   5.159316
    21  H    4.642319   3.712759   4.503093   5.732459   6.065080
    22  H    5.665628   4.494102   3.946496   4.911848   4.977544
    23  H    3.876953   3.405383   4.391816   5.731257   6.503881
    24  H    3.400839   3.877679   5.888095   7.227983   8.259706
    25  H    2.164944   3.412452   6.074458   7.289735   8.436432
    26  H    1.092497   2.152526   4.853260   5.869446   6.920198
    27  H    2.161280   1.091963   2.894644   3.917875   4.713122
    28  H    3.612229   2.712993   1.090526   2.153424   3.409863
    29  H    5.775886   4.875083   2.147110   1.092471   2.157537
    30  H    7.466956   6.292014   3.414016   2.164498   1.093394
                   16         17         18         19         20
    16  H    0.000000
    17  H    1.774928   0.000000
    18  H    1.776758   1.774722   0.000000
    19  H    3.706252   3.101397   2.478194   0.000000
    20  H    5.784681   5.168395   4.418031   2.121228   0.000000
    21  H    7.192545   6.430572   5.990483   3.538329   1.772732
    22  H    5.911064   4.885511   4.773792   2.425712   1.790058
    23  H    8.298542   7.567896   7.471636   5.034085   3.828200
    24  H   10.309627   9.806920   9.593281   7.201010   5.862805
    25  H   10.584231  10.497076  10.047969   7.894271   6.739106
    26  H    8.931430   9.203849   8.545105   6.762277   6.016273
    27  H    6.515438   6.774335   6.061591   4.372883   4.030112
    28  H    5.912323   5.868977   5.910701   4.318551   4.722543
    29  H    4.766701   5.144560   5.503267   4.956820   6.211331
    30  H    2.476756   3.196038   3.713763   4.296391   6.176757
                   21         22         23         24         25
    21  H    0.000000
    22  H    1.783710   0.000000
    23  H    2.279334   3.161795   0.000000
    24  H    4.347285   5.581538   2.479125   0.000000
    25  H    5.683545   6.945982   4.311878   2.492402   0.000000
    26  H    5.618970   6.612266   4.969436   4.306737   2.494758
    27  H    4.203470   4.739335   4.304841   4.969475   4.315942
    28  H    4.650790   4.404869   4.031536   5.156187   5.222763
    29  H    6.635229   5.888550   6.353829   7.601188   7.484249
    30  H    7.141014   5.984985   7.564230   9.287382   9.388487
                   26         27         28         29         30
    26  H    0.000000
    27  H    2.483634   0.000000
    28  H    4.188070   2.730327   0.000000
    29  H    6.062442   4.444398   2.469184   0.000000
    30  H    7.790057   5.653777   4.309443   2.489966   0.000000
 Stoichiometry    C14H15N
[...]
     2  C   -0.000672  -0.000023  -0.000004  -0.000004   0.000074   0.000251
     3  C    0.004016   0.000874   0.000074   0.000107  -0.001095   0.002287
     4  C   -0.148904  -0.010382  -0.000321   0.001127  -0.003797   0.029067
     5  N    0.267712  -0.039994   0.004503   0.000886   0.008332  -0.057223
     6  C   -0.075948  -0.008141   0.000978  -0.000129   0.000515  -0.003558
     7  C    5.057950   0.470616  -0.029792  -0.082240  -0.008731   0.404238
     8  C    0.470616   5.038935   0.463625   0.009824  -0.055528   0.020524
     9  C   -0.029792   0.463625   4.870923   0.455156  -0.001825  -0.058785
    10  C   -0.082240   0.009824   0.455156   4.948333   0.433905   0.032838
    11  C   -0.008731  -0.055528  -0.001825   0.433905   4.937231   0.403460
    12  C    0.404238   0.020524  -0.058785   0.032838   0.403460   5.118617
    13  C    0.005470   0.004822  -0.000081   0.000420  -0.002034  -0.001888
    14  C   -0.002310   0.000016  -0.000040  -0.000002   0.000125   0.002428
    15  C    0.000404   0.000083  -0.000001   0.000003  -0.000015   0.000017
    16  H   -0.000001  -0.000000   0.000000  -0.000000   0.000000   0.000000
    17  H    0.000005  -0.000000  -0.000000  -0.000000   0.000000  -0.000000
    18  H   -0.000008   0.000000   0.000000   0.000000  -0.000000   0.000000
    19  H   -0.000988  -0.000027   0.000009  -0.000000  -0.000010   0.000203
    20  H   -0.007187   0.003376   0.000176   0.000078  -0.000929   0.004501
    21  H   -0.007810  -0.004069  -0.000136  -0.000164   0.000505  -0.000403
    22  H    0.014619  -0.000669  -0.000254  -0.000032   0.000164  -0.001435
    23  H   -0.051901   0.425001  -0.033119   0.007906  -0.002622   0.008689
    24  H    0.014612  -0.055756   0.441847  -0.057633   0.011564  -0.004523
    25  H   -0.003678   0.011129  -0.055967   0.443757  -0.056162   0.011725
    26  H    0.012764  -0.003402   0.010561  -0.056854   0.440908  -0.054229
    27  H   -0.041825   0.008289  -0.002046   0.007874  -0.041824   0.432206
    28  H    0.001828   0.000224   0.000245   0.000174  -0.000484  -0.003675
    29  H    0.000088  -0.000011   0.000003  -0.000004   0.000012  -0.000068
    30  H   -0.000003  -0.000000  -0.000000   0.000000  -0.000000   0.000004
              13         14         15         16         17         18
     1  C   -0.002340   0.014023  -0.067746   0.423669   0.408242   0.412653
     2  C   -0.065345  -0.008510   0.507307  -0.058593  -0.034439  -0.039445
     3  C    0.032507  -0.083620  -0.006969   0.010768  -0.006432  -0.004004
     4  C    0.387035  -0.011205  -0.080969  -0.000119  -0.000130   0.000072
     5  N   -0.062597   0.002999   0.000088   0.000007  -0.000000  -0.000044
     6  C    0.012478  -0.000986   0.000581   0.000007  -0.000044   0.000000
     7  C    0.005470  -0.002310   0.000404  -0.000001   0.000005  -0.000008
     8  C    0.004822   0.000016   0.000083  -0.000000  -0.000000   0.000000
     9  C   -0.000081  -0.000040  -0.000001   0.000000  -0.000000   0.000000
    10  C    0.000420  -0.000002   0.000003  -0.000000  -0.000000   0.000000
    11  C   -0.002034   0.000125  -0.000015   0.000000   0.000000  -0.000000
    12  C   -0.001888   0.002428   0.000017   0.000000  -0.000000   0.000000
    13  C    5.091304   0.471481   0.018620  -0.000001   0.000443   0.000044
    14  C    0.471481   4.884779   0.447998   0.001400  -0.000593  -0.000468
    15  C    0.018620   0.447998   5.049586  -0.004046  -0.002401  -0.001054
    16  H   -0.000001   0.001400  -0.004046   0.546645  -0.020786  -0.021216
    17  H    0.000443  -0.000593  -0.002401  -0.020786   0.561665  -0.033754
    18  H    0.000044  -0.000468  -0.001054  -0.021216  -0.033754   0.561432
    19  H    0.003312  -0.000601   0.007737   0.000024   0.000476  -0.000095
    20  H   -0.000397  -0.000188   0.000201  -0.000002  -0.000024   0.000048
    21  H   -0.000460   0.000071  -0.000027   0.000000   0.000000  -0.000001
    22  H    0.001020   0.000002  -0.000274   0.000001   0.000064  -0.000013
    23  H   -0.000167   0.000010   0.000001  -0.000000  -0.000000   0.000000
    24  H    0.000007   0.000001  -0.000000   0.000000   0.000000  -0.000000
    25  H    0.000002  -0.000000   0.000000  -0.000000  -0.000000   0.000000
    26  H   -0.000114  -0.000010  -0.000001   0.000000  -0.000000  -0.000000
    27  H   -0.000323   0.000007   0.000027  -0.000000   0.000000   0.000000
    28  H    0.432916  -0.039142   0.007512  -0.000003   0.000002  -0.000003
    29  H   -0.057920   0.444497  -0.061565  -0.000037   0.000012   0.000011
    30  H    0.010802  -0.051726   0.436012   0.003434   0.000080   0.000064
              19         20         21         22         23         24
     1  C   -0.000291   0.000015   0.000001  -0.000129   0.000000  -0.000000
     2  C   -0.019730  -0.001100   0.000149   0.001301  -0.000003   0.000000
     3  C    0.419133   0.011106  -0.000011  -0.003840   0.000040  -0.000003
     4  C   -0.056867  -0.008617   0.007817  -0.006407   0.000803  -0.000022
     5  N   -0.005931  -0.052285  -0.026792  -0.045437   0.006271  -0.000241
     6  C    0.004383   0.405894   0.407089   0.414680  -0.002626   0.000028
     7  C   -0.000988  -0.007187  -0.007810   0.014619  -0.051901   0.014612
     8  C   -0.000027   0.003376  -0.004069  -0.000669   0.425001  -0.055756
     9  C    0.000009   0.000176  -0.000136  -0.000254  -0.033119   0.441847
    10  C   -0.000000   0.000078  -0.000164  -0.000032   0.007906  -0.057633
    11  C   -0.000010  -0.000929   0.000505   0.000164  -0.002622   0.011564
    12  C    0.000203   0.004501  -0.000403  -0.001435   0.008689  -0.004523
    13  C    0.003312  -0.000397  -0.000460   0.001020  -0.000167   0.000007
    14  C   -0.000601  -0.000188   0.000071   0.000002   0.000010   0.000001
    15  C    0.007737   0.000201  -0.000027  -0.000274   0.000001  -0.000000
    16  H    0.000024  -0.000002   0.000000   0.000001  -0.000000   0.000000
    17  H    0.000476  -0.000024   0.000000   0.000064  -0.000000   0.000000
    18  H   -0.000095   0.000048  -0.000001  -0.000013   0.000000  -0.000000
    19  H    0.524652   0.004101   0.000358  -0.006981   0.000005  -0.000000
    20  H    0.004101   0.592321  -0.027000  -0.049070   0.000650  -0.000010
    21  H    0.000358  -0.027000   0.519336  -0.012157  -0.003015   0.000041
    22  H   -0.006981  -0.049070  -0.012157   0.557292  -0.000698   0.000007
    23  H    0.000005   0.000650  -0.003015  -0.000698   0.512213  -0.007134
    24  H   -0.000000  -0.000010   0.000041   0.000007  -0.007134   0.544113
    25  H    0.000000  -0.000000  -0.000001   0.000000  -0.000091  -0.006876
    26  H    0.000000   0.000002   0.000002  -0.000001   0.000033  -0.000142
    27  H    0.000016   0.000505  -0.000176  -0.000037  -0.000143   0.000015
    28  H   -0.000173   0.000034  -0.000028  -0.000004  -0.000030  -0.000007
    29  H    0.000034  -0.000000  -0.000000   0.000000  -0.000000   0.000000
    30  H   -0.000181   0.000001  -0.000000  -0.000001   0.000000  -0.000000
              25         26         27         28         29         30
     1  C    0.000000   0.000000  -0.000007   0.000047  -0.000231  -0.011346
     2  C   -0.000000   0.000001  -0.000074  -0.001323   0.013038  -0.062415
     3  C    0.000000   0.000004   0.001329   0.007391  -0.003815   0.020260
     4  C    0.000005   0.000065   0.001230  -0.048169   0.013600  -0.003726
     5  N    0.000013  -0.000216  -0.004114  -0.003607  -0.000176   0.000032
     6  C   -0.000002   0.000004   0.000075  -0.000205   0.000013   0.000004
     7  C   -0.003678   0.012764  -0.041825   0.001828   0.000088  -0.000003
     8  C    0.011129  -0.003402   0.008289   0.000224  -0.000011  -0.000000
     9  C   -0.055967   0.010561  -0.002046   0.000245   0.000003  -0.000000
    10  C    0.443757  -0.056854   0.007874   0.000174  -0.000004   0.000000
    11  C   -0.056162   0.440908  -0.041824  -0.000484   0.000012  -0.000000
    12  C    0.011725  -0.054229   0.432206  -0.003675  -0.000068   0.000004
    13  C    0.000002  -0.000114  -0.000323   0.432916  -0.057920   0.010802
    14  C   -0.000000  -0.000010   0.000007  -0.039142   0.444497  -0.051726
    15  C    0.000000  -0.000001   0.000027   0.007512  -0.061565   0.436012
    16  H   -0.000000   0.000000  -0.000000  -0.000003  -0.000037   0.003434
    17  H   -0.000000  -0.000000   0.000000   0.000002   0.000012   0.000080
    18  H    0.000000  -0.000000   0.000000  -0.000003   0.000011   0.000064
    19  H    0.000000   0.000000   0.000016  -0.000173   0.000034  -0.000181
    20  H   -0.000000   0.000002   0.000505   0.000034  -0.000000   0.000001
    21  H   -0.000001   0.000002  -0.000176  -0.000028  -0.000000  -0.000000
    22  H    0.000000  -0.000001  -0.000037  -0.000004   0.000000  -0.000001
    23  H   -0.000091   0.000033  -0.000143  -0.000030  -0.000000   0.000000
    24  H   -0.006876  -0.000142   0.000015  -0.000007   0.000000  -0.000000
    25  H    0.542375  -0.006817  -0.000080   0.000003  -0.000000   0.000000
    26  H   -0.006817   0.541552  -0.006397  -0.000000   0.000001   0.000000
    27  H   -0.000080  -0.006397   0.499307  -0.000729  -0.000003   0.000001
    28  H    0.000003  -0.000000  -0.000729   0.508246  -0.007101  -0.000140
    29  H   -0.000000   0.000001  -0.000003  -0.007101   0.553322  -0.006940
    30  H    0.000000   0.000000   0.000001  -0.000140  -0.006940   0.562129
 Mulliken charges:
               1
     1  C   -0.375106
     2  C    0.185920
     3  C   -0.395025
     4  C    0.262998
     5  N   -0.060110
     6  C   -0.310010
     7  C    0.207670
     8  C   -0.279335
     9  C   -0.065729
    10  C   -0.145327
    11  C   -0.061739
    12  C   -0.285274
    13  C   -0.279014
    14  C   -0.070435
    15  C   -0.251110
    16  H    0.118850
    17  H    0.127615
    18  H    0.125779
    19  H    0.127434
    20  H    0.123801
    21  H    0.146881
    22  H    0.138285
    23  H    0.139927
    24  H    0.120113
    25  H    0.120666
    26  H    0.122285
    27  H    0.146894
    28  H    0.146200
    29  H    0.113240
    30  H    0.103656
 Sum of Mulliken charges =  -0.00000
 Mulliken charges with hydrogens summed into heavy atoms:
               1
     1  C   -0.002862
     2  C    0.185920
     3  C   -0.267591
     4  C    0.262998
     5  N   -0.060110
     6  C    0.098957
     7  C    0.207670
     8  C   -0.139408
     9  C    0.054384
    10  C   -0.024661
    11  C    0.060546
    12  C   -0.138380
    13  C   -0.132814
    14  C    0.042805
    15  C   -0.147454
 Electronic spatial extent (au):  <R**2>=           3795.9223
 Charge=             -0.0000 electrons
 Dipole moment (field-independent basis, Debye):
    X=              0.6486    Y=              0.9694    Z=              0.3151  Tot=              1.2082
 Quadrupole moment (field-independent basis, Debye-Ang):
   XX=            -82.4076   YY=            -83.8191   ZZ=            -90.8330
   XY=             -1.6642   XZ=             -2.4904   YZ=             -1.5548
 Traceless Quadrupole moment (field-independent basis, Debye-Ang):
   XX=              3.2789   YY=              1.8674   ZZ=             -5.1464
   XY=             -1.6642   XZ=             -2.4904   YZ=             -1.5548
 Octapole moment (field-independent basis, Debye-Ang**2):
  XXX=              8.7490  YYY=              7.7525  ZZZ=              4.4207  XYY=             -4.0973
  XXY=             -7.6054  XXZ=             -3.6781  XZZ=              8.0455  YZZ=              1.6859
  YYZ=             -2.4840  XYZ=            -13.8428
 Hexadecapole moment (field-independent basis, Debye-Ang**3):
 XXXX=          -3850.2182 YYYY=           -829.8163 ZZZZ=           -339.0320 XXXY=            -32.4993
 XXXZ=            -52.9862 YYYX=             10.7796 YYYZ=              4.5730 ZZZX=            -15.0795
 ZZZY=            -15.1006 XXYY=           -808.8531 XXZZ=           -755.2182 YYZZ=           -190.4394
 XXYZ=            -32.2624 YYXZ=             14.8492 ZZXY=            -10.4988
 N-N= 9.145571818383D+02 E-N=-3.214592747830D+03  KE= 5.938392168885D+02
 Breneman (CHELPG) radii used.
 Read replacement radii for each type of atom:
 Atom Element Radius
    1     6    1.50
    2     6    1.50
    3     6    1.50
    4     6    1.50
    5     7    1.70
    6     6    1.50
    7     6    1.50
    8     6    1.50
    9     6    1.50
   10     6    1.50
   11     6    1.50
   12     6    1.50
   13     6    1.50
   14     6    1.50
   15     6    1.50
   16     1    1.45
   17     1    1.45
   18     1    1.45
   19     1    1.45
   20     1    1.45
   21     1    1.45
   22     1    1.45
   23     1    1.45
   24     1    1.45
   25     1    1.45
   26     1    1.45
   27     1    1.45
   28     1    1.45
   29     1    1.45
   30     1    1.45
 Generate Potential Derived Charges using the Breneman model, NDens= 1.
 Grid spacing= 0.300 Box extension= 2.800
 NStep X,Y,Z=   55     39     31   Total possible points=       66495
 Number of Points to Fit=   18511

 **********************************************************************

            Electrostatic Properties Using The SCF Density.

 **********************************************************************

       Atomic Center    1 is at  -4.580788  0.582092  0.537690
       Atomic Center    2 is at  -3.270526 -0.039625  0.126138
       Atomic Center    3 is at  -2.095377  0.720860  0.190509
       Atomic Center    4 is at  -0.851319  0.189996 -0.184781
       Atomic Center    5 is at   0.307364  0.967228 -0.154026
       Atomic Center    6 is at   0.204875  2.391902  0.074837
       Atomic Center    7 is at   1.583862  0.366696 -0.010459
       Atomic Center    8 is at   2.631785  0.736070 -0.862150
       Atomic Center    9 is at   3.900034  0.181048 -0.704855
       Atomic Center   10 is at   4.134598 -0.766543  0.290241
       Atomic Center   11 is at   3.091266 -1.147332  1.134447
       Atomic Center   12 is at   1.828159 -0.579088  0.994377
       Atomic Center   13 is at  -0.809425 -1.144759 -0.639845
       Atomic Center   14 is at  -1.970645 -1.899681 -0.694481
       Atomic Center   15 is at  -3.202256 -1.360217 -0.315597
       Atomic Center   16 is at  -5.403617 -0.144645  0.491327
       Atomic Center   17 is at  -4.840178  1.427819 -0.118502
       Atomic Center   18 is at  -4.530323  0.971426  1.566398
       Atomic Center   19 is at  -2.166457  1.747463  0.552757
       Atomic Center   20 is at  -0.113352  2.634703  1.106820
       Atomic Center   21 is at   1.184490  2.857166 -0.087731
       Atomic Center   22 is at  -0.512689  2.851118 -0.623017
       Atomic Center   23 is at   2.440445  1.458012 -1.659234
       Atomic Center   24 is at   4.706991  0.480775 -1.377263
       Atomic Center   25 is at   5.126211 -1.208463  0.406875
       Atomic Center   26 is at   3.265147 -1.885574  1.920585
       Atomic Center   27 is at   1.013679 -0.870420  1.660798
       Atomic Center   28 is at   0.138790 -1.579688 -0.958122
       Atomic Center   29 is at  -1.917534 -2.930995 -1.051595
       Atomic Center   30 is at  -4.108622 -1.967806 -0.368343
   18511 points will be used for fitting atomic charges
 Fitting point charges to electrostatic potential
 Charges from ESP fit, RMS=   0.00367 RRMS=   0.37761:
 ESP charges:
               1
     1  C   -0.279199
     2  C    0.258862
     3  C   -0.392491
     4  C    0.406662
     5  N   -0.427526
     6  C    0.073188
     7  C    0.359772
     8  C   -0.232603
     9  C   -0.065785
    10  C   -0.139441
    11  C   -0.085972
    12  C   -0.150898
    13  C   -0.280678
    14  C   -0.014036
    15  C   -0.297023
    16  H    0.085406
    17  H    0.072466
    18  H    0.070839
    19  H    0.163639
    20  H    0.007069
    21  H    0.027665
    22  H    0.028459
    23  H    0.129651
    24  H    0.094240
    25  H    0.100742
    26  H    0.099354
    27  H    0.082766
    28  H    0.092383
    29  H    0.092983
    30  H    0.119506
 Sum of ESP charges =  -0.00000
 ESP charges with hydrogens summed into heavy atoms:
               1
     1  C   -0.050488
     2  C    0.258862
     3  C   -0.228852
     4  C    0.406662
     5  N   -0.427526
     6  C    0.136380
     7  C    0.359772
     8  C   -0.102952
     9  C    0.028455
    10  C   -0.038698
    11  C    0.013382
    12  C   -0.068132
    13  C   -0.188295
    14  C    0.078947
    15  C   -0.177517
 Charge=  -0.00000 Dipole=     0.6677     0.9658     0.2815 Tot=     1.2074
 -----------------------------------------------------------------

              Electrostatic Properties (Atomic Units)

 -----------------------------------------------------------------
    Center     Electric         -------- Electric Field --------
               Potential          X             Y             Z
 -----------------------------------------------------------------
    1 Atom    -14.775309
    2 Atom    -14.766097
    3 Atom    -14.783427
    4 Atom    -14.730458
    5 Atom    -18.361372
    6 Atom    -14.736369
    7 Atom    -14.726860
    8 Atom    -14.767957
    9 Atom    -14.765106
   10 Atom    -14.768697
   11 Atom    -14.765857
   12 Atom    -14.769360
   13 Atom    -14.783828
   14 Atom    -14.777639
   15 Atom    -14.788186
   16 Atom     -1.121711
   17 Atom     -1.119277
   18 Atom     -1.119423
   19 Atom     -1.112208
   20 Atom     -1.115613
   21 Atom     -1.104878
   22 Atom     -1.111335
   23 Atom     -1.101175
   24 Atom     -1.104216
   25 Atom     -1.106060
   26 Atom     -1.105327
   27 Atom     -1.104475
   28 Atom     -1.116042
   29 Atom     -1.116640
   30 Atom     -1.119857
 -----------------------------------------------------------------
 Unable to Open any file for archive entry.
 1\1\GINC-NOTCH389\SP\RwB97XD\def2TZVP\C14H15N1\U1366379\17-Feb-2026\0\
 \#N Guess=Read Geom=Check Integral(Ultrafine) Density Pop=(ChelpG,Read
 Radii) NMR wB97XD def2TZVP\\prod_5d_4\\0,1\C,0,-4.4502540644,1.4276491
 338,0.2236571021\C,0,-3.246309938,0.5238733533,0.3036688383\C,0,-2.037
 8848128,0.9309929754,-0.2772101828\C,0,-0.8895650226,0.1248983463,-0.2
 334843275\N,0,0.2985377357,0.5220048819,-0.8485445494\C,0,0.3014671057
 ,1.682275795,-1.7124539692\C,0,1.5508436598,0.0316665678,-0.3991056264
 \C,0,2.4809537496,-0.4638744607,-1.3206752588\C,0,3.7293701738,-0.9119
 005736,-0.8940876727\C,0,4.0585707438,-0.892242165,0.4603146423\C,0,3.
 1313397365,-0.4105357089,1.3846672384\C,0,1.891167213,0.0581320704,0.9
 600720718\C,0,-0.9807650575,-1.1254569928,0.4135892479\C,0,-2.17373360
 62,-1.5237634262,0.9962559997\C,0,-3.3088035485,-0.7109127176,0.947991
 3942\H,0,-5.3062430977,1.0075696207,0.7696971841\H,0,-4.7598090185,1.5
 817328714,-0.8220761055\H,0,-4.2315092761,2.4197411275,0.6482408377\H,
 0,-2.004358997,1.9067830129,-0.7639341389\H,0,0.1490756286,2.626856899
 4,-1.15589877\H,0,1.268999083,1.7516911104,-2.2239304423\H,0,-0.486124
 6436,1.6037328914,-2.478161336\H,0,2.2120030114,-0.5047445033,-2.37857
 3737\H,0,4.4439601,-1.2946953557,-1.6261932457\H,0,5.0333567667,-1.252
 5484852,0.7952226024\H,0,3.3806366232,-0.3862581829,2.4479213778\H,0,1
 .1686913458,0.4435183578,1.6824810814\H,0,-0.1117136811,-1.7836649102,
 0.4465805989\H,0,-2.2245048533,-2.4966595359,1.4910855595\H,0,-4.24233
 30591,-1.0416419973,1.4090635859\\Version=ES64L-G16RevC.01\State=1-A\H
 F=-597.278831\RMSD=3.388e-09\Dipole=0.2891649,0.31577,-0.2064275\Quadr
 upole=1.6326873,-1.7490279,0.1163406,-2.9361222,-0.8647735,-2.3049915\
 PG=C01 [X(C14H15N1)]\\@
 The archive entry for this job was punched.


 IT IS THE BEHAVIOR AND DISTRIBUTION OF THE ELECTRONS 
 AROUND THE NUCLEUS THAT GIVES THE FUNDAMENTAL 
 CHARACTER OF AN ATOM:  IT MUST BE THE SAME FOR MOLECULES.

                               -- C. A. COULSON, 1951
 Job cpu time:       0 days  0 hours 58 minutes 51.8 seconds.
 Elapsed time:       0 days  0 hours  7 minutes 35.9 seconds.
 File lengths (MBytes):  RWF=    190 Int=      0 D2E=      0 Chk=     29 Scr=      2
 Normal termination of Gaussian 16 at Tue Feb 17 16:39:59 2026.
