 Entering Gaussian System, Link 0=g16
 Input=prod_5l_2.com
 Output=prod_5l_2.log
 Initial command:
 /uufs/chpc.utah.edu/sys/installdir/gaussian16/C01/AVX/g16/l1.exe "/scratch/general/vast/u1366379/GAUSSSCRDIR/11028705-notchpeak.peaks/Gau-1511724.inp" -scrdir="/scratch/general/vast/u1366379/GAUSSSCRDIR/11028705-notchpeak.peaks/"
 Entering Link 1 = /uufs/chpc.utah.edu/sys/installdir/gaussian16/C01/AVX/g16/l1.exe PID=   1511730.
  
 Copyright (c) 1988-2019, Gaussian, Inc.  All Rights Reserved.
  
 This is part of the Gaussian(R) 16 program.  It is based on
 the Gaussian(R) 09 system (copyright 2009, Gaussian, Inc.),
 the Gaussian(R) 03 system (copyright 2003, Gaussian, Inc.),
 the Gaussian(R) 98 system (copyright 1998, Gaussian, Inc.),
 the Gaussian(R) 94 system (copyright 1995, Gaussian, Inc.),
 the Gaussian 92(TM) system (copyright 1992, Gaussian, Inc.),
 the Gaussian 90(TM) system (copyright 1990, Gaussian, Inc.),
 the Gaussian 88(TM) system (copyright 1988, Gaussian, Inc.),
 the Gaussian 86(TM) system (copyright 1986, Carnegie Mellon
 University), and the Gaussian 82(TM) system (copyright 1983,
 Carnegie Mellon University). Gaussian is a federally registered
 trademark of Gaussian, Inc.
  
 This software contains proprietary and confidential information,
 including trade secrets, belonging to Gaussian, Inc.
  
 This software is provided under written license and may be
 used, copied, transmitted, or stored only in accord with that
 written license.
  
 The following legend is applicable only to US Government
 contracts under FAR:
  
                    RESTRICTED RIGHTS LEGEND
  
 Use, reproduction and disclosure by the US Government is
 subject to restrictions as set forth in subparagraphs (a)
 and (c) of the Commercial Computer Software - Restricted
 Rights clause in FAR 52.227-19.
  
 Gaussian, Inc.
 340 Quinnipiac St., Bldg. 40, Wallingford CT 06492
  
  
 ---------------------------------------------------------------
 Warning -- This program may not be used in any manner that
 competes with the business of Gaussian, Inc. or will provide
 assistance to any competitor of Gaussian, Inc.  The licensee
 of this program is prohibited from giving any competitor of
 Gaussian, Inc. access to this program.  By using this program,
 the user acknowledges that Gaussian, Inc. is engaged in the
 business of creating and licensing software in the field of
 computational chemistry and represents and warrants to the
 licensee that it is not a competitor of Gaussian, Inc. and that
 it will not use this program in any manner prohibited above.
 ---------------------------------------------------------------
  

 Cite this work as:
 Gaussian 16, Revision C.01,
 M. J. Frisch, G. W. Trucks, H. B. Schlegel, G. E. Scuseria, 
 M. A. Robb, J. R. Cheeseman, G. Scalmani, V. Barone, 
 G. A. Petersson, H. Nakatsuji, X. Li, M. Caricato, A. V. Marenich, 
 J. Bloino, B. G. Janesko, R. Gomperts, B. Mennucci, H. P. Hratchian, 
 J. V. Ortiz, A. F. Izmaylov, J. L. Sonnenberg, D. Williams-Young, 
 F. Ding, F. Lipparini, F. Egidi, J. Goings, B. Peng, A. Petrone, 
 T. Henderson, D. Ranasinghe, V. G. Zakrzewski, J. Gao, N. Rega, 
 G. Zheng, W. Liang, M. Hada, M. Ehara, K. Toyota, R. Fukuda, 
 J. Hasegawa, M. Ishida, T. Nakajima, Y. Honda, O. Kitao, H. Nakai, 
 T. Vreven, K. Throssell, J. A. Montgomery, Jr., J. E. Peralta, 
 F. Ogliaro, M. J. Bearpark, J. J. Heyd, E. N. Brothers, K. N. Kudin, 
 V. N. Staroverov, T. A. Keith, R. Kobayashi, J. Normand, 
 K. Raghavachari, A. P. Rendell, J. C. Burant, S. S. Iyengar, 
 J. Tomasi, M. Cossi, J. M. Millam, M. Klene, C. Adamo, R. Cammi, 
 J. W. Ochterski, R. L. Martin, K. Morokuma, O. Farkas, 
 J. B. Foresman, and D. J. Fox, Gaussian, Inc., Wallingford CT, 2019.
 
 ******************************************
 Gaussian 16:  ES64L-G16RevC.01  3-Jul-2019
                17-Feb-2026 
 ******************************************
 %NProcShared=8
 Will use up to    8 processors via shared memory.
 %Mem=8GB
 %chk=prod_5l_2.chk
 ------------------------------------------------------
 #N OPT FREQ=NORAMAN Integral(Ultrafine) wB97XD def2SVP
 ------------------------------------------------------
 1/18=20,19=15,26=4,38=1/1,3;
 2/9=110,12=2,17=6,18=5,40=1/2;
 3/5=43,7=101,11=2,25=1,30=1,71=1,74=-58,75=-5/1,2,3;
 4//1;
 5/5=2,38=5/2;
 6/7=2,8=2,9=2,10=2,28=1/1;
 7//1,2,3,16;
 1/18=20,19=15,26=4/3(2);
 2/9=110/2;
 99//99;
 2/9=110/2;
 3/5=43,7=101,11=2,25=1,30=1,71=1,74=-58,75=-5/1,2,3;
 4/5=5,16=3,69=1/1;
 5/5=2,38=5/2;
 7//1,2,3,16;
 1/18=20,19=15,26=4/3(-5);
 2/9=110/2;
 6/7=2,8=2,9=2,10=2,19=2,28=1/1;
 99/9=1/99;
 ---------
 prod_5l_2
 ---------
 Symbolic Z-matrix:
 Charge =  0 Multiplicity = 1
 O                     0.34056   1.64451   1.22027 
 S                     0.04034   1.15948  -0.16844 
 N                     0.89911  -0.23014  -0.66568 
 C                     2.20685  -0.42161  -0.21662 
 C                     2.76201   0.26895   0.86805 
 C                     4.05366   0.03737   1.27501 
 C                     4.8316   -0.89263   0.61545 
 C                     4.30847  -1.59196  -0.4538 
 C                     3.01636  -1.36317  -0.86481 
 C                    -1.56744   0.36414  -0.07659 
 C                    -1.81259  -0.56493   0.90535 
 C                    -3.04659  -1.1789    0.97757 
 C                    -4.04329  -0.87142   0.0624 
 C                    -5.38265  -1.51237   0.15681 
 C                    -3.78024   0.07643  -0.91624 
 C                    -2.54527   0.68854  -0.98567 
 O                     0.01963   2.08313  -1.35246 
 H                     0.7995   -0.18612  -1.65746 
 H                     2.15645   0.99078   1.38379 
 H                     4.45981   0.58356   2.11054 
 H                     5.84468  -1.07293   0.93504 
 H                     4.91471  -2.31961  -0.96781 
 H                     2.6049   -1.91017  -1.69472 
 H                    -1.03617  -0.79877   1.61508 
 H                    -3.24533  -1.90118   1.75045 
 H                    -5.85411  -1.58475  -0.82368 
 H                    -5.30781  -2.52149   0.56297 
 H                    -6.04192  -0.93566   0.80609 
 H                    -4.55093   0.33435  -1.62194 
 H                    -2.33292   1.42618  -1.74228 
 

 GradGradGradGradGradGradGradGradGradGradGradGradGradGradGradGradGradGrad
 Berny optimization.
 Initialization pass.
                           ----------------------------
                           !    Initial Parameters    !
                           ! (Angstroms and Degrees)  !
 --------------------------                            --------------------------
 ! Name  Definition              Value          Derivative Info.                !
 --------------------------------------------------------------------------------
 ! R1    R(1,2)                  1.5013         estimate D2E/DX2                !
 ! R2    R(2,3)                  1.7076         estimate D2E/DX2                !
 ! R3    R(2,10)                 1.7961         estimate D2E/DX2                !
 ! R4    R(2,17)                 1.5018         estimate D2E/DX2                !
 ! R5    R(3,4)                  1.3959         estimate D2E/DX2                !
 ! R6    R(3,18)                 0.9977         estimate D2E/DX2                !
 ! R7    R(4,5)                  1.4006         estimate D2E/DX2                !
 ! R8    R(4,9)                  1.4007         estimate D2E/DX2                !
 ! R9    R(5,6)                  1.3739         estimate D2E/DX2                !
 ! R10   R(5,19)                 1.0741         estimate D2E/DX2                !
 ! R11   R(6,7)                  1.3803         estimate D2E/DX2                !
 ! R12   R(6,20)                 1.0777         estimate D2E/DX2                !
 ! R13   R(7,8)                  1.3806         estimate D2E/DX2                !
 ! R14   R(7,21)                 1.0775         estimate D2E/DX2                !
 ! R15   R(8,9)                  1.3751         estimate D2E/DX2                !
 ! R16   R(8,22)                 1.0776         estimate D2E/DX2                !
 ! R17   R(9,23)                 1.0758         estimate D2E/DX2                !
 ! R18   R(10,11)                1.3739         estimate D2E/DX2                !
 ! R19   R(10,16)                1.374          estimate D2E/DX2                !
 ! R20   R(11,12)                1.3802         estimate D2E/DX2                !
 ! R21   R(11,24)                1.0776         estimate D2E/DX2                !
 ! R22   R(12,13)                1.3876         estimate D2E/DX2                !
 ! R23   R(12,25)                1.0764         estimate D2E/DX2                !
 ! R24   R(13,14)                1.4878         estimate D2E/DX2                !
 ! R25   R(13,15)                1.3876         estimate D2E/DX2                !
 ! R26   R(14,26)                1.0904         estimate D2E/DX2                !
 ! R27   R(14,27)                1.0904         estimate D2E/DX2                !
 ! R28   R(14,28)                1.0903         estimate D2E/DX2                !
 ! R29   R(15,16)                1.3801         estimate D2E/DX2                !
 ! R30   R(15,29)                1.0763         estimate D2E/DX2                !
 ! R31   R(16,30)                1.0778         estimate D2E/DX2                !
 ! A1    A(1,2,3)              115.5759         estimate D2E/DX2                !
 ! A2    A(1,2,10)             105.948          estimate D2E/DX2                !
 ! A3    A(1,2,17)             122.2304         estimate D2E/DX2                !
 ! A4    A(3,2,10)              96.0109         estimate D2E/DX2                !
 ! A5    A(3,2,17)             106.1327         estimate D2E/DX2                !
 ! A6    A(10,2,17)            107.4765         estimate D2E/DX2                !
 ! A7    A(2,3,4)              119.2821         estimate D2E/DX2                !
 ! A8    A(2,3,18)             101.7326         estimate D2E/DX2                !
 ! A9    A(4,3,18)             114.7944         estimate D2E/DX2                !
 ! A10   A(3,4,5)              123.5637         estimate D2E/DX2                !
 ! A11   A(3,4,9)              118.9972         estimate D2E/DX2                !
 ! A12   A(5,4,9)              117.4347         estimate D2E/DX2                !
 ! A13   A(4,5,6)              121.2613         estimate D2E/DX2                !
 ! A14   A(4,5,19)             118.6677         estimate D2E/DX2                !
 ! A15   A(6,5,19)             120.0709         estimate D2E/DX2                !
 ! A16   A(5,6,7)              120.1261         estimate D2E/DX2                !
 ! A17   A(5,6,20)             119.9032         estimate D2E/DX2                !
 ! A18   A(7,6,20)             119.9707         estimate D2E/DX2                !
 ! A19   A(6,7,8)              119.8565         estimate D2E/DX2                !
 ! A20   A(6,7,21)             120.0624         estimate D2E/DX2                !
 ! A21   A(8,7,21)             120.0811         estimate D2E/DX2                !
 ! A22   A(7,8,9)              120.2167         estimate D2E/DX2                !
 ! A23   A(7,8,22)             119.8877         estimate D2E/DX2                !
 ! A24   A(9,8,22)             119.8956         estimate D2E/DX2                !
 ! A25   A(4,9,8)              121.1034         estimate D2E/DX2                !
 ! A26   A(4,9,23)             118.5387         estimate D2E/DX2                !
 ! A27   A(8,9,23)             120.3576         estimate D2E/DX2                !
 ! A28   A(2,10,11)            119.7183         estimate D2E/DX2                !
 ! A29   A(2,10,16)            119.9124         estimate D2E/DX2                !
 ! A30   A(11,10,16)           120.3692         estimate D2E/DX2                !
 ! A31   A(10,11,12)           119.8522         estimate D2E/DX2                !
 ! A32   A(10,11,24)           119.2695         estimate D2E/DX2                !
 ! A33   A(12,11,24)           120.8769         estimate D2E/DX2                !
 ! A34   A(11,12,13)           120.605          estimate D2E/DX2                !
 ! A35   A(11,12,25)           120.0773         estimate D2E/DX2                !
 ! A36   A(13,12,25)           119.3173         estimate D2E/DX2                !
 ! A37   A(12,13,14)           120.617          estimate D2E/DX2                !
 ! A38   A(12,13,15)           118.7086         estimate D2E/DX2                !
 ! A39   A(14,13,15)           120.6433         estimate D2E/DX2                !
 ! A40   A(13,14,26)           111.1482         estimate D2E/DX2                !
 ! A41   A(13,14,27)           111.1338         estimate D2E/DX2                !
 ! A42   A(13,14,28)           110.7472         estimate D2E/DX2                !
 ! A43   A(26,14,27)           107.6504         estimate D2E/DX2                !
 ! A44   A(26,14,28)           108.0084         estimate D2E/DX2                !
 ! A45   A(27,14,28)           108.0114         estimate D2E/DX2                !
 ! A46   A(13,15,16)           120.5372         estimate D2E/DX2                !
 ! A47   A(13,15,29)           119.365          estimate D2E/DX2                !
 ! A48   A(16,15,29)           120.0974         estimate D2E/DX2                !
 ! A49   A(10,16,15)           119.9232         estimate D2E/DX2                !
 ! A50   A(10,16,30)           119.0674         estimate D2E/DX2                !
 ! A51   A(15,16,30)           121.0086         estimate D2E/DX2                !
 ! D1    D(1,2,3,4)            -34.0639         estimate D2E/DX2                !
 ! D2    D(1,2,3,18)          -161.4743         estimate D2E/DX2                !
 ! D3    D(10,2,3,4)          -144.9611         estimate D2E/DX2                !
 ! D4    D(10,2,3,18)           87.6285         estimate D2E/DX2                !
 ! D5    D(17,2,3,4)           104.8686         estimate D2E/DX2                !
 ! D6    D(17,2,3,18)          -22.5418         estimate D2E/DX2                !
 ! D7    D(1,2,10,11)          -49.4222         estimate D2E/DX2                !
 ! D8    D(1,2,10,16)          130.4795         estimate D2E/DX2                !
 ! D9    D(3,2,10,11)           69.3652         estimate D2E/DX2                !
 ! D10   D(3,2,10,16)         -110.7331         estimate D2E/DX2                !
 ! D11   D(17,2,10,11)         178.3957         estimate D2E/DX2                !
 ! D12   D(17,2,10,16)          -1.7026         estimate D2E/DX2                !
 ! D13   D(2,3,4,5)             16.2301         estimate D2E/DX2                !
 ! D14   D(2,3,4,9)           -164.5572         estimate D2E/DX2                !
 ! D15   D(18,3,4,5)           137.2843         estimate D2E/DX2                !
 ! D16   D(18,3,4,9)           -43.503          estimate D2E/DX2                !
 ! D17   D(3,4,5,6)            179.6187         estimate D2E/DX2                !
 ! D18   D(3,4,5,19)            -0.3664         estimate D2E/DX2                !
 ! D19   D(9,4,5,6)              0.3946         estimate D2E/DX2                !
 ! D20   D(9,4,5,19)          -179.5905         estimate D2E/DX2                !
 ! D21   D(3,4,9,8)           -179.6359         estimate D2E/DX2                !
 ! D22   D(3,4,9,23)             0.2018         estimate D2E/DX2                !
 ! D23   D(5,4,9,8)             -0.3751         estimate D2E/DX2                !
 ! D24   D(5,4,9,23)           179.4626         estimate D2E/DX2                !
 ! D25   D(4,5,6,7)             -0.1663         estimate D2E/DX2                !
 ! D26   D(4,5,6,20)           179.8024         estimate D2E/DX2                !
 ! D27   D(19,5,6,7)           179.8186         estimate D2E/DX2                !
 ! D28   D(19,5,6,20)           -0.2128         estimate D2E/DX2                !
 ! D29   D(5,6,7,8)             -0.0957         estimate D2E/DX2                !
 ! D30   D(5,6,7,21)           179.9568         estimate D2E/DX2                !
 ! D31   D(20,6,7,8)           179.9357         estimate D2E/DX2                !
 ! D32   D(20,6,7,21)           -0.0118         estimate D2E/DX2                !
 ! D33   D(6,7,8,9)              0.1145         estimate D2E/DX2                !
 ! D34   D(6,7,8,22)          -179.8737         estimate D2E/DX2                !
 ! D35   D(21,7,8,9)          -179.938          estimate D2E/DX2                !
 ! D36   D(21,7,8,22)            0.0738         estimate D2E/DX2                !
 ! D37   D(7,8,9,4)              0.1281         estimate D2E/DX2                !
 ! D38   D(7,8,9,23)          -179.7067         estimate D2E/DX2                !
 ! D39   D(22,8,9,4)          -179.8837         estimate D2E/DX2                !
 ! D40   D(22,8,9,23)            0.2815         estimate D2E/DX2                !
 ! D41   D(2,10,11,12)        -179.9272         estimate D2E/DX2                !
 ! D42   D(2,10,11,24)           0.5049         estimate D2E/DX2                !
 ! D43   D(16,10,11,12)          0.1716         estimate D2E/DX2                !
 ! D44   D(16,10,11,24)       -179.3963         estimate D2E/DX2                !
 ! D45   D(2,10,16,15)         179.9259         estimate D2E/DX2                !
 ! D46   D(2,10,16,30)          -0.4019         estimate D2E/DX2                !
 ! D47   D(11,10,16,15)         -0.173          estimate D2E/DX2                !
 ! D48   D(11,10,16,30)        179.4991         estimate D2E/DX2                !
 ! D49   D(10,11,12,13)          0.3011         estimate D2E/DX2                !
 ! D50   D(10,11,12,25)       -179.4827         estimate D2E/DX2                !
 ! D51   D(24,11,12,13)        179.8618         estimate D2E/DX2                !
 ! D52   D(24,11,12,25)          0.078          estimate D2E/DX2                !
 ! D53   D(11,12,13,14)       -178.739          estimate D2E/DX2                !
 ! D54   D(11,12,13,15)         -0.7567         estimate D2E/DX2                !
 ! D55   D(25,12,13,14)          1.0464         estimate D2E/DX2                !
 ! D56   D(25,12,13,15)        179.0288         estimate D2E/DX2                !
 ! D57   D(12,13,14,26)       -151.4744         estimate D2E/DX2                !
 ! D58   D(12,13,14,27)        -31.6016         estimate D2E/DX2                !
 ! D59   D(12,13,14,28)         88.4592         estimate D2E/DX2                !
 ! D60   D(15,13,14,26)         30.5825         estimate D2E/DX2                !
 ! D61   D(15,13,14,27)        150.4553         estimate D2E/DX2                !
 ! D62   D(15,13,14,28)        -89.4839         estimate D2E/DX2                !
 ! D63   D(12,13,15,16)          0.7548         estimate D2E/DX2                !
 ! D64   D(12,13,15,29)       -179.0408         estimate D2E/DX2                !
 ! D65   D(14,13,15,16)        178.7365         estimate D2E/DX2                !
 ! D66   D(14,13,15,29)         -1.059          estimate D2E/DX2                !
 ! D67   D(13,15,16,10)         -0.298          estimate D2E/DX2                !
 ! D68   D(13,15,16,30)       -179.9637         estimate D2E/DX2                !
 ! D69   D(29,15,16,10)        179.496          estimate D2E/DX2                !
 ! D70   D(29,15,16,30)         -0.1696         estimate D2E/DX2                !
 --------------------------------------------------------------------------------
 Trust Radius=3.00D-01 FncErr=1.00D-07 GrdErr=1.00D-06 EigMax=2.50D+02 EigMin=1.00D-04
 Number of steps in this run=    162 maximum allowed number of steps=    180.
 GradGradGradGradGradGradGradGradGradGradGradGradGradGradGradGradGradGrad

                          Input orientation:                          
 ---------------------------------------------------------------------
 Center     Atomic      Atomic             Coordinates (Angstroms)
 Number     Number       Type             X           Y           Z
 ---------------------------------------------------------------------
      1          8           0        0.340560    1.644510    1.220270
      2         16           0        0.040340    1.159480   -0.168440
      3          7           0        0.899110   -0.230140   -0.665680
      4          6           0        2.206850   -0.421610   -0.216620
      5          6           0        2.762010    0.268950    0.868050
      6          6           0        4.053660    0.037370    1.275010
      7          6           0        4.831600   -0.892630    0.615450
      8          6           0        4.308470   -1.591960   -0.453800
      9          6           0        3.016360   -1.363170   -0.864810
     10          6           0       -1.567440    0.364140   -0.076590
     11          6           0       -1.812590   -0.564930    0.905350
     12          6           0       -3.046590   -1.178900    0.977570
     13          6           0       -4.043290   -0.871420    0.062400
     14          6           0       -5.382650   -1.512370    0.156810
     15          6           0       -3.780240    0.076430   -0.916240
     16          6           0       -2.545270    0.688540   -0.985670
     17          8           0        0.019630    2.083130   -1.352460
     18          1           0        0.799500   -0.186120   -1.657460
     19          1           0        2.156450    0.990780    1.383790
     20          1           0        4.459810    0.583560    2.110540
     21          1           0        5.844680   -1.072930    0.935040
     22          1           0        4.914710   -2.319610   -0.967810
     23          1           0        2.604900   -1.910170   -1.694720
     24          1           0       -1.036170   -0.798770    1.615080
     25          1           0       -3.245330   -1.901180    1.750450
     26          1           0       -5.854110   -1.584750   -0.823680
     27          1           0       -5.307810   -2.521490    0.562970
     28          1           0       -6.041920   -0.935660    0.806090
     29          1           0       -4.550930    0.334350   -1.621940
     30          1           0       -2.332920    1.426180   -1.742280
 ---------------------------------------------------------------------
                    Distance matrix (angstroms):
                    1          2          3          4          5
     1  O    0.000000
     2  S    1.501300   0.000000
     3  N    2.717186   1.707565   0.000000
     4  C    3.133136   2.682524   1.395887   0.000000
     5  C    2.807070   3.045463   2.464105   1.400566   0.000000
     6  C    4.046357   4.410149   3.713358   2.417919   1.373902
     7  C    5.193489   5.270845   4.188635   2.793477   2.386688
     8  C    5.387166   5.086137   3.677388   2.417184   2.757138
     9  C    4.533608   3.963003   2.409597   1.400711   2.394016
    10  C    2.638495   1.796095   2.604624   3.857755   4.432329
    11  C    3.101105   2.749539   3.151751   4.175554   4.650130
    12  C    4.416258   4.038626   4.378238   5.440424   5.987328
    13  C    5.185432   4.566604   5.036731   6.272514   6.947059
    14  C    6.622082   6.054204   6.463831   7.676569   8.367464
    15  C    4.899443   4.040920   4.696071   6.048368   6.783936
    16  C    3.756070   2.752277   3.579123   4.940295   5.637336
    17  O    2.629510   1.501819   2.568340   3.513942   3.967690
    18  H    3.441390   2.145727   0.997741   2.027834   3.230594
    19  H    1.936894   2.629791   2.696642   2.135111   1.074118
    20  H    4.345850   5.005712   4.587820   3.391441   2.127272
    21  H    6.145012   6.315986   5.266048   3.870962   3.362735
    22  H    6.436209   6.041733   4.536762   3.391046   3.834728
    23  H    5.124466   4.281267   2.605982   2.135190   3.367646
    24  H    2.832115   2.859119   3.044752   3.743602   4.015501
    25  H    5.070662   4.883176   5.080004   5.982036   6.447963
    26  H    7.278722   6.534882   6.889551   8.167037   8.974167
    27  H    7.049233   6.533545   6.729467   7.841388   8.544099
    28  H    6.896729   6.506397   7.130341   8.327808   8.886175
    29  H    5.807009   4.886027   5.562016   6.943629   7.725504
    30  H    3.996482   2.860151   3.787939   5.133369   5.840489
                    6          7          8          9         10
     6  C    0.000000
     7  C    1.380257   0.000000
     8  C    2.389232   1.380588   0.000000
     9  C    2.759771   2.389074   1.375072   0.000000
    10  C    5.790541   6.557904   6.204428   4.961463   0.000000
    11  C    5.908663   6.658580   6.353696   5.204749   1.373854
    12  C    7.209808   7.891702   7.504422   6.339376   2.383298
    13  C    8.237531   8.892131   8.398663   7.137240   2.770516
    14  C    9.627877  10.243307   9.710664   8.462230   4.258121
    15  C    8.134684   8.800508   8.271917   6.947580   2.384171
    16  C    7.005753   7.712451   7.242742   5.929237   1.373977
    17  O    5.230882   5.990231   5.719093   4.592949   2.664876
    18  H    4.386215   4.682212   3.967122   2.632149   2.899024
    19  H    2.126083   3.360656   3.831250   3.367006   4.048795
    20  H    1.077679   2.133696   3.366249   3.837449   6.415561
    21  H    2.134502   1.077486   2.134996   3.364980   7.617617
    22  H    3.365561   2.133047   1.077593   2.128173   7.072132
    23  H    3.835507   3.366076   2.131500   1.075760   5.019886
    24  H    5.169250   5.953049   5.785723   4.784496   2.120461
    25  H    7.566986   8.218406   7.874911   6.807187   3.359325
    26  H   10.256689  10.804375  10.169311   8.873332   4.767794
    27  H    9.730976  10.269546   9.714458   8.524791   4.767207
    28  H   10.153197  10.875276  10.447422   9.221014   4.742318
    29  H    9.084024   9.723336   9.141345   7.792220   3.360090
    30  H    7.198697   7.890888   7.407929   6.096329   2.118587
                   11         12         13         14         15
    11  C    0.000000
    12  C    1.380192   0.000000
    13  C    2.404272   1.387621   0.000000
    14  C    3.768724   2.498405   1.487822   0.000000
    15  C    2.757024   2.387595   1.387570   2.498688   0.000000
    16  C    2.384106   2.755534   2.403329   3.768287   1.380091
    17  O    3.932805   5.046938   5.219053   6.662593   4.319276
    18  H    3.678927   4.766697   5.184609   6.577955   4.646758
    19  H    4.289804   5.651916   6.606863   8.037989   6.431987
    20  H    6.489570   7.793326   8.866485  10.251049   8.793009
    21  H    7.674160   8.892003   9.928447  11.262845   9.868503
    22  H    7.200291   8.274540   9.132598  10.389997   9.019192
    23  H    5.299458   6.294063   6.954488   8.208981   6.732208
    24  H    1.077602   2.143060   3.385094   4.639791   3.834511
    25  H    2.133659   1.076350   2.132290   2.694253   3.362782
    26  H    4.512589   3.360266   2.138468   1.090355   2.658763
    27  H    4.020188   2.662247   2.138297   1.090362   3.357189
    28  H    4.246708   3.010079   2.133477   1.090319   3.017606
    29  H    3.833328   3.363096   2.132740   2.695568   1.076336
    30  H    3.353387   3.833191   3.385440   4.641387   2.144505
                   16         17         18         19         20
    16  C    0.000000
    17  O    2.942470   0.000000
    18  H    3.521905   2.418826   0.000000
    19  H    5.273695   3.639546   3.532083   0.000000
    20  H    7.659548   5.827202   5.309247   2.449380   0.000000
    21  H    8.785395   7.008893   5.741196   4.250096   2.458378
    22  H    8.043668   6.594989   4.686401   4.908839   4.255769
    23  H    5.812082   4.769403   2.496639   4.253686   4.913185
    24  H    3.354605   4.269234   3.801913   3.667261   5.688771
    25  H    3.831852   6.013546   5.560210   6.138167   8.103874
    26  H    4.017774   6.945054   6.849955   8.699158  10.940208
    27  H    4.509346   7.297466   6.905324   8.290052  10.365457
    28  H    4.251469   7.107378   7.309987   8.441456  10.690929
    29  H    2.133767   4.901109   5.375802   7.379313   9.756380
    30  H    1.077805   2.473466   3.524026   5.487835   7.854643
                   21         22         23         24         25
    21  H    0.000000
    22  H    2.457619   0.000000
    23  H    4.255912   2.455863   0.000000
    24  H    6.919806   6.663126   5.044539   0.000000
    25  H    9.164015   8.611055   6.789291   2.472655   0.000000
    26  H   11.841315  10.794826   8.509962   5.456909   3.678588
    27  H   11.252324  10.338470   8.251173   4.724575   2.459414
    28  H   11.888092  11.185248   9.053796   5.072547   3.105634
    29  H   10.797559   9.852397   7.499938   4.910784   4.251494
    30  H    8.960287   8.195053   5.959493   4.231292   4.909479
                   26         27         28         29         30
    26  H    0.000000
    27  H    1.760319   0.000000
    28  H    1.764296   1.764336   0.000000
    29  H    2.453251   3.674578   3.119504   0.000000
    30  H    4.723167   5.454195   5.082240   2.475105   0.000000
 Stoichiometry    C13H13NO2S
 Framework group  C1[X(C13H13NO2S)]
 Deg. of freedom    84
 Full point group                 C1      NOp   1
 Largest Abelian subgroup         C1      NOp   1
 Largest concise Abelian subgroup C1      NOp   1
                         Standard orientation:                         
 ---------------------------------------------------------------------
 Center     Atomic      Atomic             Coordinates (Angstroms)
 Number     Number       Type             X           Y           Z
 ---------------------------------------------------------------------
      1          8           0        0.425665    1.390944    1.527570
      2         16           0        0.069445    1.206627    0.080838
      3          7           0        0.900532   -0.045943   -0.729187
      4          6           0        2.223487   -0.323888   -0.381285
      5          6           0        2.823912    0.125694    0.801487
      6          6           0        4.128941   -0.182699    1.100485
      7          6           0        4.875617   -0.952057    0.231190
      8          6           0        4.307741   -1.413363   -0.939595
      9          6           0        3.002081   -1.106851   -1.243116
     10          6           0       -1.538093    0.405640    0.066581
     11          6           0       -1.750516   -0.709021    0.841102
     12          6           0       -2.984283   -1.327608    0.831105
     13          6           0       -4.013724   -0.837863    0.039971
     14          6           0       -5.352070   -1.487742    0.050101
     15          6           0       -3.783181    0.294516   -0.728090
     16          6           0       -2.548348    0.910702   -0.715794
     17          8           0        0.008397    2.357623   -0.881940
     18          1           0        0.763056    0.204475   -1.685157
     19          1           0        2.242767    0.722037    1.479996
     20          1           0        4.570056    0.177494    2.015400
     21          1           0        5.899213   -1.192718    0.466372
     22          1           0        4.889600   -2.015757   -1.617658
     23          1           0        2.555872   -1.469026   -2.152503
     24          1           0       -0.948681   -1.084304    1.455471
     25          1           0       -3.157209   -2.196179    1.442831
     26          1           0       -5.861340   -1.354444   -0.904755
     27          1           0       -5.267372   -2.559338    0.232855
     28          1           0       -5.982566   -1.061394    0.830805
     29          1           0       -4.578999    0.692516   -1.333705
     30          1           0       -2.361109    1.790921   -1.308937
 ---------------------------------------------------------------------
 Rotational constants (GHZ):           1.0381749           0.2155955           0.2023331
 Standard basis: def2SVP (5D, 7F)
 There are   324 symmetry adapted cartesian basis functions of A   symmetry.
 There are   307 symmetry adapted basis functions of A   symmetry.
   307 basis functions,   528 primitive gaussians,   324 cartesian basis functions
    65 alpha electrons       65 beta electrons
       nuclear repulsion energy      1294.4691661622 Hartrees.
 NAtoms=   30 NActive=   30 NUniq=   30 SFac= 1.00D+00 NAtFMM=   60 NAOKFM=F Big=F
 Integral buffers will be    131072 words long.
 Raffenetti 2 integral format.
 Two-electron integral symmetry is turned on.
 Nuclear repulsion after empirical dispersion term =     1294.4510372558 Hartrees.
 One-electron integrals computed using PRISM.
   1 Symmetry operations used in ECPInt.
 ECPInt:  NShTT=   10296 NPrTT=   38220 LenC2=    9217 LenP2D=   24163.
 LDataN:  DoStor=T MaxTD1= 4 Len=   56
 NBasis=   307 RedAO= T EigKep=  2.45D-04  NBF=   307
 NBsUse=   307 1.00D-06 EigRej= -1.00D+00 NBFU=   307
 ExpMin= 1.22D-01 ExpMax= 9.18D+03 ExpMxC= 1.38D+03 IAcc=3 IRadAn=         5 AccDes= 0.00D+00
 Harris functional with IExCor= 4639 and IRadAn=       5 diagonalized for initial guess.
 HarFok:  IExCor= 4639 AccDes= 0.00D+00 IRadAn=         5 IDoV= 1 UseB2=F ITyADJ=14
 ICtDFT=  3500011 ScaDFX=  1.000000  1.000000  1.000000  1.000000
 FoFCou: FMM=F IPFlag=           0 FMFlag=      100000 FMFlg1=           0
         NFxFlg=           0 DoJE=T BraDBF=F KetDBF=T FulRan=T
         wScrn=  0.000000 ICntrl=       500 IOpCl=  0 I1Cent=   200000004 NGrid=           0
         NMat0=    1 NMatS0=      1 NMatT0=    0 NMatD0=    1 NMtDS0=    0 NMtDT0=    0
 Petite list used in FoFCou.
 Requested convergence on RMS density matrix=1.00D-08 within 128 cycles.
 Requested convergence on MAX density matrix=1.00D-06.
 Requested convergence on             energy=1.00D-06.
 No special actions if energy rises.
 Integral accuracy reduced to 1.0D-05 until final iterations.
 Initial convergence to 1.0D-05 achieved.  Increase integral accuracy.
 SCF Done:  E(RwB97XD) =  -1105.63882603     A.U. after   15 cycles
            NFock= 15  Conv=0.80D-08     -V/T= 2.0070

 **********************************************************************

            Population analysis using the SCF Density.

 **********************************************************************

 Orbital symmetries:
       Occupied  (A) (A) (A) (A) (A) (A) (A) (A) (A) (A) (A) (A)
                 (A) (A) (A) (A) (A) (A) (A) (A) (A) (A) (A) (A)
                 (A) (A) (A) (A) (A) (A) (A) (A) (A) (A) (A) (A)
                 (A) (A) (A) (A) (A) (A) (A) (A) (A) (A) (A) (A)
                 (A) (A) (A) (A) (A) (A) (A) (A) (A) (A) (A) (A)
                 (A) (A) (A) (A) (A)
       Virtual   (A) (A) (A) (A) (A) (A) (A) (A) (A) (A) (A) (A)
                 (A) (A) (A) (A) (A) (A) (A) (A) (A) (A) (A) (A)
                 (A) (A) (A) (A) (A) (A) (A) (A) (A) (A) (A) (A)
                 (A) (A) (A) (A) (A) (A) (A) (A) (A) (A) (A) (A)
                 (A) (A) (A) (A) (A) (A) (A) (A) (A) (A) (A) (A)
                 (A) (A) (A) (A) (A) (A) (A) (A) (A) (A) (A) (A)
                 (A) (A) (A) (A) (A) (A) (A) (A) (A) (A) (A) (A)
                 (A) (A) (A) (A) (A) (A) (A) (A) (A) (A) (A) (A)
                 (A) (A) (A) (A) (A) (A) (A) (A) (A) (A) (A) (A)
                 (A) (A) (A) (A) (A) (A) (A) (A) (A) (A) (A) (A)
                 (A) (A) (A) (A) (A) (A) (A) (A) (A) (A) (A) (A)
                 (A) (A) (A) (A) (A) (A) (A) (A) (A) (A) (A) (A)
                 (A) (A) (A) (A) (A) (A) (A) (A) (A) (A) (A) (A)
                 (A) (A) (A) (A) (A) (A) (A) (A) (A) (A) (A) (A)
                 (A) (A) (A) (A) (A) (A) (A) (A) (A) (A) (A) (A)
                 (A) (A) (A) (A) (A) (A) (A) (A) (A) (A) (A) (A)
                 (A) (A) (A) (A) (A) (A) (A) (A) (A) (A) (A) (A)
                 (A) (A) (A) (A) (A) (A) (A) (A) (A) (A) (A) (A)
                 (A) (A) (A) (A) (A) (A) (A) (A) (A) (A) (A) (A)
                 (A) (A) (A) (A) (A) (A) (A) (A) (A) (A) (A) (A)
                 (A) (A)
 The electronic state is 1-A.
 Alpha  occ. eigenvalues --  -89.25829 -19.26674 -19.25797 -14.49833 -10.35351
 Alpha  occ. eigenvalues --  -10.33481 -10.32680 -10.32392 -10.32234 -10.31555
 Alpha  occ. eigenvalues --  -10.31471 -10.30833 -10.30320 -10.30194 -10.29833
 Alpha  occ. eigenvalues --  -10.29364 -10.29057  -8.27648  -6.23069  -6.22981
 Alpha  occ. eigenvalues --   -6.22839  -1.20596  -1.09239  -1.05521  -0.98744
 Alpha  occ. eigenvalues --   -0.95222  -0.90352  -0.86473  -0.85017  -0.84596
 Alpha  occ. eigenvalues --   -0.81213  -0.75850  -0.72652  -0.71613  -0.70444
 Alpha  occ. eigenvalues --   -0.68155  -0.64403  -0.63777  -0.60379  -0.58940
 Alpha  occ. eigenvalues --   -0.58194  -0.56471  -0.54890  -0.53912  -0.53517
 Alpha  occ. eigenvalues --   -0.52997  -0.52924  -0.52712  -0.51115  -0.49646
 Alpha  occ. eigenvalues --   -0.48627  -0.47587  -0.46408  -0.45815  -0.44320
 Alpha  occ. eigenvalues --   -0.44083  -0.43937  -0.41371  -0.40372  -0.39546
 Alpha  occ. eigenvalues --   -0.38216  -0.35456  -0.34657  -0.33746  -0.30429
 Alpha virt. eigenvalues --    0.02765   0.04302   0.05997   0.06553   0.10027
 Alpha virt. eigenvalues --    0.12858   0.14062   0.14960   0.15395   0.15669
 Alpha virt. eigenvalues --    0.16953   0.17170   0.18741   0.19425   0.20708
 Alpha virt. eigenvalues --    0.21124   0.21341   0.22250   0.23745   0.24281
 Alpha virt. eigenvalues --    0.24947   0.25652   0.29076   0.29567   0.32931
 Alpha virt. eigenvalues --    0.35291   0.36350   0.36650   0.37366   0.37607
 Alpha virt. eigenvalues --    0.38173   0.39560   0.40144   0.40847   0.43613
 Alpha virt. eigenvalues --    0.46480   0.47426   0.47698   0.48509   0.49134
 Alpha virt. eigenvalues --    0.49348   0.51178   0.51977   0.52467   0.54181
 Alpha virt. eigenvalues --    0.54352   0.55509   0.55652   0.56045   0.56878
 Alpha virt. eigenvalues --    0.58195   0.58562   0.59307   0.60461   0.61938
 Alpha virt. eigenvalues --    0.62283   0.63515   0.64318   0.64990   0.65391
 Alpha virt. eigenvalues --    0.68047   0.69969   0.70206   0.71083   0.71368
 Alpha virt. eigenvalues --    0.72050   0.72536   0.73254   0.73476   0.74688
 Alpha virt. eigenvalues --    0.74826   0.75154   0.75862   0.75960   0.76479
 Alpha virt. eigenvalues --    0.77290   0.78156   0.78618   0.78918   0.80250
 Alpha virt. eigenvalues --    0.81919   0.82095   0.82604   0.82986   0.83359
 Alpha virt. eigenvalues --    0.84488   0.85533   0.85985   0.88346   0.89786
 Alpha virt. eigenvalues --    0.90532   0.91963   0.92872   0.95589   0.97149
 Alpha virt. eigenvalues --    0.98164   0.99663   1.00252   1.03012   1.06600
 Alpha virt. eigenvalues --    1.09399   1.10490   1.10990   1.12728   1.13587
 Alpha virt. eigenvalues --    1.15217   1.15417   1.20010   1.21578   1.22226
 Alpha virt. eigenvalues --    1.25175   1.26671   1.27110   1.28099   1.29259
 Alpha virt. eigenvalues --    1.30577   1.31191   1.31946   1.32676   1.33146
 Alpha virt. eigenvalues --    1.35008   1.35194   1.36563   1.37345   1.38575
 Alpha virt. eigenvalues --    1.38985   1.39987   1.41586   1.44533   1.51235
 Alpha virt. eigenvalues --    1.55012   1.56911   1.57208   1.60007   1.61015
 Alpha virt. eigenvalues --    1.62469   1.63821   1.69344   1.75305   1.75985
 Alpha virt. eigenvalues --    1.76954   1.77615   1.78557   1.80288   1.80809
 Alpha virt. eigenvalues --    1.82091   1.82910   1.83531   1.84034   1.84166
 Alpha virt. eigenvalues --    1.85062   1.86353   1.86587   1.87516   1.87653
 Alpha virt. eigenvalues --    1.88182   1.88716   1.90566   1.91592   1.93185
 Alpha virt. eigenvalues --    1.93888   1.97199   1.98024   1.98860   2.02821
 Alpha virt. eigenvalues --    2.04221   2.04538   2.05275   2.06128   2.08184
 Alpha virt. eigenvalues --    2.10432   2.10935   2.13158   2.14068   2.17072
 Alpha virt. eigenvalues --    2.17360   2.20015   2.20902   2.21156   2.23133
 Alpha virt. eigenvalues --    2.24679   2.25629   2.29407   2.30360   2.31629
 Alpha virt. eigenvalues --    2.33576   2.34648   2.35961   2.38220   2.38804
 Alpha virt. eigenvalues --    2.40770   2.42494   2.43678   2.44858   2.45298
 Alpha virt. eigenvalues --    2.45379   2.51680   2.55250   2.56186   2.57437
 Alpha virt. eigenvalues --    2.59515   2.61584   2.68457   2.68891   2.71398
 Alpha virt. eigenvalues --    2.71686   2.72854   2.73383   2.73471   2.73964
 Alpha virt. eigenvalues --    2.74782   2.75602   2.76207   2.78809   2.81637
 Alpha virt. eigenvalues --    2.82944   2.83100   2.84439   2.85461   2.86299
 Alpha virt. eigenvalues --    2.91747   2.94554   2.95253   2.96833   2.99174
 Alpha virt. eigenvalues --    3.00582   3.00765   3.02133   3.03050   3.04753
 Alpha virt. eigenvalues --    3.06990   3.08578   3.22629   3.23627   3.25949
 Alpha virt. eigenvalues --    3.32237   3.33745   3.34430   3.45658   3.46995
 Alpha virt. eigenvalues --    3.69633   3.78800
          Condensed to atoms (all electrons):
               1          2          3          4          5          6
     1  O    8.156542   0.391019  -0.033348  -0.006081  -0.020963   0.002312
     2  S    0.391019  13.945740   0.206894  -0.039189   0.001399  -0.000996
     3  N   -0.033348   0.206894   6.834920   0.266748  -0.086871   0.007641
     4  C   -0.006081  -0.039189   0.266748   5.199310   0.256008   0.106371
     5  C   -0.020963   0.001399  -0.086871   0.256008   5.225388   0.259580
     6  C    0.002312  -0.000996   0.007641   0.106371   0.259580   5.057765
     7  C   -0.000036   0.000012  -0.000477  -0.162305   0.087716   0.272408
     8  C    0.000004  -0.000144   0.006567   0.107820  -0.144754   0.095271
     9  C   -0.000061  -0.000631  -0.068533   0.262798   0.075704  -0.145480
    10  C   -0.059043   0.226479  -0.091566   0.008342  -0.000790  -0.000045
    11  C    0.006962  -0.041495   0.007524   0.000042   0.000040   0.000003
    12  C    0.000722  -0.001251  -0.000317   0.000024   0.000002   0.000000
    13  C   -0.000023   0.000900  -0.000018   0.000005  -0.000000  -0.000000
    14  C   -0.000000   0.000007  -0.000000   0.000000  -0.000000   0.000000
    15  C   -0.000042   0.002813  -0.000074  -0.000021   0.000001   0.000000
    16  C   -0.000428  -0.022990  -0.005028  -0.000293  -0.000045   0.000000
    17  O   -0.027416   0.430020  -0.057102   0.004674  -0.000403  -0.000063
    18  H    0.002503  -0.006226   0.325026  -0.005218   0.003890  -0.000101
    19  H    0.035802  -0.009099  -0.014069  -0.070542   0.450232  -0.051460
    20  H    0.000015  -0.000000  -0.000106   0.015234  -0.067211   0.457517
    21  H    0.000000   0.000000   0.000011  -0.001412   0.014726  -0.067815
    22  H   -0.000000   0.000004  -0.000113   0.015553  -0.001904   0.013817
    23  H    0.000004  -0.000130  -0.009439  -0.080989   0.016858  -0.002263
    24  H    0.006831  -0.005607   0.001215   0.000165   0.000002   0.000000
    25  H   -0.000005  -0.000156   0.000000  -0.000001   0.000000  -0.000000
    26  H    0.000000  -0.000000  -0.000000  -0.000000  -0.000000  -0.000000
    27  H    0.000000  -0.000000  -0.000000   0.000000   0.000000  -0.000000
    28  H   -0.000000  -0.000000   0.000000  -0.000000  -0.000000   0.000000
    29  H    0.000001  -0.000159   0.000004  -0.000000   0.000000  -0.000000
    30  H    0.000206  -0.012442   0.000669  -0.000086   0.000002   0.000000
               7          8          9         10         11         12
     1  O   -0.000036   0.000004  -0.000061  -0.059043   0.006962   0.000722
     2  S    0.000012  -0.000144  -0.000631   0.226479  -0.041495  -0.001251
     3  N   -0.000477   0.006567  -0.068533  -0.091566   0.007524  -0.000317
     4  C   -0.162305   0.107820   0.262798   0.008342   0.000042   0.000024
     5  C    0.087716  -0.144754   0.075704  -0.000790   0.000040   0.000002
     6  C    0.272408   0.095271  -0.145480  -0.000045   0.000003   0.000000
     7  C    5.105317   0.287053   0.084636   0.000001   0.000000  -0.000000
     8  C    0.287053   5.004806   0.313825  -0.000001  -0.000000  -0.000000
     9  C    0.084636   0.313825   5.133565  -0.000715   0.000070   0.000000
    10  C    0.000001  -0.000001  -0.000715   5.759422   0.168407   0.085815
    11  C    0.000000  -0.000000   0.000070   0.168407   5.060921   0.335542
    12  C   -0.000000  -0.000000   0.000000   0.085815   0.335542   5.044349
    13  C    0.000000  -0.000000  -0.000000  -0.183744   0.087188   0.294438
    14  C    0.000000   0.000000   0.000000   0.000633   0.009984  -0.077132
    15  C   -0.000000   0.000000   0.000001   0.086473  -0.121386   0.050880
    16  C   -0.000000   0.000000  -0.000011   0.284472   0.040805  -0.122014
    17  O    0.000000  -0.000001  -0.000224  -0.070925   0.004682   0.000020
    18  H   -0.000028   0.000300  -0.012868   0.002178  -0.001523  -0.000029
    19  H    0.013680  -0.002191   0.013082   0.001398  -0.000078   0.000005
    20  H   -0.074231   0.014132  -0.001956  -0.000001   0.000000   0.000000
    21  H    0.451510  -0.070438   0.014392   0.000000   0.000000   0.000000
    22  H   -0.069214   0.453942  -0.069568  -0.000000  -0.000000   0.000000
    23  H    0.014893  -0.059537   0.450829   0.000001   0.000019   0.000001
    24  H   -0.000001  -0.000001   0.000002  -0.081093   0.451055  -0.047431
    25  H   -0.000000   0.000000   0.000000   0.016272  -0.066245   0.460269
    26  H   -0.000000  -0.000000   0.000000   0.000026  -0.000556   0.007554
    27  H    0.000000  -0.000000   0.000000   0.000027   0.000755  -0.008659
    28  H   -0.000000   0.000000   0.000000   0.000064  -0.000195  -0.003573
    29  H    0.000000   0.000000   0.000000   0.016739  -0.001983   0.014474
    30  H   -0.000000   0.000000   0.000002  -0.068460   0.013461  -0.001885
              13         14         15         16         17         18
     1  O   -0.000023  -0.000000  -0.000042  -0.000428  -0.027416   0.002503
     2  S    0.000900   0.000007   0.002813  -0.022990   0.430020  -0.006226
     3  N   -0.000018  -0.000000  -0.000074  -0.005028  -0.057102   0.325026
     4  C    0.000005   0.000000  -0.000021  -0.000293   0.004674  -0.005218
     5  C   -0.000000  -0.000000   0.000001  -0.000045  -0.000403   0.003890
     6  C   -0.000000   0.000000   0.000000   0.000000  -0.000063  -0.000101
     7  C    0.000000   0.000000  -0.000000  -0.000000   0.000000  -0.000028
     8  C   -0.000000   0.000000   0.000000   0.000000  -0.000001   0.000300
     9  C   -0.000000   0.000000   0.000001  -0.000011  -0.000224  -0.012868
    10  C   -0.183744   0.000633   0.086473   0.284472  -0.070925   0.002178
    11  C    0.087188   0.009984  -0.121386   0.040805   0.004682  -0.001523
    12  C    0.294438  -0.077132   0.050880  -0.122014   0.000020  -0.000029
    13  C    5.262597   0.407533   0.283246   0.098775  -0.000037   0.000006
    14  C    0.407533   4.549429  -0.076899   0.009649   0.000000  -0.000000
    15  C    0.283246  -0.076899   5.117191   0.263974   0.001580  -0.000024
    16  C    0.098775   0.009649   0.263974   5.056132   0.005131   0.001985
    17  O   -0.000037   0.000000   0.001580   0.005131   8.158928   0.013030
    18  H    0.000006  -0.000000  -0.000024   0.001985   0.013030   0.512120
    19  H    0.000001  -0.000000  -0.000002  -0.000068   0.000445  -0.000685
    20  H    0.000000  -0.000000   0.000000   0.000000   0.000000   0.000013
    21  H    0.000000   0.000000   0.000000   0.000000   0.000000  -0.000001
    22  H   -0.000000  -0.000000   0.000000   0.000000  -0.000000  -0.000024
    23  H    0.000000  -0.000000  -0.000000  -0.000008  -0.000019   0.003081
    24  H    0.014098  -0.000239  -0.001422   0.011726   0.000215   0.000020
    25  H   -0.075773  -0.013535   0.014597  -0.002044   0.000000   0.000000
    26  H   -0.018854   0.392208  -0.008950   0.000806   0.000000   0.000000
    27  H   -0.018907   0.392170   0.007404  -0.000550   0.000000  -0.000000
    28  H   -0.011372   0.389733  -0.003458  -0.000271  -0.000000  -0.000000
    29  H   -0.076926  -0.013758   0.460904  -0.066502  -0.000009  -0.000002
    30  H    0.013724  -0.000211  -0.052451   0.446583   0.018242   0.000109
              19         20         21         22         23         24
     1  O    0.035802   0.000015   0.000000  -0.000000   0.000004   0.006831
     2  S   -0.009099  -0.000000   0.000000   0.000004  -0.000130  -0.005607
     3  N   -0.014069  -0.000106   0.000011  -0.000113  -0.009439   0.001215
     4  C   -0.070542   0.015234  -0.001412   0.015553  -0.080989   0.000165
     5  C    0.450232  -0.067211   0.014726  -0.001904   0.016858   0.000002
     6  C   -0.051460   0.457517  -0.067815   0.013817  -0.002263   0.000000
     7  C    0.013680  -0.074231   0.451510  -0.069214   0.014893  -0.000001
     8  C   -0.002191   0.014132  -0.070438   0.453942  -0.059537  -0.000001
     9  C    0.013082  -0.001956   0.014392  -0.069568   0.450829   0.000002
    10  C    0.001398  -0.000001   0.000000  -0.000000   0.000001  -0.081093
    11  C   -0.000078   0.000000   0.000000  -0.000000   0.000019   0.451055
    12  C    0.000005   0.000000   0.000000   0.000000   0.000001  -0.047431
    13  C    0.000001   0.000000   0.000000  -0.000000   0.000000   0.014098
    14  C   -0.000000  -0.000000   0.000000  -0.000000  -0.000000  -0.000239
    15  C   -0.000002   0.000000   0.000000   0.000000  -0.000000  -0.001422
    16  C   -0.000068   0.000000   0.000000   0.000000  -0.000008   0.011726
    17  O    0.000445   0.000000   0.000000  -0.000000  -0.000019   0.000215
    18  H   -0.000685   0.000013  -0.000001  -0.000024   0.003081   0.000020
    19  H    0.605542  -0.012709  -0.000188   0.000011  -0.000085  -0.000166
    20  H   -0.012709   0.665469  -0.012026  -0.000258   0.000023   0.000000
    21  H   -0.000188  -0.012026   0.673586  -0.012395  -0.000233  -0.000000
    22  H    0.000011  -0.000258  -0.012395   0.668912  -0.013191  -0.000000
    23  H   -0.000085   0.000023  -0.000233  -0.013191   0.687422  -0.000002
    24  H   -0.000166   0.000000  -0.000000  -0.000000  -0.000002   0.636442
    25  H   -0.000000  -0.000000  -0.000000   0.000000  -0.000000  -0.011741
    26  H   -0.000000  -0.000000  -0.000000  -0.000000  -0.000000   0.000008
    27  H   -0.000000  -0.000000   0.000000  -0.000000  -0.000000  -0.000001
    28  H    0.000000   0.000000  -0.000000   0.000000   0.000000   0.000004
    29  H   -0.000000  -0.000000  -0.000000   0.000000   0.000000   0.000024
    30  H   -0.000010  -0.000000  -0.000000   0.000000  -0.000001  -0.000236
              25         26         27         28         29         30
     1  O   -0.000005   0.000000   0.000000  -0.000000   0.000001   0.000206
     2  S   -0.000156  -0.000000  -0.000000  -0.000000  -0.000159  -0.012442
     3  N    0.000000  -0.000000  -0.000000   0.000000   0.000004   0.000669
     4  C   -0.000001  -0.000000   0.000000  -0.000000  -0.000000  -0.000086
     5  C    0.000000  -0.000000   0.000000  -0.000000   0.000000   0.000002
     6  C   -0.000000  -0.000000  -0.000000   0.000000  -0.000000   0.000000
     7  C   -0.000000  -0.000000   0.000000  -0.000000   0.000000  -0.000000
     8  C    0.000000  -0.000000  -0.000000   0.000000   0.000000   0.000000
     9  C    0.000000   0.000000   0.000000   0.000000   0.000000   0.000002
    10  C    0.016272   0.000026   0.000027   0.000064   0.016739  -0.068460
    11  C   -0.066245  -0.000556   0.000755  -0.000195  -0.001983   0.013461
    12  C    0.460269   0.007554  -0.008659  -0.003573   0.014474  -0.001885
    13  C   -0.075773  -0.018854  -0.018907  -0.011372  -0.076926   0.013724
    14  C   -0.013535   0.392208   0.392170   0.389733  -0.013758  -0.000211
    15  C    0.014597  -0.008950   0.007404  -0.003458   0.460904  -0.052451
    16  C   -0.002044   0.000806  -0.000550  -0.000271  -0.066502   0.446583
    17  O    0.000000   0.000000   0.000000  -0.000000  -0.000009   0.018242
    18  H    0.000000   0.000000  -0.000000  -0.000000  -0.000002   0.000109
    19  H   -0.000000  -0.000000  -0.000000   0.000000  -0.000000  -0.000010
    20  H   -0.000000  -0.000000  -0.000000   0.000000  -0.000000  -0.000000
    21  H   -0.000000  -0.000000   0.000000  -0.000000  -0.000000  -0.000000
    22  H    0.000000  -0.000000  -0.000000   0.000000   0.000000   0.000000
    23  H   -0.000000  -0.000000  -0.000000   0.000000   0.000000  -0.000001
    24  H   -0.011741   0.000008  -0.000001   0.000004   0.000024  -0.000236
    25  H    0.664686   0.000156   0.004446   0.000720  -0.000223   0.000022
    26  H    0.000156   0.620411  -0.022437  -0.017073   0.004511  -0.000004
    27  H    0.004446  -0.022437   0.620074  -0.017059   0.000166   0.000007
    28  H    0.000720  -0.017073  -0.017059   0.596060   0.000712   0.000005
    29  H   -0.000223   0.004511   0.000166   0.000712   0.665792  -0.011221
    30  H    0.000022  -0.000004   0.000007   0.000005  -0.011221   0.619406
 Mulliken charges:
               1
     1  O   -0.455477
     2  S    0.935228
     3  N   -0.290160
     4  C    0.123045
     5  C   -0.068606
     6  C   -0.004464
     7  C   -0.010934
     8  C   -0.006654
     9  C   -0.048860
    10  C   -0.100365
    11  C    0.045998
    12  C   -0.031804
    13  C   -0.076855
    14  C    0.030427
    15  C   -0.024333
    16  C    0.000213
    17  O   -0.480768
    18  H    0.162467
    19  H    0.041155
    20  H    0.016096
    21  H    0.010282
    22  H    0.014428
    23  H   -0.007231
    24  H    0.026133
    25  H    0.008555
    26  H    0.042195
    27  H    0.042563
    28  H    0.065702
    29  H    0.007456
    30  H    0.034569
 Sum of Mulliken charges =  -0.00000
 Mulliken charges with hydrogens summed into heavy atoms:
               1
     1  O   -0.455477
     2  S    0.935228
     3  N   -0.127693
     4  C    0.123045
     5  C   -0.027451
     6  C    0.011632
     7  C   -0.000653
     8  C    0.007775
     9  C   -0.056091
    10  C   -0.100365
    11  C    0.072130
    12  C   -0.023249
    13  C   -0.076855
    14  C    0.180887
    15  C   -0.016877
    16  C    0.034782
    17  O   -0.480768
 Electronic spatial extent (au):  <R**2>=           5479.7863
 Charge=             -0.0000 electrons
 Dipole moment (field-independent basis, Debye):
    X=             -2.4399    Y=             -3.4289    Z=             -1.4804  Tot=              4.4612
 Quadrupole moment (field-independent basis, Debye-Ang):
   XX=            -85.7724   YY=           -112.8613   ZZ=           -103.7657
   XY=              0.3524   XZ=              0.5019   YZ=             -0.6682
 Traceless Quadrupole moment (field-independent basis, Debye-Ang):
   XX=             15.0274   YY=            -12.0615   ZZ=             -2.9659
   XY=              0.3524   XZ=              0.5019   YZ=             -0.6682
 Octapole moment (field-independent basis, Debye-Ang**2):
  XXX=            -43.1961  YYY=             -5.7147  ZZZ=            -10.2488  XYY=            -13.4198
  XXY=            -21.2705  XXZ=              1.2162  XZZ=              5.4720  YZZ=             -4.5391
  YYZ=              4.2391  XYZ=             17.8566
 Hexadecapole moment (field-independent basis, Debye-Ang**3):
 XXXX=          -5440.6488 YYYY=           -953.4528 ZZZZ=           -534.8396 XXXY=            -15.7942
 XXXZ=             82.0734 YYYX=             27.0720 YYYZ=             11.4353 ZZZX=              4.4680
 ZZZY=             -1.6555 XXYY=          -1123.8225 XXZZ=          -1052.6995 YYZZ=           -244.4571
 XXYZ=              8.7709 YYXZ=            -22.8955 ZZXY=             -6.5022
 N-N= 1.294451037256D+03 E-N=-5.177660677947D+03  KE= 1.097918705944D+03
   1 Symmetry operations used in ECPInt.
 ECPInt:  NShTT=   10296 NPrTT=   38220 LenC2=    9217 LenP2D=   24163.
 LDataN:  DoStor=T MaxTD1= 5 Len=  102
 Calling FoFJK, ICntrl=      2127 FMM=F ISym2X=0 I1Cent= 0 IOpClX= 0 NMat=1 NMatS=1 NMatT=0.
 ***** Axes restored to original set *****
 -------------------------------------------------------------------
 Center     Atomic                   Forces (Hartrees/Bohr)
 Number     Number              X              Y              Z
 -------------------------------------------------------------------
      1        8          -0.006179112   -0.017905356   -0.052564334
      2       16          -0.031420700    0.034574356   -0.002646209
      3        7          -0.002729564    0.021561665    0.028959150
      4        6           0.030830387   -0.007501988    0.005750405
      5        6          -0.012976580    0.001238331   -0.003111231
      6        6           0.005041002   -0.005560405   -0.002075215
      7        6           0.007546709   -0.001028570    0.002848828
      8        6           0.003437125   -0.000338607    0.001094236
      9        6          -0.015064349    0.005984707   -0.001343572
     10        6           0.009937028    0.011281527   -0.003763423
     11        6           0.003626473   -0.005115702    0.011256326
     12        6           0.003648229    0.001718966   -0.001231825
     13        6          -0.005183171    0.000521241   -0.000451135
     14        6          -0.001829767   -0.004602352   -0.002348558
     15        6           0.001084055   -0.002347689    0.002268762
     16        6          -0.000250830    0.008604963   -0.008830521
     17        8           0.005625086   -0.027237612    0.043560385
     18        1           0.000290150   -0.006130118   -0.021388681
     19        1          -0.000059272    0.005572730    0.005874745
     20        1           0.002673157    0.005845808    0.007925101
     21        1           0.010078718   -0.002004059    0.002847085
     22        1           0.005096791   -0.007203087   -0.005593762
     23        1          -0.004066568   -0.007217586   -0.010190415
     24        1           0.006694407   -0.003529451    0.007897806
     25        1          -0.000721953   -0.008070538    0.008499834
     26        1          -0.003747846    0.000252723   -0.004920971
     27        1          -0.000578625   -0.005317924    0.003249058
     28        1          -0.005049658    0.003602419    0.004487209
     29        1          -0.007411739    0.003226287   -0.008508155
     30        1           0.001660420    0.007125321   -0.007550922
 -------------------------------------------------------------------
 Cartesian Forces:  Max     0.052564334 RMS     0.012140278

 GradGradGradGradGradGradGradGradGradGradGradGradGradGradGradGradGradGrad
 Berny optimization.
 FormGI is forming the generalized inverse of G from B-inverse, IUseBI=4.
 Internal  Forces:  Max     0.058564623 RMS     0.010725549
 Search for a local minimum.
 Step number   1 out of a maximum of  162
 All quantities printed in internal units (Hartrees-Bohrs-Radians)
 Mixed Optimization -- RFO/linear search
 Second derivative matrix not updated -- first step.
 ITU=  0
     Eigenvalues ---    0.00422   0.00927   0.01196   0.01608   0.01744
     Eigenvalues ---    0.01746   0.01987   0.02126   0.02236   0.02267
     Eigenvalues ---    0.02268   0.02300   0.02308   0.02338   0.02348
     Eigenvalues ---    0.02348   0.02370   0.02386   0.02387   0.02394
     Eigenvalues ---    0.02397   0.02422   0.03184   0.07313   0.07342
     Eigenvalues ---    0.10062   0.11556   0.12101   0.12688   0.16000
     Eigenvalues ---    0.16000   0.16000   0.16000   0.16000   0.16000
     Eigenvalues ---    0.16000   0.16000   0.16000   0.16000   0.16000
     Eigenvalues ---    0.16000   0.17294   0.21999   0.22000   0.22000
     Eigenvalues ---    0.22976   0.23291   0.23458   0.23996   0.24984
     Eigenvalues ---    0.24998   0.25000   0.25000   0.26427   0.33689
     Eigenvalues ---    0.34771   0.34772   0.34776   0.34995   0.36261
     Eigenvalues ---    0.36276   0.36286   0.36287   0.36300   0.36439
     Eigenvalues ---    0.36441   0.36512   0.36714   0.42486   0.43374
     Eigenvalues ---    0.44023   0.44262   0.46309   0.47032   0.47780
     Eigenvalues ---    0.48052   0.48088   0.49076   0.49245   0.49300
     Eigenvalues ---    0.50052   0.50131   0.76077   0.76248
 RFO step:  Lambda=-4.34752955D-02 EMin= 4.21951936D-03
 Linear search not attempted -- first point.
 Maximum step size (   0.300) exceeded in Quadratic search.
    -- Step size scaled by   0.884
 Iteration  1 RMS(Cart)=  0.17622268 RMS(Int)=  0.00593249
 Iteration  2 RMS(Cart)=  0.01981622 RMS(Int)=  0.00064094
 Iteration  3 RMS(Cart)=  0.00027132 RMS(Int)=  0.00063535
 Iteration  4 RMS(Cart)=  0.00000014 RMS(Int)=  0.00063535
 Variable       Old X    -DE/DX   Delta X   Delta X   Delta X     New X
                                 (Linear)    (Quad)   (Total)
    R1        2.83705  -0.05564   0.00000  -0.06106  -0.06106   2.77598
    R2        3.22683   0.00914   0.00000   0.02055   0.02055   3.24738
    R3        3.39413  -0.00493   0.00000  -0.01418  -0.01418   3.37995
    R4        2.83803  -0.05117   0.00000  -0.05628  -0.05628   2.78175
    R5        2.63784   0.03345   0.00000   0.05841   0.05841   2.69625
    R6        1.88546   0.02096   0.00000   0.03536   0.03536   1.92081
    R7        2.64669   0.00717   0.00000   0.01241   0.01241   2.65910
    R8        2.64696   0.00453   0.00000   0.00735   0.00734   2.65430
    R9        2.59630   0.01988   0.00000   0.03256   0.03257   2.62887
   R10        2.02979   0.00660   0.00000   0.01421   0.01421   2.04400
   R11        2.60831   0.01214   0.00000   0.02075   0.02076   2.62907
   R12        2.03652   0.01011   0.00000   0.02202   0.02202   2.05854
   R13        2.60893   0.01073   0.00000   0.01809   0.01809   2.62702
   R14        2.03615   0.01066   0.00000   0.02319   0.02319   2.05934
   R15        2.59851   0.01578   0.00000   0.02533   0.02532   2.62383
   R16        2.03636   0.01040   0.00000   0.02264   0.02264   2.05899
   R17        2.03289   0.01309   0.00000   0.02833   0.02833   2.06122
   R18        2.59621   0.01952   0.00000   0.03207   0.03207   2.62828
   R19        2.59644   0.01652   0.00000   0.02725   0.02725   2.62370
   R20        2.60819   0.00970   0.00000   0.01603   0.01603   2.62422
   R21        2.03637   0.01079   0.00000   0.02349   0.02349   2.05986
   R22        2.62222   0.01622   0.00000   0.02706   0.02705   2.64928
   R23        2.03401   0.01165   0.00000   0.02527   0.02527   2.05928
   R24        2.81158   0.01273   0.00000   0.02960   0.02960   2.84118
   R25        2.62213   0.01384   0.00000   0.02304   0.02303   2.64516
   R26        2.06047   0.00603   0.00000   0.01363   0.01363   2.07410
   R27        2.06049   0.00609   0.00000   0.01377   0.01377   2.07426
   R28        2.06040   0.00763   0.00000   0.01725   0.01725   2.07766
   R29        2.60799   0.01294   0.00000   0.02145   0.02145   2.62944
   R30        2.03398   0.01166   0.00000   0.02528   0.02528   2.05926
   R31        2.03676   0.01050   0.00000   0.02288   0.02288   2.05964
    A1        2.01718  -0.00913   0.00000  -0.03791  -0.03931   1.97787
    A2        1.84914  -0.00005   0.00000   0.01427   0.01510   1.86424
    A3        2.13332  -0.00173   0.00000  -0.02531  -0.02639   2.10694
    A4        1.67571   0.01879   0.00000   0.07102   0.07081   1.74652
    A5        1.85236  -0.00157   0.00000  -0.00477  -0.00630   1.84607
    A6        1.87582  -0.00050   0.00000   0.01146   0.01118   1.88700
    A7        2.08187   0.05856   0.00000   0.19333   0.19217   2.27404
    A8        1.77557  -0.01291   0.00000  -0.01481  -0.01536   1.76021
    A9        2.00354  -0.02110   0.00000  -0.06888  -0.07281   1.93073
   A10        2.15659   0.02400   0.00000   0.07314   0.07311   2.22971
   A11        2.07689  -0.02564   0.00000  -0.07648  -0.07648   2.00041
   A12        2.04962   0.00164   0.00000   0.00321   0.00318   2.05280
   A13        2.11641  -0.00437   0.00000  -0.01449  -0.01448   2.10193
   A14        2.07114   0.00694   0.00000   0.02790   0.02790   2.09904
   A15        2.09563  -0.00257   0.00000  -0.01341  -0.01342   2.08222
   A16        2.09660   0.00493   0.00000   0.01863   0.01865   2.11525
   A17        2.09271  -0.00383   0.00000  -0.01527  -0.01528   2.07742
   A18        2.09388  -0.00109   0.00000  -0.00336  -0.00337   2.09051
   A19        2.09189  -0.00548   0.00000  -0.01641  -0.01640   2.07549
   A20        2.09548   0.00313   0.00000   0.00991   0.00990   2.10539
   A21        2.09581   0.00235   0.00000   0.00650   0.00650   2.10231
   A22        2.09818   0.00039   0.00000   0.00127   0.00127   2.09945
   A23        2.09244   0.00083   0.00000   0.00380   0.00380   2.09623
   A24        2.09257  -0.00121   0.00000  -0.00507  -0.00507   2.08751
   A25        2.11365   0.00290   0.00000   0.00778   0.00777   2.12142
   A26        2.06889  -0.00033   0.00000   0.00096   0.00097   2.06986
   A27        2.10064  -0.00256   0.00000  -0.00875  -0.00874   2.09190
   A28        2.08948  -0.00145   0.00000  -0.00532  -0.00532   2.08416
   A29        2.09287  -0.00246   0.00000  -0.00836  -0.00836   2.08450
   A30        2.10084   0.00391   0.00000   0.01366   0.01367   2.11451
   A31        2.09182  -0.00398   0.00000  -0.01230  -0.01230   2.07952
   A32        2.08164   0.00381   0.00000   0.01409   0.01408   2.09573
   A33        2.10970   0.00017   0.00000  -0.00176  -0.00177   2.10793
   A34        2.10495   0.00234   0.00000   0.00703   0.00703   2.11198
   A35        2.09574  -0.00253   0.00000  -0.00944  -0.00944   2.08630
   A36        2.08248   0.00019   0.00000   0.00241   0.00241   2.08489
   A37        2.10516   0.00005   0.00000   0.00095   0.00095   2.10612
   A38        2.07186  -0.00039   0.00000  -0.00265  -0.00267   2.06919
   A39        2.10562   0.00034   0.00000   0.00182   0.00182   2.10744
   A40        1.93990   0.00108   0.00000   0.00540   0.00538   1.94528
   A41        1.93965   0.00114   0.00000   0.00567   0.00565   1.94530
   A42        1.93290   0.00006   0.00000  -0.00119  -0.00119   1.93171
   A43        1.87885  -0.00010   0.00000   0.00224   0.00220   1.88106
   A44        1.88510  -0.00112   0.00000  -0.00619  -0.00618   1.87892
   A45        1.88515  -0.00118   0.00000  -0.00649  -0.00649   1.87867
   A46        2.10377   0.00228   0.00000   0.00702   0.00702   2.11079
   A47        2.08331   0.00012   0.00000   0.00198   0.00198   2.08529
   A48        2.09610  -0.00240   0.00000  -0.00900  -0.00899   2.08710
   A49        2.09305  -0.00416   0.00000  -0.01273  -0.01273   2.08033
   A50        2.07812   0.00254   0.00000   0.00837   0.00836   2.08648
   A51        2.11200   0.00162   0.00000   0.00438   0.00438   2.11638
    D1       -0.59453   0.00522   0.00000   0.01974   0.02064  -0.57388
    D2       -2.81826   0.00419   0.00000  -0.00874  -0.01148  -2.82973
    D3       -2.53005  -0.00240   0.00000  -0.02467  -0.02230  -2.55235
    D4        1.52941  -0.00343   0.00000  -0.05314  -0.05442   1.47499
    D5        1.83030  -0.00805   0.00000  -0.06044  -0.05825   1.77205
    D6       -0.39343  -0.00907   0.00000  -0.08892  -0.09037  -0.48380
    D7       -0.86258   0.00051   0.00000   0.00663   0.00609  -0.85649
    D8        2.27730   0.00016   0.00000   0.00155   0.00105   2.27834
    D9        1.21065  -0.00212   0.00000  -0.00295  -0.00282   1.20783
   D10       -1.93266  -0.00247   0.00000  -0.00803  -0.00787  -1.94053
   D11        3.11359   0.00303   0.00000   0.02069   0.02105   3.13465
   D12       -0.02972   0.00269   0.00000   0.01562   0.01601  -0.01371
   D13        0.28327  -0.00493   0.00000  -0.01898  -0.01711   0.26615
   D14       -2.87207  -0.00576   0.00000  -0.03073  -0.02888  -2.90095
   D15        2.39606   0.00812   0.00000   0.06492   0.06308   2.45914
   D16       -0.75927   0.00728   0.00000   0.05317   0.05131  -0.70796
   D17        3.13494  -0.00106   0.00000  -0.01255  -0.01298   3.12195
   D18       -0.00639  -0.00087   0.00000  -0.01049  -0.01081  -0.01721
   D19        0.00689  -0.00003   0.00000  -0.00037  -0.00035   0.00654
   D20       -3.13444   0.00016   0.00000   0.00168   0.00182  -3.13263
   D21       -3.13524   0.00039   0.00000   0.00762   0.00714  -3.12810
   D22        0.00352   0.00041   0.00000   0.00747   0.00706   0.01058
   D23       -0.00655  -0.00020   0.00000  -0.00281  -0.00273  -0.00927
   D24        3.13221  -0.00018   0.00000  -0.00296  -0.00280   3.12941
   D25       -0.00290   0.00019   0.00000   0.00282   0.00275  -0.00015
   D26        3.13814   0.00004   0.00000   0.00038   0.00039   3.13854
   D27        3.13843   0.00001   0.00000   0.00074   0.00061   3.13903
   D28       -0.00371  -0.00015   0.00000  -0.00170  -0.00175  -0.00546
   D29       -0.00167  -0.00014   0.00000  -0.00215  -0.00210  -0.00377
   D30        3.14084  -0.00013   0.00000  -0.00194  -0.00191   3.13893
   D31        3.14047   0.00002   0.00000   0.00029   0.00027   3.14075
   D32       -0.00021   0.00003   0.00000   0.00050   0.00047   0.00026
   D33        0.00200  -0.00006   0.00000  -0.00093  -0.00090   0.00110
   D34       -3.13939   0.00007   0.00000   0.00121   0.00116  -3.13823
   D35       -3.14051  -0.00007   0.00000  -0.00113  -0.00109   3.14159
   D36        0.00129   0.00006   0.00000   0.00100   0.00097   0.00226
   D37        0.00224   0.00022   0.00000   0.00342   0.00332   0.00556
   D38       -3.13647   0.00020   0.00000   0.00356   0.00339  -3.13308
   D39       -3.13956   0.00009   0.00000   0.00129   0.00128  -3.13828
   D40        0.00491   0.00007   0.00000   0.00142   0.00134   0.00626
   D41       -3.14032   0.00002   0.00000  -0.00005  -0.00006  -3.14039
   D42        0.00881  -0.00028   0.00000  -0.00408  -0.00410   0.00471
   D43        0.00299   0.00037   0.00000   0.00507   0.00509   0.00809
   D44       -3.13106   0.00007   0.00000   0.00105   0.00106  -3.13000
   D45        3.14030   0.00002   0.00000   0.00055   0.00056   3.14086
   D46       -0.00702   0.00026   0.00000   0.00385   0.00386  -0.00315
   D47       -0.00302  -0.00033   0.00000  -0.00458  -0.00460  -0.00762
   D48        3.13285  -0.00009   0.00000  -0.00128  -0.00129   3.13156
   D49        0.00525  -0.00038   0.00000  -0.00517  -0.00516   0.00010
   D50       -3.13256  -0.00041   0.00000  -0.00555  -0.00553  -3.13810
   D51        3.13918  -0.00006   0.00000  -0.00101  -0.00102   3.13816
   D52        0.00136  -0.00010   0.00000  -0.00139  -0.00139  -0.00003
   D53       -3.11958   0.00009   0.00000   0.00107   0.00108  -3.11851
   D54       -0.01321   0.00035   0.00000   0.00477   0.00478  -0.00843
   D55        0.01826   0.00012   0.00000   0.00142   0.00142   0.01969
   D56        3.12464   0.00038   0.00000   0.00512   0.00512   3.12976
   D57       -2.64373  -0.00056   0.00000  -0.00353  -0.00354  -2.64727
   D58       -0.55155   0.00079   0.00000   0.00671   0.00673  -0.54482
   D59        1.54390   0.00010   0.00000   0.00149   0.00149   1.54539
   D60        0.53377  -0.00081   0.00000  -0.00721  -0.00723   0.52654
   D61        2.62594   0.00053   0.00000   0.00302   0.00304   2.62898
   D62       -1.56179  -0.00015   0.00000  -0.00220  -0.00220  -1.56399
   D63        0.01317  -0.00032   0.00000  -0.00427  -0.00427   0.00891
   D64       -3.12485  -0.00036   0.00000  -0.00486  -0.00486  -3.12971
   D65        3.11954  -0.00006   0.00000  -0.00058  -0.00058   3.11896
   D66       -0.01848  -0.00010   0.00000  -0.00117  -0.00118  -0.01966
   D67       -0.00520   0.00030   0.00000   0.00417   0.00416  -0.00105
   D68       -3.14096   0.00005   0.00000   0.00079   0.00078  -3.14018
   D69        3.13280   0.00035   0.00000   0.00478   0.00477   3.13757
   D70       -0.00296   0.00010   0.00000   0.00140   0.00140  -0.00156
         Item               Value     Threshold  Converged?
 Maximum Force            0.058565     0.000450     NO 
 RMS     Force            0.010726     0.000300     NO 
 Maximum Displacement     0.764027     0.001800     NO 
 RMS     Displacement     0.188633     0.001200     NO 
 Predicted change in Energy=-2.392068D-02
 GradGradGradGradGradGradGradGradGradGradGradGradGradGradGradGradGradGrad

                          Input orientation:                          
 ---------------------------------------------------------------------
 Center     Atomic      Atomic             Coordinates (Angstroms)
 Number     Number       Type             X           Y           Z
 ---------------------------------------------------------------------
      1          8           0        0.127829    1.844043    1.220775
      2         16           0       -0.090422    1.275089   -0.115856
      3          7           0        0.957720   -0.038287   -0.475695
      4          6           0        2.303984   -0.282086   -0.070877
      5          6           0        3.020323    0.348555    0.963134
      6          6           0        4.329913   -0.027377    1.244045
      7          6           0        4.963678   -1.029734    0.516597
      8          6           0        4.264863   -1.663597   -0.504393
      9          6           0        2.956389   -1.297158   -0.789823
     10          6           0       -1.659285    0.417782   -0.063341
     11          6           0       -1.917664   -0.470816    0.974944
     12          6           0       -3.136968   -1.134536    1.009513
     13          6           0       -4.103837   -0.921074    0.017029
     14          6           0       -5.432925   -1.621286    0.077850
     15          6           0       -3.819500   -0.013375   -1.009888
     16          6           0       -2.601006    0.656949   -1.055115
     17          8           0       -0.078610    2.135292   -1.310348
     18          1           0        0.875774   -0.076711   -1.488108
     19          1           0        2.556511    1.130072    1.549694
     20          1           0        4.864116    0.478065    2.047661
     21          1           0        5.990740   -1.315213    0.742901
     22          1           0        4.741377   -2.453378   -1.084349
     23          1           0        2.411987   -1.804661   -1.587198
     24          1           0       -1.169861   -0.637251    1.750352
     25          1           0       -3.347368   -1.829680    1.821917
     26          1           0       -5.855110   -1.769053   -0.924438
     27          1           0       -5.346231   -2.606678    0.553586
     28          1           0       -6.155698   -1.032404    0.660606
     29          1           0       -4.564694    0.172376   -1.782972
     30          1           0       -2.374647    1.365742   -1.851533
 ---------------------------------------------------------------------
                    Distance matrix (angstroms):
                    1          2          3          4          5
     1  O    0.000000
     2  S    1.468987   0.000000
     3  N    2.666439   1.718442   0.000000
     4  C    3.305214   2.856571   1.426794   0.000000
     5  C    3.266403   3.420441   2.544446   1.407134   0.000000
     6  C    4.600029   4.804696   3.785407   2.428638   1.391136
     7  C    5.669206   5.590718   4.244444   2.824548   2.423985
     8  C    5.691643   5.268335   3.685058   2.437531   2.784110
     9  C    4.680855   4.043976   2.382879   1.404595   2.405269
    10  C    2.622394   1.788593   2.688261   4.024596   4.791365
    11  C    3.098878   2.752607   3.249503   4.353352   5.005520
    12  C    4.424417   4.044032   4.491556   5.612297   6.333557
    13  C    5.196332   4.576930   5.161535   6.440202   7.297994
    14  C    6.651072   6.080201   6.607014   7.853365   8.724758
    15  C    4.899721   4.045424   4.807059   6.200888   7.127902
    16  C    3.746386   2.750879   3.672003   5.090131   5.980616
    17  O    2.556174   1.472039   2.548543   3.613413   4.238459
    18  H    3.403934   2.154988   1.016451   2.022501   3.284590
    19  H    2.552732   3.130709   2.832559   2.164303   1.081639
    20  H    4.998205   5.464750   4.679089   3.408857   2.143022
    21  H    6.677050   6.665408   5.333555   3.914302   3.411745
    22  H    6.713140   6.179460   4.529811   3.417970   3.873634
    23  H    5.139566   4.232229   2.543700   2.151541   3.392728
    24  H    2.849785   2.881834   3.136980   3.938353   4.375977
    25  H    5.092603   4.899210   5.198259   6.157557   6.784520
    26  H    7.311085   6.569036   7.043548   8.337293   9.317752
    27  H    7.086564   6.568089   6.884465   8.019943   8.882587
    28  H    6.933285   6.535671   7.271875   8.524334   9.284284
    29  H    5.816935   4.900445   5.678944   7.093415   8.068743
    30  H    3.991270   2.870275   3.868966   5.270262   6.169500
                    6          7          8          9         10
     6  C    0.000000
     7  C    1.391243   0.000000
     8  C    2.395513   1.390160   0.000000
     9  C    2.763247   2.409867   1.388472   0.000000
    10  C    6.146374   6.804062   6.294617   4.977272   0.000000
    11  C    6.269073   6.919201   6.467984   5.249156   1.390828
    12  C    7.552160   8.116305   7.573568   6.355553   2.396718
    13  C    8.569270   9.081916   8.417741   7.116125   2.788337
    14  C    9.960600  10.422657   9.715343   8.440290   4.291630
    15  C    8.455373   8.972589   8.266541   6.899942   2.397577
    16  C    7.334308   7.908199   7.268314   5.896910   1.388400
    17  O    5.535082   6.227341   5.826395   4.611277   2.646394
    18  H    4.404336   4.651673   3.869346   2.511186   2.949747
    19  H    2.139641   3.395070   3.865531   3.394803   4.569701
    20  H    1.089332   2.151169   3.385085   3.852552   6.856728
    21  H    2.160559   1.089756   2.157722   3.399538   7.885187
    22  H    3.387655   2.153882   1.089572   2.147038   7.089040
    23  H    3.853974   3.396703   2.150701   1.090751   4.882279
    24  H    5.556601   6.268692   5.972729   4.890185   2.154557
    25  H    7.907141   8.450874   7.961493   6.844131   3.384510
    26  H   10.557956  10.939348  10.129236   8.825152   4.809229
    27  H   10.037793  10.429877   9.715033   8.511938   4.808485
    28  H   10.549811  11.120308  10.504462   9.230599   4.779630
    29  H    9.397700   9.875371   9.108603   7.727390   3.385078
    30  H    7.514952   8.074488   7.421239   6.052951   2.146626
                   11         12         13         14         15
    11  C    0.000000
    12  C    1.388676   0.000000
    13  C    2.428926   1.401937   0.000000
    14  C    3.805971   2.525141   1.503486   0.000000
    15  C    2.786716   2.408493   1.399758   2.524221   0.000000
    16  C    2.420733   2.785564   2.428610   3.807063   1.391441
    17  O    3.923835   5.042528   5.225491   6.686379   4.324501
    18  H    3.745029   4.843470   5.270190   6.681139   4.719989
    19  H    4.786588   6.151093   7.135579   8.577142   6.965087
    20  H    6.931352   8.227732   9.300818  10.691888   9.219290
    21  H    7.956740   9.133388  10.128313  11.447100  10.050267
    22  H    7.246659   8.257840   9.044268  10.274215   8.902122
    23  H    5.204767   6.163025   6.768326   8.021761   6.509488
    24  H    1.090032   2.160010   3.419529   4.683940   3.876691
    25  H    2.146609   1.089722   2.157645   2.726673   3.397204
    26  H    4.560323   3.395743   2.161570   1.097568   2.689501
    27  H    4.061344   2.693680   2.161643   1.097651   3.391251
    28  H    4.286621   3.040542   2.153304   1.099448   3.047424
    29  H    3.876410   3.397704   2.155927   2.726482   1.089713
    30  H    3.401581   3.875321   3.422155   4.690194   2.167471
                   16         17         18         19         20
    16  C    0.000000
    17  O    2.934812   0.000000
    18  H    3.579628   2.415658   0.000000
    19  H    5.797314   4.016735   3.675519   0.000000
    20  H    8.086239   6.201061   5.358761   2.449107   0.000000
    21  H    8.996687   7.277281   5.716133   4.292349   2.487474
    22  H    7.974056   6.658772   4.555706   4.955092   4.291610
    23  H    5.610057   4.669363   2.314214   4.298096   4.943275
    24  H    3.404963   4.271500   3.871235   4.129109   6.143387
    25  H    3.875267   6.018046   5.644829   6.609843   8.532591
    26  H    4.061004   6.982893   6.963228   9.234804  11.348335
    27  H    4.558008   7.328599   7.020156   8.798230  10.770287
    28  H    4.293419   7.130916   7.414305   9.020497  11.209002
    29  H    2.149571   4.919488   5.454143   7.920568  10.181829
[...]
     6  C    0.413024   0.022691  -0.098186  -0.000053  -0.001208   0.000429
     7  C    4.963978   0.438871   0.035728  -0.000167  -0.000739  -0.000194
     8  C    0.438871   4.934327   0.407878  -0.001764   0.001244   0.002017
     9  C    0.035728   0.407878   5.115885  -0.000052  -0.014474  -0.000561
    10  C   -0.000167  -0.001764  -0.000052   5.294990   0.313203   0.050915
    11  C   -0.000739   0.001244  -0.014474   0.313203   5.145584   0.357059
    12  C   -0.000194   0.002017  -0.000561   0.050915   0.357059   5.106706
    13  C    0.000045   0.000053  -0.000477  -0.090912   0.035797   0.400581
    14  C   -0.000001  -0.000017   0.000004  -0.004298   0.012107  -0.072734
    15  C    0.000021  -0.000060   0.000859   0.016390  -0.052357  -0.013405
    16  C   -0.000061  -0.000660  -0.001971   0.368595  -0.068097  -0.047419
    17  O   -0.000003  -0.000001  -0.000518  -0.096616   0.008606  -0.000552
    18  H    0.000136   0.001087   0.008844  -0.000730   0.000718  -0.000045
    19  H    0.010223  -0.004446   0.011293   0.001824  -0.000443  -0.000161
    20  H   -0.058362   0.010555  -0.003507  -0.000016  -0.000003   0.000008
    21  H    0.443948  -0.056105   0.012204   0.000004  -0.000019  -0.000002
    22  H   -0.057168   0.438928  -0.053944   0.000005   0.000029   0.000023
    23  H    0.010403  -0.031529   0.440052   0.000808  -0.000271  -0.000265
    24  H    0.000098   0.000181  -0.001717  -0.046727   0.437035  -0.050000
    25  H    0.000007   0.000074  -0.000081   0.011048  -0.051770   0.447370
    26  H    0.000000  -0.000000   0.000000  -0.000016  -0.000532   0.008698
    27  H   -0.000001   0.000000  -0.000000   0.000136   0.001347  -0.006591
    28  H    0.000000   0.000000   0.000000   0.000150  -0.000580  -0.004250
    29  H   -0.000000   0.000003  -0.000002   0.010982  -0.003876   0.013347
    30  H   -0.000003   0.000006  -0.000132  -0.045342   0.008303  -0.002424
              13         14         15         16         17         18
     1  O   -0.000108  -0.000000  -0.000284   0.006998  -0.043926   0.002677
     2  S   -0.000548   0.000005   0.005885  -0.039796   0.584436  -0.016602
     3  N    0.000262  -0.000003  -0.001239   0.000085  -0.048021   0.365613
     4  C   -0.000780   0.000005   0.000283   0.000904   0.001615  -0.051445
     5  C    0.000217   0.000005   0.000054   0.000308  -0.000746   0.004515
     6  C   -0.000041  -0.000001  -0.000009   0.000175  -0.000000  -0.000721
     7  C    0.000045  -0.000001   0.000021  -0.000061  -0.000003   0.000136
     8  C    0.000053  -0.000017  -0.000060  -0.000660  -0.000001   0.001087
     9  C   -0.000477   0.000004   0.000859  -0.001971  -0.000518   0.008844
    10  C   -0.090912  -0.004298   0.016390   0.368595  -0.096616  -0.000730
    11  C    0.035797   0.012107  -0.052357  -0.068097   0.008606   0.000718
    12  C    0.400581  -0.072734  -0.013405  -0.047419  -0.000552  -0.000045
    13  C    4.968410   0.297183   0.446774   0.013408   0.000159   0.000066
    14  C    0.297183   4.957856  -0.073017   0.014668   0.000001   0.000000
    15  C    0.446774  -0.073017   5.056318   0.402892   0.002720  -0.000165
    16  C    0.013408   0.014668   0.402892   5.107066   0.027018   0.000125
    17  O    0.000159   0.000001   0.002720   0.027018   8.022358   0.004375
    18  H    0.000066   0.000000  -0.000165   0.000125   0.004375   0.429424
    19  H    0.000015   0.000000   0.000008  -0.000175  -0.000134  -0.000049
    20  H   -0.000000  -0.000000  -0.000000   0.000001  -0.000000   0.000013
    21  H   -0.000001   0.000000   0.000000  -0.000000   0.000000  -0.000002
    22  H   -0.000006   0.000000  -0.000003  -0.000001  -0.000000  -0.000040
    23  H   -0.000009   0.000001   0.000316   0.000351  -0.000175   0.003560
    24  H    0.008988  -0.000020  -0.002512   0.008284   0.000379  -0.000098
    25  H   -0.063567  -0.005123   0.012549  -0.003674   0.000003   0.000000
    26  H   -0.057975   0.428882  -0.005918   0.002348   0.000000   0.000000
    27  H   -0.048682   0.424059   0.005313  -0.000765   0.000000  -0.000000
    28  H   -0.019605   0.392716  -0.004723  -0.000690  -0.000000  -0.000000
    29  H   -0.060011  -0.008053   0.439837  -0.047204  -0.000028  -0.000009
    30  H    0.008454  -0.000062  -0.048253   0.432106   0.013647   0.000360
              19         20         21         22         23         24
     1  O    0.008976  -0.000039   0.000001  -0.000000  -0.000017   0.008084
     2  S   -0.002908  -0.000003   0.000003  -0.000007  -0.000123  -0.004097
     3  N   -0.001416  -0.000119   0.000008  -0.000360   0.002888   0.000351
     4  C   -0.044809   0.013946  -0.003967   0.015214  -0.080526   0.000170
     5  C    0.434673  -0.057669   0.011298  -0.003863   0.012056  -0.000075
     6  C   -0.048945   0.446337  -0.056272   0.010724  -0.003903   0.000376
     7  C    0.010223  -0.058362   0.443948  -0.057168   0.010403   0.000098
     8  C   -0.004446   0.010555  -0.056105   0.438928  -0.031529   0.000181
     9  C    0.011293  -0.003507   0.012204  -0.053944   0.440052  -0.001717
    10  C    0.001824  -0.000016   0.000004   0.000005   0.000808  -0.046727
    11  C   -0.000443  -0.000003  -0.000019   0.000029  -0.000271   0.437035
    12  C   -0.000161   0.000008  -0.000002   0.000023  -0.000265  -0.050000
    13  C    0.000015  -0.000000  -0.000001  -0.000006  -0.000009   0.008988
    14  C    0.000000  -0.000000   0.000000   0.000000   0.000001  -0.000020
    15  C    0.000008  -0.000000   0.000000  -0.000003   0.000316  -0.002512
    16  C   -0.000175   0.000001  -0.000000  -0.000001   0.000351   0.008284
    17  O   -0.000134  -0.000000   0.000000  -0.000000  -0.000175   0.000379
    18  H   -0.000049   0.000013  -0.000002  -0.000040   0.003560  -0.000098
    19  H    0.476266  -0.006497  -0.000017   0.000015   0.000012  -0.000092
    20  H   -0.006497   0.534724  -0.006847  -0.000125   0.000028  -0.000017
    21  H   -0.000017  -0.006847   0.538775  -0.006651  -0.000098  -0.000005
    22  H    0.000015  -0.000125  -0.006651   0.541611  -0.007506   0.000004
    23  H    0.000012   0.000028  -0.000098  -0.007506   0.538508  -0.000055
    24  H   -0.000092  -0.000017  -0.000005   0.000004  -0.000055   0.482033
    25  H   -0.000007   0.000001  -0.000000   0.000000  -0.000002  -0.005724
    26  H   -0.000000  -0.000000   0.000000  -0.000000   0.000000   0.000003
    27  H   -0.000000   0.000000  -0.000000   0.000000  -0.000000  -0.000019
    28  H    0.000000   0.000000  -0.000000  -0.000000   0.000000   0.000005
    29  H   -0.000000   0.000000   0.000000   0.000000  -0.000003   0.000027
    30  H   -0.000005   0.000000  -0.000000   0.000000  -0.000067  -0.000064
              25         26         27         28         29         30
     1  O   -0.000011   0.000000   0.000000  -0.000000   0.000004   0.000546
     2  S   -0.000100   0.000001   0.000001  -0.000002  -0.000114  -0.004495
     3  N    0.000031  -0.000000  -0.000001   0.000000   0.000016   0.000293
     4  C    0.000042  -0.000001   0.000004  -0.000001  -0.000006  -0.000190
     5  C   -0.000102   0.000000   0.000000  -0.000000  -0.000002  -0.000018
     6  C    0.000058  -0.000000  -0.000000   0.000000   0.000000   0.000007
     7  C    0.000007   0.000000  -0.000001   0.000000  -0.000000  -0.000003
     8  C    0.000074  -0.000000   0.000000   0.000000   0.000003   0.000006
     9  C   -0.000081   0.000000  -0.000000   0.000000  -0.000002  -0.000132
    10  C    0.011048  -0.000016   0.000136   0.000150   0.010982  -0.045342
    11  C   -0.051770  -0.000532   0.001347  -0.000580  -0.003876   0.008303
    12  C    0.447370   0.008698  -0.006591  -0.004250   0.013347  -0.002424
    13  C   -0.063567  -0.057975  -0.048682  -0.019605  -0.060011   0.008454
    14  C   -0.005123   0.428882   0.424059   0.392716  -0.008053  -0.000062
    15  C    0.012549  -0.005918   0.005313  -0.004723   0.439837  -0.048253
    16  C   -0.003674   0.002348  -0.000765  -0.000690  -0.047204   0.432106
    17  O    0.000003   0.000000   0.000000  -0.000000  -0.000028   0.013647
    18  H    0.000000   0.000000  -0.000000  -0.000000  -0.000009   0.000360
    19  H   -0.000007  -0.000000  -0.000000   0.000000  -0.000000  -0.000005
    20  H    0.000001  -0.000000   0.000000   0.000000   0.000000   0.000000
    21  H   -0.000000   0.000000  -0.000000  -0.000000   0.000000  -0.000000
    22  H    0.000000  -0.000000   0.000000  -0.000000   0.000000   0.000000
    23  H   -0.000002   0.000000  -0.000000   0.000000  -0.000003  -0.000067
    24  H   -0.005724   0.000003  -0.000019   0.000005   0.000027  -0.000064
    25  H    0.533072   0.000083   0.000431   0.000202  -0.000052   0.000030
    26  H    0.000083   0.540486  -0.023074  -0.021204   0.001664  -0.000021
    27  H    0.000431  -0.023074   0.542289  -0.026690   0.000059   0.000003
    28  H    0.000202  -0.021204  -0.026690   0.544645   0.000178   0.000008
    29  H   -0.000052   0.001664   0.000059   0.000178   0.534020  -0.005465
    30  H    0.000030  -0.000021   0.000003   0.000008  -0.005465   0.477406
 Mulliken charges:
               1
     1  O   -0.460986
     2  S    0.856661
     3  N   -0.316302
     4  C    0.199335
     5  C   -0.270299
     6  C   -0.072257
     7  C   -0.137543
     8  C   -0.097114
     9  C   -0.217140
    10  C    0.000308
    11  C   -0.133567
    12  C   -0.195818
    13  C    0.162310
    14  C   -0.364165
    15  C   -0.188275
    16  C   -0.174818
    17  O   -0.474597
    18  H    0.248390
    19  H    0.166797
    20  H    0.127589
    21  H    0.123743
    22  H    0.123118
    23  H    0.115566
    24  H    0.165203
    25  H    0.125211
    26  H    0.126576
    27  H    0.132178
    28  H    0.139838
    29  H    0.124688
    30  H    0.165369
 Sum of Mulliken charges =  -0.00000
 Mulliken charges with hydrogens summed into heavy atoms:
               1
     1  O   -0.460986
     2  S    0.856661
     3  N   -0.067912
     4  C    0.199335
     5  C   -0.103501
     6  C    0.055332
     7  C   -0.013800
     8  C    0.026004
     9  C   -0.101575
    10  C    0.000308
    11  C    0.031636
    12  C   -0.070607
    13  C    0.162310
    14  C    0.034428
    15  C   -0.063588
    16  C   -0.009449
    17  O   -0.474597
 Electronic spatial extent (au):  <R**2>=           4366.7316
 Charge=             -0.0000 electrons
 Dipole moment (field-independent basis, Debye):
    X=             -1.8093    Y=             -5.3931    Z=             -1.7571  Tot=              5.9537
 Quadrupole moment (field-independent basis, Debye-Ang):
   XX=            -96.8916   YY=           -113.9385   ZZ=           -101.1358
   XY=              0.2940   XZ=              2.6371   YZ=             -4.5724
 Traceless Quadrupole moment (field-independent basis, Debye-Ang):
   XX=              7.0970   YY=             -9.9499   ZZ=              2.8528
   XY=              0.2940   XZ=              2.6371   YZ=             -4.5724
 Octapole moment (field-independent basis, Debye-Ang**2):
  XXX=            -41.3267  YYY=            -42.5931  ZZZ=            -11.5032  XYY=              3.4089
  XXY=            -16.3526  XXZ=              7.6442  XZZ=              2.7475  YZZ=             -0.2514
  YYZ=             -0.8489  XYZ=             -0.6574
 Hexadecapole moment (field-independent basis, Debye-Ang**3):
 XXXX=          -3347.1548 YYYY=          -1978.0362 ZZZZ=           -576.5522 XXXY=             53.6841
 XXXZ=            114.1145 YYYX=            -18.3059 YYYZ=             18.5522 ZZZX=             12.2060
 ZZZY=            -24.6065 XXYY=           -822.1190 XXZZ=           -638.3521 YYZZ=           -411.5694
 XXYZ=            -32.7677 YYXZ=            -12.8696 ZZXY=             -2.4062
 N-N= 1.331939475917D+03 E-N=-5.259249969535D+03  KE= 1.102023989964D+03
 Breneman (CHELPG) radii used.
 Read replacement radii for each type of atom:
 Atom Element Radius
    1     8    1.70
    2    16    2.00
    3     7    1.70
    4     6    1.50
    5     6    1.50
    6     6    1.50
    7     6    1.50
    8     6    1.50
    9     6    1.50
   10     6    1.50
   11     6    1.50
   12     6    1.50
   13     6    1.50
   14     6    1.50
   15     6    1.50
   16     6    1.50
   17     8    1.70
   18     1    1.45
   19     1    1.45
   20     1    1.45
   21     1    1.45
   22     1    1.45
   23     1    1.45
   24     1    1.45
   25     1    1.45
   26     1    1.45
   27     1    1.45
   28     1    1.45
   29     1    1.45
   30     1    1.45
 Generate Potential Derived Charges using the Breneman model, NDens= 1.
 Grid spacing= 0.300 Box extension= 2.800
 NStep X,Y,Z=   49     42     34   Total possible points=       69972
 Number of Points to Fit=   18718

 **********************************************************************

            Electrostatic Properties Using The SCF Density.

 **********************************************************************

       Atomic Center    1 is at   0.759673  2.051998  1.477679
       Atomic Center    2 is at   0.210791  1.955825  0.139408
       Atomic Center    3 is at   1.389138  1.268121 -0.841890
       Atomic Center    4 is at   1.950888  0.005004 -0.532695
       Atomic Center    5 is at   2.686485 -0.165780  0.645428
       Atomic Center    6 is at   3.220876 -1.415218  0.948252
       Atomic Center    7 is at   3.053610 -2.490948  0.075804
       Atomic Center    8 is at   2.334177 -2.314019 -1.104773
       Atomic Center    9 is at   1.771595 -1.075275 -1.403101
       Atomic Center   10 is at  -1.099570  0.752238  0.173110
       Atomic Center   11 is at  -1.041586 -0.304685  1.081413
       Atomic Center   12 is at  -2.034871 -1.277082  1.047817
       Atomic Center   13 is at  -3.090284 -1.206188  0.128506
       Atomic Center   14 is at  -4.174240 -2.250678  0.128669
       Atomic Center   15 is at  -3.125976 -0.128659 -0.764994
       Atomic Center   16 is at  -2.137105  0.850949 -0.750907
       Atomic Center   17 is at  -0.245222  3.116136 -0.601772
       Atomic Center   18 is at   1.145880  1.412291 -1.818077
       Atomic Center   19 is at   2.822575  0.684855  1.313207
       Atomic Center   20 is at   3.789860 -1.543917  1.871551
       Atomic Center   21 is at   3.486623 -3.464433  0.314252
       Atomic Center   22 is at   2.196289 -3.148931 -1.795067
       Atomic Center   23 is at   1.183858 -0.942458 -2.314979
       Atomic Center   24 is at  -0.227675 -0.356418  1.806273
       Atomic Center   25 is at  -1.991392 -2.109509  1.754583
       Atomic Center   26 is at  -4.732869 -2.254053 -0.817367
       Atomic Center   27 is at  -3.759707 -3.256515  0.288555
       Atomic Center   28 is at  -4.894308 -2.059700  0.940490
       Atomic Center   29 is at  -3.945441 -0.051855 -1.483933
       Atomic Center   30 is at  -2.169917  1.697587 -1.439217
   18718 points will be used for fitting atomic charges
 Fitting point charges to electrostatic potential
 Charges from ESP fit, RMS=   0.00368 RRMS=   0.22495:
 ESP charges:
               1
     1  O   -0.464957
     2  S    0.918779
     3  N   -0.640728
     4  C    0.411584
     5  C   -0.218213
     6  C   -0.049486
     7  C   -0.149646
     8  C   -0.046666
     9  C   -0.276373
    10  C   -0.060671
    11  C   -0.036252
    12  C   -0.243135
    13  C    0.268524
    14  C   -0.323905
    15  C   -0.225896
    16  C   -0.060395
    17  O   -0.482244
    18  H    0.353376
    19  H    0.158153
    20  H    0.094222
    21  H    0.104019
    22  H    0.101849
    23  H    0.112215
    24  H    0.099259
    25  H    0.133596
    26  H    0.092367
    27  H    0.089312
    28  H    0.102063
    29  H    0.127512
    30  H    0.111735
 Sum of ESP charges =  -0.00000
 ESP charges with hydrogens summed into heavy atoms:
               1
     1  O   -0.464957
     2  S    0.918779
     3  N   -0.287352
     4  C    0.411584
     5  C   -0.060060
     6  C    0.044736
     7  C   -0.045627
     8  C    0.055183
     9  C   -0.164158
    10  C   -0.060671
    11  C    0.063008
    12  C   -0.109538
    13  C    0.268524
    14  C   -0.040163
    15  C   -0.098384
    16  C    0.051339
    17  O   -0.482244
 Charge=  -0.00000 Dipole=    -1.6901    -5.2635    -1.7305 Tot=     5.7927
 -----------------------------------------------------------------

              Electrostatic Properties (Atomic Units)

 -----------------------------------------------------------------
    Center     Electric         -------- Electric Field --------
               Potential          X             Y             Z
 -----------------------------------------------------------------
    1 Atom    -22.373377
    2 Atom    -59.026798
    3 Atom    -18.345594
    4 Atom    -14.712653
    5 Atom    -14.763137
    6 Atom    -14.758948
    7 Atom    -14.761186
    8 Atom    -14.756673
    9 Atom    -14.755769
   10 Atom    -14.732014
   11 Atom    -14.745689
   12 Atom    -14.752999
   13 Atom    -14.736862
   14 Atom    -14.755050
   15 Atom    -14.752129
   16 Atom    -14.744905
   17 Atom    -22.373234
   18 Atom     -1.001973
   19 Atom     -1.101905
   20 Atom     -1.099674
   21 Atom     -1.099212
   22 Atom     -1.096040
   23 Atom     -1.087758
   24 Atom     -1.088699
   25 Atom     -1.091326
   26 Atom     -1.100879
   27 Atom     -1.099634
   28 Atom     -1.097768
   29 Atom     -1.090370
   30 Atom     -1.086181
 -----------------------------------------------------------------
 Unable to Open any file for archive entry.
 1\1\GINC-NOTCH225\SP\RwB97XD\def2TZVP\C13H13N1O2S1\U1366379\17-Feb-202
 6\0\\#N Guess=Read Geom=Check Integral(Ultrafine) Density Pop=(ChelpG,
 ReadRadii) NMR wB97XD def2TZVP\\prod_5l_2\\0,1\O,0,0.3650211352,2.6380
 967602,0.8700238549\S,0,-0.0135921909,2.139731732,-0.4375600328\N,0,1.
 3174085964,1.3377185069,-1.0775551663\C,0,1.9247215397,0.2621150358,-0
 .3841012511\C,0,2.5257309204,0.4805444195,0.8606156278\C,0,3.105750303
 7,-0.5863013728,1.5416368279\C,0,3.1178389562,-1.8646758278,0.98311230
 57\C,0,2.5327059094,-2.0762605792,-0.2640847321\C,0,1.9249708013,-1.02
 12736192,-0.9405797897\C,0,-1.2322108324,0.8643455563,-0.2026927559\C,
 0,-1.2091048784,0.0945739716,0.9602257198\C,0,-2.1216867263,-0.9453861
 429,1.0979763586\C,0,-3.0632100531,-1.2231262084,0.0977517186\C,0,-4.0
 646110961,-2.3323326028,0.2788001166\C,0,-3.067414008,-0.4274875223,-1
 .0544755166\C,0,-2.1573941188,0.6138275332,-1.2132892893\O,0,-0.457909
 5221,3.0134677069,-1.5065704597\H,0,1.1820252249,1.1953675584,-2.07470
 55559\H,0,2.5225765427,1.4859831812,1.2814640716\H,0,3.568971257,-0.41
 09192556,2.5150095864\H,0,3.5859482548,-2.6935969887,1.5177090115\H,0,
 2.535655353,-3.0727079747,-0.7109428228\H,0,1.4415357619,-1.191547667,
 -1.9059257402\H,0,-0.4851096362,0.3157653114,1.7460087965\H,0,-2.10463
 72838,-1.554134868,2.0054335209\H,0,-4.5057373581,-2.6394322776,-0.679
 4060333\H,0,-3.6032660889,-3.2147868225,0.7452163529\H,0,-4.8872018672
 ,-2.006471341,0.9354437732\H,0,-3.7993481941,-0.6236064012,-1.84194268
 22\H,0,-2.1670467021,1.2421201983,-2.105925815\\Version=ES64L-G16RevC.
 01\State=1-A\HF=-1106.6304755\RMSD=3.891e-09\Dipole=-0.4763403,-2.2883
 703,-0.1522952\Quadrupole=4.6259328,-8.1892579,3.5633251,2.0830246,2.0
 117038,-0.1160619\PG=C01 [X(C13H13N1O2S1)]\\@
 The archive entry for this job was punched.


 THE CHYMISTS ARE A STRANGE CLASS OF MORTALS IMPELLED
 BY AN ALMOST INSANE IMPULSE TO SEEK THEIR PLEASURE
 AMONG SMOKE AND VAPOR, SOOT AND FLAME, POISONS AND
 POVERTY; YET AMONG ALL THESE EVILS I SEEM TO LIVE
 SO SWEETLY, THAT I MAY DIE IF I WOULD CHANGE PLACES
 WITH THE PERSIAN KING.
   --  JOHANN JOACHIM BECHER, 1635-1682
 ACTA LABORATORII CHYMICA MONACENSIS, 1669
 Job cpu time:       0 days  1 hours 43 minutes 27.5 seconds.
 Elapsed time:       0 days  0 hours 13 minutes 20.9 seconds.
 File lengths (MBytes):  RWF=    226 Int=      0 D2E=      0 Chk=     34 Scr=      2
 Normal termination of Gaussian 16 at Tue Feb 17 17:11:38 2026.
