 Entering Gaussian System, Link 0=g16
 Input=prod_5g_8.com
 Output=prod_5g_8.log
 Initial command:
 /uufs/chpc.utah.edu/sys/installdir/gaussian16/C01/AVX/g16/l1.exe "/scratch/general/vast/u1366379/GAUSSSCRDIR/11028669-notchpeak.peaks/Gau-2594409.inp" -scrdir="/scratch/general/vast/u1366379/GAUSSSCRDIR/11028669-notchpeak.peaks/"
 Entering Link 1 = /uufs/chpc.utah.edu/sys/installdir/gaussian16/C01/AVX/g16/l1.exe PID=   2594411.
  
 Copyright (c) 1988-2019, Gaussian, Inc.  All Rights Reserved.
  
 This is part of the Gaussian(R) 16 program.  It is based on
 the Gaussian(R) 09 system (copyright 2009, Gaussian, Inc.),
 the Gaussian(R) 03 system (copyright 2003, Gaussian, Inc.),
 the Gaussian(R) 98 system (copyright 1998, Gaussian, Inc.),
 the Gaussian(R) 94 system (copyright 1995, Gaussian, Inc.),
 the Gaussian 92(TM) system (copyright 1992, Gaussian, Inc.),
 the Gaussian 90(TM) system (copyright 1990, Gaussian, Inc.),
 the Gaussian 88(TM) system (copyright 1988, Gaussian, Inc.),
 the Gaussian 86(TM) system (copyright 1986, Carnegie Mellon
 University), and the Gaussian 82(TM) system (copyright 1983,
 Carnegie Mellon University). Gaussian is a federally registered
 trademark of Gaussian, Inc.
  
 This software contains proprietary and confidential information,
 including trade secrets, belonging to Gaussian, Inc.
  
 This software is provided under written license and may be
 used, copied, transmitted, or stored only in accord with that
 written license.
  
 The following legend is applicable only to US Government
 contracts under FAR:
  
                    RESTRICTED RIGHTS LEGEND
  
 Use, reproduction and disclosure by the US Government is
 subject to restrictions as set forth in subparagraphs (a)
 and (c) of the Commercial Computer Software - Restricted
 Rights clause in FAR 52.227-19.
  
 Gaussian, Inc.
 340 Quinnipiac St., Bldg. 40, Wallingford CT 06492
  
  
 ---------------------------------------------------------------
 Warning -- This program may not be used in any manner that
 competes with the business of Gaussian, Inc. or will provide
 assistance to any competitor of Gaussian, Inc.  The licensee
 of this program is prohibited from giving any competitor of
 Gaussian, Inc. access to this program.  By using this program,
 the user acknowledges that Gaussian, Inc. is engaged in the
 business of creating and licensing software in the field of
 computational chemistry and represents and warrants to the
 licensee that it is not a competitor of Gaussian, Inc. and that
 it will not use this program in any manner prohibited above.
 ---------------------------------------------------------------
  

 Cite this work as:
 Gaussian 16, Revision C.01,
 M. J. Frisch, G. W. Trucks, H. B. Schlegel, G. E. Scuseria, 
 M. A. Robb, J. R. Cheeseman, G. Scalmani, V. Barone, 
 G. A. Petersson, H. Nakatsuji, X. Li, M. Caricato, A. V. Marenich, 
 J. Bloino, B. G. Janesko, R. Gomperts, B. Mennucci, H. P. Hratchian, 
 J. V. Ortiz, A. F. Izmaylov, J. L. Sonnenberg, D. Williams-Young, 
 F. Ding, F. Lipparini, F. Egidi, J. Goings, B. Peng, A. Petrone, 
 T. Henderson, D. Ranasinghe, V. G. Zakrzewski, J. Gao, N. Rega, 
 G. Zheng, W. Liang, M. Hada, M. Ehara, K. Toyota, R. Fukuda, 
 J. Hasegawa, M. Ishida, T. Nakajima, Y. Honda, O. Kitao, H. Nakai, 
 T. Vreven, K. Throssell, J. A. Montgomery, Jr., J. E. Peralta, 
 F. Ogliaro, M. J. Bearpark, J. J. Heyd, E. N. Brothers, K. N. Kudin, 
 V. N. Staroverov, T. A. Keith, R. Kobayashi, J. Normand, 
 K. Raghavachari, A. P. Rendell, J. C. Burant, S. S. Iyengar, 
 J. Tomasi, M. Cossi, J. M. Millam, M. Klene, C. Adamo, R. Cammi, 
 J. W. Ochterski, R. L. Martin, K. Morokuma, O. Farkas, 
 J. B. Foresman, and D. J. Fox, Gaussian, Inc., Wallingford CT, 2019.
 
 ******************************************
 Gaussian 16:  ES64L-G16RevC.01  3-Jul-2019
                17-Feb-2026 
 ******************************************
 %NProcShared=8
 Will use up to    8 processors via shared memory.
 %Mem=8GB
 %chk=prod_5g_8.chk
 ------------------------------------------------------
 #N OPT FREQ=NORAMAN Integral(Ultrafine) wB97XD def2SVP
 ------------------------------------------------------
 1/18=20,19=15,26=4,38=1/1,3;
 2/9=110,12=2,17=6,18=5,40=1/2;
 3/5=43,7=101,11=2,25=1,30=1,71=1,74=-58,75=-5/1,2,3;
 4//1;
 5/5=2,38=5/2;
 6/7=2,8=2,9=2,10=2,28=1/1;
 7//1,2,3,16;
 1/18=20,19=15,26=4/3(2);
 2/9=110/2;
 99//99;
 2/9=110/2;
 3/5=43,7=101,11=2,25=1,30=1,71=1,74=-58,75=-5/1,2,3;
 4/5=5,16=3,69=1/1;
 5/5=2,38=5/2;
 7//1,2,3,16;
 1/18=20,19=15,26=4/3(-5);
 2/9=110/2;
 6/7=2,8=2,9=2,10=2,19=2,28=1/1;
 99/9=1/99;
 ---------
 prod_5g_8
 ---------
 Symbolic Z-matrix:
 Charge =  0 Multiplicity = 1
 C                    -3.96981   1.57118  -1.91197 
 O                    -4.12461   0.94514  -0.66147 
 C                    -2.95004   0.39702  -0.12857 
 C                    -1.70424   0.44613  -0.75034 
 C                    -0.57356  -0.11433  -0.1663 
 N                     0.69566  -0.07061  -0.81552 
 C                     0.74945   0.17015  -2.2572 
 C                     1.92623  -0.21023  -0.09441 
 C                     2.11742   0.45834   1.11464 
 C                     3.29758   0.33107   1.81132 
 C                     4.31156  -0.46549   1.31621 
 C                     4.1398   -1.13486   0.1201 
 C                     2.96106  -1.00949  -0.58018 
 C                    -0.70989  -0.7474    1.069 
 C                    -1.93266  -0.80657   1.69871 
 C                    -3.04109  -0.2409    1.11118 
 H                    -3.27163   2.40469  -1.82678 
 H                    -4.93987   1.95434  -2.23023 
 H                    -3.61668   0.84877  -2.64877 
 H                    -1.60757   0.93657  -1.69845 
 H                     1.75802   0.02513  -2.63777 
 H                     0.45415   1.19441  -2.47617 
 H                     0.08122  -0.51417  -2.77668 
 H                     1.32942   1.08872   1.48827 
 H                     3.4314    0.85524   2.7435 
 H                     5.23507  -0.56535   1.86277 
 H                     4.92944  -1.75989  -0.26397 
 H                     2.8174   -1.55175  -1.49817 
 H                     0.15288  -1.20626   1.51843 
 H                    -2.02292  -1.29953   2.65284 
 H                    -4.00136  -0.28116   1.59388 
 

 GradGradGradGradGradGradGradGradGradGradGradGradGradGradGradGradGradGrad
 Berny optimization.
 Initialization pass.
                           ----------------------------
                           !    Initial Parameters    !
                           ! (Angstroms and Degrees)  !
 --------------------------                            --------------------------
 ! Name  Definition              Value          Derivative Info.                !
 --------------------------------------------------------------------------------
 ! R1    R(1,2)                  1.407          estimate D2E/DX2                !
 ! R2    R(1,17)                 1.0906         estimate D2E/DX2                !
 ! R3    R(1,18)                 1.0905         estimate D2E/DX2                !
 ! R4    R(1,19)                 1.0906         estimate D2E/DX2                !
 ! R5    R(2,3)                  1.4014         estimate D2E/DX2                !
 ! R6    R(3,4)                  1.3932         estimate D2E/DX2                !
 ! R7    R(3,16)                 1.3972         estimate D2E/DX2                !
 ! R8    R(4,5)                  1.3906         estimate D2E/DX2                !
 ! R9    R(4,20)                 1.0718         estimate D2E/DX2                !
 ! R10   R(5,6)                  1.4263         estimate D2E/DX2                !
 ! R11   R(5,14)                 1.3948         estimate D2E/DX2                !
 ! R12   R(6,7)                  1.4626         estimate D2E/DX2                !
 ! R13   R(6,8)                  1.4331         estimate D2E/DX2                !
 ! R14   R(7,21)                 1.0877         estimate D2E/DX2                !
 ! R15   R(7,22)                 1.0882         estimate D2E/DX2                !
 ! R16   R(7,23)                 1.0884         estimate D2E/DX2                !
 ! R17   R(8,9)                  1.3948         estimate D2E/DX2                !
 ! R18   R(8,13)                 1.3949         estimate D2E/DX2                !
 ! R19   R(9,10)                 1.3763         estimate D2E/DX2                !
 ! R20   R(9,24)                 1.0761         estimate D2E/DX2                !
 ! R21   R(10,11)                1.3812         estimate D2E/DX2                !
 ! R22   R(10,25)                1.0778         estimate D2E/DX2                !
 ! R23   R(11,12)                1.3814         estimate D2E/DX2                !
 ! R24   R(11,26)                1.0778         estimate D2E/DX2                !
 ! R25   R(12,13)                1.3768         estimate D2E/DX2                !
 ! R26   R(12,27)                1.0778         estimate D2E/DX2                !
 ! R27   R(13,28)                1.0758         estimate D2E/DX2                !
 ! R28   R(14,15)                1.3767         estimate D2E/DX2                !
 ! R29   R(14,29)                1.0756         estimate D2E/DX2                !
 ! R30   R(15,16)                1.3762         estimate D2E/DX2                !
 ! R31   R(15,30)                1.0777         estimate D2E/DX2                !
 ! R32   R(16,31)                1.0755         estimate D2E/DX2                !
 ! A1    A(2,1,17)             109.9416         estimate D2E/DX2                !
 ! A2    A(2,1,18)             108.5338         estimate D2E/DX2                !
 ! A3    A(2,1,19)             109.9581         estimate D2E/DX2                !
 ! A4    A(17,1,18)            108.8894         estimate D2E/DX2                !
 ! A5    A(17,1,19)            110.5926         estimate D2E/DX2                !
 ! A6    A(18,1,19)            108.8813         estimate D2E/DX2                !
 ! A7    A(1,2,3)              114.8201         estimate D2E/DX2                !
 ! A8    A(2,3,4)              124.4685         estimate D2E/DX2                !
 ! A9    A(2,3,16)             117.4742         estimate D2E/DX2                !
 ! A10   A(4,3,16)             118.0573         estimate D2E/DX2                !
 ! A11   A(3,4,5)              121.6973         estimate D2E/DX2                !
 ! A12   A(3,4,20)             119.443          estimate D2E/DX2                !
 ! A13   A(5,4,20)             118.8564         estimate D2E/DX2                !
 ! A14   A(4,5,6)              121.3345         estimate D2E/DX2                !
 ! A15   A(4,5,14)             118.3887         estimate D2E/DX2                !
 ! A16   A(6,5,14)             120.2674         estimate D2E/DX2                !
 ! A17   A(5,6,7)              119.1062         estimate D2E/DX2                !
 ! A18   A(5,6,8)              122.1465         estimate D2E/DX2                !
 ! A19   A(7,6,8)              118.7134         estimate D2E/DX2                !
 ! A20   A(6,7,21)             110.9178         estimate D2E/DX2                !
 ! A21   A(6,7,22)             110.077          estimate D2E/DX2                !
 ! A22   A(6,7,23)             110.1431         estimate D2E/DX2                !
 ! A23   A(21,7,22)            107.8607         estimate D2E/DX2                !
 ! A24   A(21,7,23)            108.5698         estimate D2E/DX2                !
 ! A25   A(22,7,23)            109.2159         estimate D2E/DX2                !
 ! A26   A(6,8,9)              120.4767         estimate D2E/DX2                !
 ! A27   A(6,8,13)             121.173          estimate D2E/DX2                !
 ! A28   A(9,8,13)             118.3499         estimate D2E/DX2                !
 ! A29   A(8,9,10)             120.797          estimate D2E/DX2                !
 ! A30   A(8,9,24)             118.7779         estimate D2E/DX2                !
 ! A31   A(10,9,24)            120.4195         estimate D2E/DX2                !
 ! A32   A(9,10,11)            120.0897         estimate D2E/DX2                !
 ! A33   A(9,10,25)            119.9529         estimate D2E/DX2                !
 ! A34   A(11,10,25)           119.9573         estimate D2E/DX2                !
 ! A35   A(10,11,12)           119.904          estimate D2E/DX2                !
 ! A36   A(10,11,26)           120.0462         estimate D2E/DX2                !
 ! A37   A(12,11,26)           120.0498         estimate D2E/DX2                !
 ! A38   A(11,12,13)           120.1816         estimate D2E/DX2                !
 ! A39   A(11,12,27)           119.8974         estimate D2E/DX2                !
 ! A40   A(13,12,27)           119.9206         estimate D2E/DX2                !
 ! A41   A(8,13,12)            120.6777         estimate D2E/DX2                !
 ! A42   A(8,13,28)            119.1378         estimate D2E/DX2                !
 ! A43   A(12,13,28)           120.1617         estimate D2E/DX2                !
 ! A44   A(5,14,15)            120.7606         estimate D2E/DX2                !
 ! A45   A(5,14,29)            119.0324         estimate D2E/DX2                !
 ! A46   A(15,14,29)           120.1986         estimate D2E/DX2                !
 ! A47   A(14,15,16)           120.163          estimate D2E/DX2                !
 ! A48   A(14,15,30)           119.934          estimate D2E/DX2                !
 ! A49   A(16,15,30)           119.9028         estimate D2E/DX2                !
 ! A50   A(3,16,15)            120.931          estimate D2E/DX2                !
 ! A51   A(3,16,31)            118.2617         estimate D2E/DX2                !
 ! A52   A(15,16,31)           120.807          estimate D2E/DX2                !
 ! D1    D(17,1,2,3)           -61.2414         estimate D2E/DX2                !
 ! D2    D(18,1,2,3)           179.7551         estimate D2E/DX2                !
 ! D3    D(19,1,2,3)            60.7517         estimate D2E/DX2                !
 ! D4    D(1,2,3,4)              0.1255         estimate D2E/DX2                !
 ! D5    D(1,2,3,16)          -179.8756         estimate D2E/DX2                !
 ! D6    D(2,3,4,5)            179.7937         estimate D2E/DX2                !
 ! D7    D(2,3,4,20)             0.4607         estimate D2E/DX2                !
 ! D8    D(16,3,4,5)            -0.2052         estimate D2E/DX2                !
 ! D9    D(16,3,4,20)         -179.5382         estimate D2E/DX2                !
 ! D10   D(2,3,16,15)          179.8545         estimate D2E/DX2                !
 ! D11   D(2,3,16,31)            0.0315         estimate D2E/DX2                !
 ! D12   D(4,3,16,15)           -0.1465         estimate D2E/DX2                !
 ! D13   D(4,3,16,31)         -179.9696         estimate D2E/DX2                !
 ! D14   D(3,4,5,6)            179.4033         estimate D2E/DX2                !
 ! D15   D(3,4,5,14)             0.5149         estimate D2E/DX2                !
 ! D16   D(20,4,5,6)            -1.2599         estimate D2E/DX2                !
 ! D17   D(20,4,5,14)          179.8516         estimate D2E/DX2                !
 ! D18   D(4,5,6,7)            -19.5208         estimate D2E/DX2                !
 ! D19   D(4,5,6,8)            158.3326         estimate D2E/DX2                !
 ! D20   D(14,5,6,7)           159.347          estimate D2E/DX2                !
 ! D21   D(14,5,6,8)           -22.7996         estimate D2E/DX2                !
 ! D22   D(4,5,14,15)           -0.4838         estimate D2E/DX2                !
 ! D23   D(4,5,14,29)          178.462          estimate D2E/DX2                !
 ! D24   D(6,5,14,15)         -179.3845         estimate D2E/DX2                !
 ! D25   D(6,5,14,29)           -0.4388         estimate D2E/DX2                !
 ! D26   D(5,6,7,21)          -171.253          estimate D2E/DX2                !
 ! D27   D(5,6,7,22)            69.4533         estimate D2E/DX2                !
 ! D28   D(5,6,7,23)           -51.0319         estimate D2E/DX2                !
 ! D29   D(8,6,7,21)            10.8192         estimate D2E/DX2                !
 ! D30   D(8,6,7,22)          -108.4745         estimate D2E/DX2                !
 ! D31   D(8,6,7,23)           131.0403         estimate D2E/DX2                !
 ! D32   D(5,6,8,9)            -43.6759         estimate D2E/DX2                !
 ! D33   D(5,6,8,13)           136.5262         estimate D2E/DX2                !
 ! D34   D(7,6,8,9)            134.1857         estimate D2E/DX2                !
 ! D35   D(7,6,8,13)           -45.6123         estimate D2E/DX2                !
 ! D36   D(6,8,9,10)          -179.8703         estimate D2E/DX2                !
 ! D37   D(6,8,9,24)            -0.7296         estimate D2E/DX2                !
 ! D38   D(13,8,9,10)           -0.0667         estimate D2E/DX2                !
 ! D39   D(13,8,9,24)          179.0739         estimate D2E/DX2                !
 ! D40   D(6,8,13,12)          179.9083         estimate D2E/DX2                !
 ! D41   D(6,8,13,28)           -1.8216         estimate D2E/DX2                !
 ! D42   D(9,8,13,12)            0.1061         estimate D2E/DX2                !
 ! D43   D(9,8,13,28)          178.3762         estimate D2E/DX2                !
 ! D44   D(8,9,10,11)            0.0153         estimate D2E/DX2                !
 ! D45   D(8,9,10,25)          179.8945         estimate D2E/DX2                !
 ! D46   D(24,9,10,11)        -179.1112         estimate D2E/DX2                !
 ! D47   D(24,9,10,25)           0.7679         estimate D2E/DX2                !
 ! D48   D(9,10,11,12)          -0.0014         estimate D2E/DX2                !
 ! D49   D(9,10,11,26)        -179.9451         estimate D2E/DX2                !
 ! D50   D(25,10,11,12)       -179.8805         estimate D2E/DX2                !
 ! D51   D(25,10,11,26)          0.1758         estimate D2E/DX2                !
 ! D52   D(10,11,12,13)          0.0408         estimate D2E/DX2                !
 ! D53   D(10,11,12,27)       -179.7282         estimate D2E/DX2                !
 ! D54   D(26,11,12,13)        179.9845         estimate D2E/DX2                !
 ! D55   D(26,11,12,27)          0.2155         estimate D2E/DX2                !
 ! D56   D(11,12,13,8)          -0.0943         estimate D2E/DX2                !
 ! D57   D(11,12,13,28)       -178.3467         estimate D2E/DX2                !
 ! D58   D(27,12,13,8)         179.6746         estimate D2E/DX2                !
 ! D59   D(27,12,13,28)          1.4222         estimate D2E/DX2                !
 ! D60   D(5,14,15,16)           0.1474         estimate D2E/DX2                !
 ! D61   D(5,14,15,30)         179.971          estimate D2E/DX2                !
 ! D62   D(29,14,15,16)       -178.7861         estimate D2E/DX2                !
 ! D63   D(29,14,15,30)          1.0375         estimate D2E/DX2                !
 ! D64   D(14,15,16,3)           0.1753         estimate D2E/DX2                !
 ! D65   D(14,15,16,31)        179.9938         estimate D2E/DX2                !
 ! D66   D(30,15,16,3)        -179.6484         estimate D2E/DX2                !
 ! D67   D(30,15,16,31)          0.1702         estimate D2E/DX2                !
 --------------------------------------------------------------------------------
 Trust Radius=3.00D-01 FncErr=1.00D-07 GrdErr=1.00D-06 EigMax=2.50D+02 EigMin=1.00D-04
 Number of steps in this run=    161 maximum allowed number of steps=    186.
 GradGradGradGradGradGradGradGradGradGradGradGradGradGradGradGradGradGrad

                          Input orientation:                          
 ---------------------------------------------------------------------
 Center     Atomic      Atomic             Coordinates (Angstroms)
 Number     Number       Type             X           Y           Z
 ---------------------------------------------------------------------
      1          6           0       -3.969810    1.571180   -1.911970
      2          8           0       -4.124610    0.945140   -0.661470
      3          6           0       -2.950040    0.397020   -0.128570
      4          6           0       -1.704240    0.446130   -0.750340
      5          6           0       -0.573560   -0.114330   -0.166300
      6          7           0        0.695660   -0.070610   -0.815520
      7          6           0        0.749450    0.170150   -2.257200
      8          6           0        1.926230   -0.210230   -0.094410
      9          6           0        2.117420    0.458340    1.114640
     10          6           0        3.297580    0.331070    1.811320
     11          6           0        4.311560   -0.465490    1.316210
     12          6           0        4.139800   -1.134860    0.120100
     13          6           0        2.961060   -1.009490   -0.580180
     14          6           0       -0.709890   -0.747400    1.069000
     15          6           0       -1.932660   -0.806570    1.698710
     16          6           0       -3.041090   -0.240900    1.111180
     17          1           0       -3.271630    2.404690   -1.826780
     18          1           0       -4.939870    1.954340   -2.230230
     19          1           0       -3.616680    0.848770   -2.648770
     20          1           0       -1.607570    0.936570   -1.698450
     21          1           0        1.758020    0.025130   -2.637770
     22          1           0        0.454150    1.194410   -2.476170
     23          1           0        0.081220   -0.514170   -2.776680
     24          1           0        1.329420    1.088720    1.488270
     25          1           0        3.431400    0.855240    2.743500
     26          1           0        5.235070   -0.565350    1.862770
     27          1           0        4.929440   -1.759890   -0.263970
     28          1           0        2.817400   -1.551750   -1.498170
     29          1           0        0.152880   -1.206260    1.518430
     30          1           0       -2.022920   -1.299530    2.652840
     31          1           0       -4.001360   -0.281160    1.593880
 ---------------------------------------------------------------------
                    Distance matrix (angstroms):
                    1          2          3          4          5
     1  C    0.000000
     2  O    1.406997   0.000000
     3  C    2.366241   1.401439   0.000000
     4  C    2.783510   2.472873   1.393208   0.000000
     5  C    4.174065   3.738666   2.431164   1.390559   0.000000
     6  N    5.065993   4.928538   3.739212   2.455766   1.426295
     7  C    4.934925   5.186851   4.274197   2.892644   2.490612
     8  C    6.421856   6.186203   4.914054   3.747181   2.502662
     9  C    6.888625   6.508032   5.218092   4.252456   3.034820
    10  C    8.259281   7.847336   6.542192   5.620813   4.369793
    11  C    9.118676   8.778955   7.454002   6.425849   5.117182
    12  C    8.787362   8.557904   7.257708   6.116371   4.831073
    13  C    7.514684   7.350776   6.092891   4.890072   3.669625
    14  C    4.988895   4.185634   2.786062   2.392330   1.394751
    15  C    4.779193   3.666549   2.413015   2.760304   2.409276
    16  C    3.644940   2.392278   1.397216   2.392579   2.781489
    17  H    1.090620   2.053243   2.649165   2.729724   4.047498
    18  H    1.090467   2.035716   3.286585   3.864463   5.253938
    19  H    1.090620   2.053446   2.645731   2.724625   4.043612
    20  H    2.455300   2.722295   2.134915   1.071816   2.126276
    21  H    5.977047   6.273557   5.347917   3.965713   3.400570
    22  H    4.475679   4.931563   4.211362   2.863051   2.846838
    23  H    4.637591   4.928763   4.126898   2.866374   2.720789
    24  H    6.314764   5.864166   4.626705   3.824577   2.793969
    25  H    8.772906   8.288256   7.012954   6.224876   5.044473
    26  H   10.175620   9.811064   8.478657   7.483680   6.169338
    27  H    9.644096   9.457855   8.170483   7.007766   5.744599
    28  H    7.482656   7.424691   6.239942   4.999600   3.916461
    29  H    6.039734   5.260932   3.861506   3.365502   2.135027
    30  H    5.733136   4.521094   3.387340   3.838036   3.384212
    31  H    3.965242   2.570137   2.128858   3.361708   3.856926
                    6          7          8          9         10
     6  N    0.000000
     7  C    1.462635   0.000000
     8  C    1.433107   2.491417   0.000000
     9  C    2.454935   3.650164   1.394755   0.000000
    10  C    3.719089   4.803303   2.409443   1.376350   0.000000
    11  C    4.216033   5.085462   2.782949   2.389214   1.381230
    12  C    3.724260   4.341553   2.408495   2.759967   2.391341
    13  C    2.463517   3.015819   1.394870   2.395552   2.762177
    14  C    2.446432   3.746355   2.931075   3.074016   4.215917
    15  C    3.710937   4.878209   4.296735   4.283023   5.353720
    16  C    4.207668   5.087547   5.111620   5.205687   6.402818
    17  H    4.784260   4.620337   6.070969   6.440659   7.790391
    18  H    6.153131   5.962585   7.509355   7.951825   9.317978
    19  H    4.775180   4.435870   6.194359   6.869905   8.244235
    20  H    2.664366   2.540698   4.046707   4.692305   6.061816
    21  H    2.111485   1.087694   2.559760   3.794393   4.717865
    22  H    2.101514   1.088236   3.132541   4.025193   5.216610
    23  H    2.102482   1.088432   3.269712   4.498250   5.666493
    24  H    2.655776   3.899831   2.132681   1.076068   2.133553
    25  H    4.583459   5.715698   3.384449   2.130084   1.077785
    26  H    5.293793   6.134810   3.860711   3.365618   2.135435
    27  H    4.591597   5.017005   3.383706   3.837781   3.367775
    28  H    2.676110   2.795976   2.136446   3.370046   3.837748
    29  H    2.651723   4.062731   2.595785   2.606407   3.512593
    30  H    4.574980   5.827048   4.932519   4.753797   5.628031
    31  H    5.283137   6.132267   6.163739   6.181909   7.327798
                   11         12         13         14         15
    11  C    0.000000
    12  C    1.381389   0.000000
    13  C    2.390833   1.376785   0.000000
    14  C    5.035429   4.956816   4.032910   0.000000
    15  C    6.265215   6.282878   5.402130   1.376663   0.000000
    16  C    7.358936   7.303875   6.283091   2.385962   1.376151
    17  H    8.696039   8.440856   7.215058   4.988359   4.953192
    18  H   10.199106   9.874594   8.598351   6.006417   5.665907
    19  H    8.961324   8.471388   7.141348   4.981867   4.947389
    20  H    6.788965   6.374183   5.090192   3.361601   3.832090
    21  H    4.732360   3.824173   2.598350   4.519682   5.754816
    22  H    5.658359   5.074459   3.838822   4.206405   5.208686
    23  H    5.886416   5.024805   3.655603   3.933129   4.916333
    24  H    3.367244   3.835940   3.367970   2.775952   3.778568
    25  H    2.134518   3.368168   3.839959   4.745807   5.711947
    26  H    1.077762   2.135616   3.366955   6.000480   7.173664
    27  H    2.134061   1.077824   2.130166   5.882515   7.200649
    28  H    3.366483   2.131041   1.075820   4.436115   5.773942
    29  H    4.228978   4.225631   3.511233   1.075598   2.131134
    30  H    6.527468   6.664909   5.947823   2.130128   1.077739
    31  H    8.319598   8.317410   7.330231   3.365509   2.136952
                   16         17         18         19         20
    16  C    0.000000
    17  H    3.960291   0.000000
    18  H    4.425999   1.774433   0.000000
    19  H    3.956755   1.793213   1.774343   0.000000
    20  H    3.366814   2.222823   3.524609   2.224262   0.000000
    21  H    6.095642   5.622934   6.982096   5.437454   3.611127
    22  H    5.210172   3.970884   5.452837   4.089122   2.218562
    23  H    4.993891   4.545730   5.621698   3.943150   2.473709
    24  H    4.583824   5.821597   7.340336   6.452641   4.336386
    25  H    6.764549   8.259471   9.799192   8.874235   6.717794
    26  H    8.316549   9.736419  11.253039  10.035298   7.858739
    27  H    8.229685   9.329719  10.726834   9.248164   7.215340
    28  H    6.545910   7.268954   8.544227   6.963028   5.080572
    29  H    3.361431   5.996387   7.069508   5.983167   4.247260
    30  H    2.129339   5.945378   6.552911   5.938210   4.909825
    31  H    1.075518   4.409899   4.527922   4.407357   4.248827
                   21         22         23         24         25
    21  H    0.000000
    22  H    1.758808   0.000000
    23  H    1.766861   1.774438   0.000000
    24  H    4.282421   4.061287   4.724093   0.000000
    25  H    5.696258   6.018638   6.600862   2.459357   0.000000
    26  H    5.717815   6.691812   6.934644   4.257969   2.459062
    27  H    4.345012   5.800857   5.600961   4.913763   4.257688
    28  H    2.215293   3.752710   3.193406   4.254996   4.915522
    29  H    4.622423   4.670204   4.351103   2.579164   4.061930
    30  H    6.636323   6.217906   5.875703   4.277633   5.865225
    31  H    7.153400   6.212422   5.985278   5.504992   7.606507
                   26         27         28         29         30
    26  H    0.000000
    27  H    2.458324   0.000000
    28  H    4.256058   2.455053   0.000000
    29  H    5.134003   5.128253   4.039667   0.000000
    30  H    7.337687   7.553477   6.381473   2.455543   0.000000
    31  H    9.244712   9.241073   7.594120   4.256667   2.464285
                   31
    31  H    0.000000
 Stoichiometry    C14H15NO
 Framework group  C1[X(C14H15NO)]
 Deg. of freedom    87
 Full point group                 C1      NOp   1
 Largest Abelian subgroup         C1      NOp   1
 Largest concise Abelian subgroup C1      NOp   1
                         Standard orientation:                         
 ---------------------------------------------------------------------
 Center     Atomic      Atomic             Coordinates (Angstroms)
 Number     Number       Type             X           Y           Z
 ---------------------------------------------------------------------
      1          6           0       -4.432053    1.323215    0.617109
      2          8           0       -4.271974   -0.026507    0.253426
      3          6           0       -2.951625   -0.410059   -0.017867
      4          6           0       -1.851938    0.442133    0.056190
      5          6           0       -0.563725   -0.001550   -0.221855
      6          7           0        0.555032    0.880688   -0.155838
      7          6           0        0.327486    2.324150   -0.218600
      8          6           0        1.894804    0.401689    0.015524
      9          6           0        2.173814   -0.602970    0.941891
     10          6           0        3.458478   -1.066054    1.113735
     11          6           0        4.491451   -0.536336    0.365295
     12          6           0        4.233626    0.459520   -0.556678
     13          6           0        2.950052    0.926002   -0.730942
     14          6           0       -0.387079   -1.334297   -0.593218
     15          6           0       -1.461409   -2.191466   -0.672456
     16          6           0       -2.729415   -1.739105   -0.387287
     17          1           0       -3.874479    1.530809    1.531148
     18          1           0       -5.490855    1.509858    0.799369
     19          1           0       -4.094137    1.969792   -0.193571
     20          1           0       -1.996002    1.464307    0.344623
     21          1           0        1.268328    2.861899   -0.311982
     22          1           0       -0.162863    2.664944    0.691168
     23          1           0       -0.297738    2.568131   -1.075486
     24          1           0        1.367349   -1.001824    1.532188
     25          1           0        3.658966   -1.841717    1.834689
     26          1           0        5.497013   -0.900099    0.499801
     27          1           0        5.039073    0.869733   -1.143776
     28          1           0        2.745306    1.682750   -1.467692
     29          1           0        0.601603   -1.682206   -0.834835
     30          1           0       -1.309696   -3.218645   -0.961259
     31          1           0       -3.576096   -2.399730   -0.445981
 ---------------------------------------------------------------------
 Rotational constants (GHZ):           1.3124480           0.2748303           0.2429931
 Standard basis: def2SVP (5D, 7F)
 There are   315 symmetry adapted cartesian basis functions of A   symmetry.
 There are   299 symmetry adapted basis functions of A   symmetry.
   299 basis functions,   505 primitive gaussians,   315 cartesian basis functions
    57 alpha electrons       57 beta electrons
       nuclear repulsion energy      1028.0864806292 Hartrees.
 NAtoms=   31 NActive=   31 NUniq=   31 SFac= 1.00D+00 NAtFMM=   60 NAOKFM=F Big=F
 Integral buffers will be    131072 words long.
 Raffenetti 2 integral format.
 Two-electron integral symmetry is turned on.
 Nuclear repulsion after empirical dispersion term =     1028.0660503712 Hartrees.
 One-electron integrals computed using PRISM.
   1 Symmetry operations used in ECPInt.
 ECPInt:  NShTT=   10011 NPrTT=   36031 LenC2=    9309 LenP2D=   24307.
 LDataN:  DoStor=T MaxTD1= 4 Len=   56
 NBasis=   299 RedAO= T EigKep=  2.15D-04  NBF=   299
 NBsUse=   299 1.00D-06 EigRej= -1.00D+00 NBFU=   299
 ExpMin= 1.22D-01 ExpMax= 2.27D+03 ExpMxC= 3.41D+02 IAcc=3 IRadAn=         5 AccDes= 0.00D+00
 Harris functional with IExCor= 4639 and IRadAn=       5 diagonalized for initial guess.
 HarFok:  IExCor= 4639 AccDes= 0.00D+00 IRadAn=         5 IDoV= 1 UseB2=F ITyADJ=14
 ICtDFT=  3500011 ScaDFX=  1.000000  1.000000  1.000000  1.000000
 FoFCou: FMM=F IPFlag=           0 FMFlag=      100000 FMFlg1=           0
         NFxFlg=           0 DoJE=T BraDBF=F KetDBF=T FulRan=T
         wScrn=  0.000000 ICntrl=       500 IOpCl=  0 I1Cent=   200000004 NGrid=           0
         NMat0=    1 NMatS0=      1 NMatT0=    0 NMatD0=    1 NMtDS0=    0 NMtDT0=    0
 Petite list used in FoFCou.
 Requested convergence on RMS density matrix=1.00D-08 within 128 cycles.
 Requested convergence on MAX density matrix=1.00D-06.
 Requested convergence on             energy=1.00D-06.
 No special actions if energy rises.
 Integral accuracy reduced to 1.0D-05 until final iterations.
 Initial convergence to 1.0D-05 achieved.  Increase integral accuracy.
 SCF Done:  E(RwB97XD) =  -671.771295041     A.U. after   15 cycles
            NFock= 15  Conv=0.54D-08     -V/T= 2.0105

 **********************************************************************

            Population analysis using the SCF Density.

 **********************************************************************

 Orbital symmetries:
       Occupied  (A) (A) (A) (A) (A) (A) (A) (A) (A) (A) (A) (A)
                 (A) (A) (A) (A) (A) (A) (A) (A) (A) (A) (A) (A)
                 (A) (A) (A) (A) (A) (A) (A) (A) (A) (A) (A) (A)
                 (A) (A) (A) (A) (A) (A) (A) (A) (A) (A) (A) (A)
                 (A) (A) (A) (A) (A) (A) (A) (A) (A)
       Virtual   (A) (A) (A) (A) (A) (A) (A) (A) (A) (A) (A) (A)
                 (A) (A) (A) (A) (A) (A) (A) (A) (A) (A) (A) (A)
                 (A) (A) (A) (A) (A) (A) (A) (A) (A) (A) (A) (A)
                 (A) (A) (A) (A) (A) (A) (A) (A) (A) (A) (A) (A)
                 (A) (A) (A) (A) (A) (A) (A) (A) (A) (A) (A) (A)
                 (A) (A) (A) (A) (A) (A) (A) (A) (A) (A) (A) (A)
                 (A) (A) (A) (A) (A) (A) (A) (A) (A) (A) (A) (A)
                 (A) (A) (A) (A) (A) (A) (A) (A) (A) (A) (A) (A)
                 (A) (A) (A) (A) (A) (A) (A) (A) (A) (A) (A) (A)
                 (A) (A) (A) (A) (A) (A) (A) (A) (A) (A) (A) (A)
                 (A) (A) (A) (A) (A) (A) (A) (A) (A) (A) (A) (A)
                 (A) (A) (A) (A) (A) (A) (A) (A) (A) (A) (A) (A)
                 (A) (A) (A) (A) (A) (A) (A) (A) (A) (A) (A) (A)
                 (A) (A) (A) (A) (A) (A) (A) (A) (A) (A) (A) (A)
                 (A) (A) (A) (A) (A) (A) (A) (A) (A) (A) (A) (A)
                 (A) (A) (A) (A) (A) (A) (A) (A) (A) (A) (A) (A)
                 (A) (A) (A) (A) (A) (A) (A) (A) (A) (A) (A) (A)
                 (A) (A) (A) (A) (A) (A) (A) (A) (A) (A) (A) (A)
                 (A) (A) (A) (A) (A) (A) (A) (A) (A) (A) (A) (A)
                 (A) (A) (A) (A) (A) (A) (A) (A) (A) (A) (A) (A)
                 (A) (A)
 The electronic state is 1-A.
 Alpha  occ. eigenvalues --  -19.28220 -14.46672 -10.35711 -10.34696 -10.34191
 Alpha  occ. eigenvalues --  -10.34143 -10.33202 -10.30006 -10.29888 -10.29794
 Alpha  occ. eigenvalues --  -10.29510 -10.29457 -10.29395 -10.29127 -10.28158
 Alpha  occ. eigenvalues --  -10.28117  -1.14547  -1.04287  -0.95620  -0.93824
 Alpha  occ. eigenvalues --   -0.85227  -0.84975  -0.84083  -0.82968  -0.79348
 Alpha  occ. eigenvalues --   -0.76394  -0.71273  -0.69925  -0.68516  -0.66559
 Alpha  occ. eigenvalues --   -0.63472  -0.60721  -0.58212  -0.56511  -0.56343
 Alpha  occ. eigenvalues --   -0.56115  -0.55706  -0.54077  -0.53282  -0.52111
 Alpha  occ. eigenvalues --   -0.51605  -0.51059  -0.49729  -0.47910  -0.46815
 Alpha  occ. eigenvalues --   -0.46680  -0.45223  -0.44430  -0.43298  -0.42880
 Alpha  occ. eigenvalues --   -0.41241  -0.41122  -0.37319  -0.33674  -0.33480
 Alpha  occ. eigenvalues --   -0.30637  -0.25971
 Alpha virt. eigenvalues --    0.05412   0.05993   0.07937   0.09224   0.13271
 Alpha virt. eigenvalues --    0.14943   0.16324   0.17035   0.18495   0.19159
 Alpha virt. eigenvalues --    0.20124   0.20466   0.20661   0.21409   0.21605
 Alpha virt. eigenvalues --    0.22513   0.23195   0.23667   0.23982   0.24370
 Alpha virt. eigenvalues --    0.24836   0.26267   0.27122   0.30725   0.33915
 Alpha virt. eigenvalues --    0.35421   0.36458   0.37129   0.37408   0.37873
 Alpha virt. eigenvalues --    0.39757   0.41070   0.41622   0.42389   0.43485
 Alpha virt. eigenvalues --    0.45867   0.47801   0.48950   0.49223   0.49648
 Alpha virt. eigenvalues --    0.50829   0.52943   0.53895   0.54148   0.54575
 Alpha virt. eigenvalues --    0.56234   0.56678   0.57479   0.57814   0.58369
 Alpha virt. eigenvalues --    0.58516   0.59011   0.59243   0.61818   0.62096
 Alpha virt. eigenvalues --    0.63949   0.64871   0.65443   0.66170   0.67762
 Alpha virt. eigenvalues --    0.67919   0.69415   0.70981   0.71704   0.72506
 Alpha virt. eigenvalues --    0.73033   0.73498   0.73960   0.74271   0.74962
 Alpha virt. eigenvalues --    0.75144   0.75270   0.76225   0.76585   0.77314
 Alpha virt. eigenvalues --    0.77577   0.78030   0.79751   0.80017   0.80863
 Alpha virt. eigenvalues --    0.82336   0.83001   0.83534   0.84517   0.85417
 Alpha virt. eigenvalues --    0.86520   0.87561   0.88937   0.89257   0.90016
 Alpha virt. eigenvalues --    0.91705   0.92757   0.94529   0.96362   0.99620
 Alpha virt. eigenvalues --    1.00841   1.02657   1.03443   1.07037   1.08431
 Alpha virt. eigenvalues --    1.11308   1.12325   1.15021   1.16794   1.18839
 Alpha virt. eigenvalues --    1.20617   1.23996   1.26220   1.28796   1.29363
 Alpha virt. eigenvalues --    1.29777   1.32188   1.33068   1.33643   1.34856
 Alpha virt. eigenvalues --    1.35626   1.37070   1.37940   1.38697   1.40084
 Alpha virt. eigenvalues --    1.40269   1.41555   1.42344   1.44119   1.49422
 Alpha virt. eigenvalues --    1.55287   1.56073   1.57513   1.60217   1.62124
 Alpha virt. eigenvalues --    1.63484   1.64054   1.67734   1.70543   1.75753
 Alpha virt. eigenvalues --    1.76366   1.77411   1.78232   1.78764   1.80007
 Alpha virt. eigenvalues --    1.80806   1.81634   1.82478   1.83015   1.84057
 Alpha virt. eigenvalues --    1.84623   1.85177   1.85888   1.86848   1.87426
 Alpha virt. eigenvalues --    1.89179   1.89500   1.90182   1.90655   1.91210
 Alpha virt. eigenvalues --    1.91811   1.92457   1.93729   1.94375   1.96984
 Alpha virt. eigenvalues --    1.98262   1.98853   1.99963   2.01852   2.02690
 Alpha virt. eigenvalues --    2.04193   2.04710   2.06625   2.07348   2.08476
 Alpha virt. eigenvalues --    2.09717   2.10654   2.13382   2.15349   2.16658
 Alpha virt. eigenvalues --    2.20053   2.22314   2.23323   2.24471   2.25964
 Alpha virt. eigenvalues --    2.27707   2.28217   2.28777   2.29826   2.30784
 Alpha virt. eigenvalues --    2.31549   2.32584   2.34991   2.37053   2.38566
 Alpha virt. eigenvalues --    2.39775   2.40765   2.40943   2.42063   2.43190
 Alpha virt. eigenvalues --    2.45191   2.45343   2.46155   2.49364   2.52323
 Alpha virt. eigenvalues --    2.54467   2.57356   2.62458   2.65157   2.68610
 Alpha virt. eigenvalues --    2.69824   2.70516   2.72968   2.74222   2.75215
 Alpha virt. eigenvalues --    2.76492   2.77724   2.78121   2.82401   2.84588
 Alpha virt. eigenvalues --    2.85176   2.86338   2.89695   2.90318   2.92221
 Alpha virt. eigenvalues --    2.96014   2.97187   2.97974   2.98581   3.00544
 Alpha virt. eigenvalues --    3.00912   3.05023   3.06100   3.09000   3.11377
 Alpha virt. eigenvalues --    3.14723   3.15355   3.18270   3.24899   3.25326
 Alpha virt. eigenvalues --    3.29151   3.38258   3.42917   3.53571   3.56062
 Alpha virt. eigenvalues --    3.79165   3.82302
          Condensed to atoms (all electrons):
               1          2          3          4          5          6
     1  C    4.389214   0.302370  -0.058107  -0.000610   0.001376  -0.000014
     2  O    0.302370   7.910190   0.390887  -0.085301   0.005026  -0.000008
     3  C   -0.058107   0.390887   5.033721   0.125558   0.161432   0.008369
     4  C   -0.000610  -0.085301   0.125558   5.578079   0.176903  -0.089778
     5  C    0.001376   0.005026   0.161432   0.176903   5.073412   0.340242
     6  N   -0.000014  -0.000008   0.008369  -0.089778   0.340242   6.814507
     7  C   -0.000043  -0.000006   0.000270   0.001908  -0.050850   0.339726
     8  C    0.000000   0.000000   0.000032   0.007395  -0.045814   0.305181
     9  C   -0.000000   0.000000  -0.000009   0.000487  -0.005184  -0.077200
    10  C    0.000000  -0.000000   0.000002  -0.000045   0.000087   0.009268
    11  C   -0.000000   0.000000  -0.000000   0.000001   0.000030  -0.000414
    12  C    0.000000   0.000000  -0.000000   0.000001  -0.000188   0.008306
    13  C   -0.000000  -0.000000  -0.000001  -0.000506   0.004147  -0.075310
    14  C    0.000118  -0.000285  -0.182142   0.082021   0.241307  -0.086821
    15  C   -0.000333   0.004118   0.146055  -0.167474   0.147200   0.009511
    16  C    0.006356  -0.067544   0.272053   0.059099  -0.162753  -0.000965
    17  H    0.402687  -0.030601  -0.009556   0.005424   0.001037   0.000013
    18  H    0.396364  -0.020659   0.004897   0.000561  -0.000050  -0.000001
    19  H    0.402222  -0.030719  -0.009127   0.005346   0.000911   0.000024
    20  H    0.011795  -0.009412  -0.093610   0.457742  -0.067060  -0.017717
    21  H    0.000000  -0.000000  -0.000057   0.000746   0.005911  -0.017949
    22  H   -0.000070   0.000010   0.001194   0.002978  -0.011797  -0.032632
    23  H   -0.000029   0.000001   0.000976   0.004553  -0.006082  -0.028151
    24  H   -0.000000  -0.000000   0.000028  -0.000902   0.004312  -0.012140
    25  H    0.000000   0.000000   0.000000  -0.000000  -0.000023  -0.000134
    26  H    0.000000   0.000000   0.000000   0.000000   0.000001   0.000008
    27  H   -0.000000  -0.000000   0.000000  -0.000000   0.000007  -0.000143
    28  H   -0.000000   0.000000  -0.000000  -0.000019  -0.000318  -0.009980
    29  H    0.000000   0.000004  -0.002178   0.018183  -0.067907  -0.015537
    30  H    0.000008  -0.000061   0.015474  -0.002594   0.015804  -0.000125
    31  H   -0.000239   0.000969  -0.068912   0.021269  -0.002544   0.000010
               7          8          9         10         11         12
     1  C   -0.000043   0.000000  -0.000000   0.000000  -0.000000   0.000000
     2  O   -0.000006   0.000000   0.000000  -0.000000   0.000000   0.000000
     3  C    0.000270   0.000032  -0.000009   0.000002  -0.000000  -0.000000
     4  C    0.001908   0.007395   0.000487  -0.000045   0.000001   0.000001
     5  C   -0.050850  -0.045814  -0.005184   0.000087   0.000030  -0.000188
     6  N    0.339726   0.305181  -0.077200   0.009268  -0.000414   0.008306
     7  C    4.430338  -0.049723   0.003975  -0.000103  -0.000000   0.000478
     8  C   -0.049723   5.122023   0.274235   0.120219  -0.165684   0.112937
     9  C    0.003975   0.274235   5.160562   0.264902   0.088875  -0.148065
    10  C   -0.000103   0.120219   0.264902   5.071899   0.272705   0.098972
    11  C   -0.000000  -0.165684   0.088875   0.272705   5.104838   0.283440
    12  C    0.000478   0.112937  -0.148065   0.098972   0.283440   5.044294
    13  C   -0.008435   0.279415   0.058544  -0.149167   0.085833   0.281051
    14  C    0.006777  -0.007645  -0.005159  -0.001698   0.000039   0.000052
    15  C   -0.000287  -0.000387  -0.000557   0.000034  -0.000003   0.000005
    16  C    0.000123   0.000063  -0.000023  -0.000003   0.000000  -0.000000
    17  H   -0.000034   0.000001   0.000000  -0.000000   0.000000   0.000000
    18  H    0.000001  -0.000000   0.000000  -0.000000   0.000000   0.000000
    19  H   -0.000035  -0.000001  -0.000000   0.000000  -0.000000  -0.000000
    20  H    0.014108  -0.000109  -0.000035  -0.000000   0.000000   0.000000
    21  H    0.399321  -0.008156  -0.000015   0.000012  -0.000067   0.000431
    22  H    0.399217   0.004318   0.001053  -0.000075  -0.000004   0.000033
    23  H    0.401245   0.002766  -0.000570   0.000028   0.000000  -0.000058
    24  H   -0.000139  -0.068563   0.460992  -0.070615   0.014833  -0.002521
    25  H    0.000005   0.015296  -0.067030   0.453309  -0.072456   0.014367
    26  H    0.000000  -0.001691   0.014771  -0.069574   0.453060  -0.069801
    27  H   -0.000012   0.015256  -0.002029   0.014093  -0.070667   0.450081
    28  H    0.000801  -0.071540   0.016375  -0.002587   0.014955  -0.065995
    29  H   -0.000120   0.006272   0.002766  -0.000660   0.000068   0.000032
    30  H    0.000006  -0.000012   0.000034   0.000001  -0.000000  -0.000000
    31  H    0.000000   0.000000   0.000000   0.000000  -0.000000   0.000000
              13         14         15         16         17         18
     1  C   -0.000000   0.000118  -0.000333   0.006356   0.402687   0.396364
     2  O   -0.000000  -0.000285   0.004118  -0.067544  -0.030601  -0.020659
     3  C   -0.000001  -0.182142   0.146055   0.272053  -0.009556   0.004897
     4  C   -0.000506   0.082021  -0.167474   0.059099   0.005424   0.000561
     5  C    0.004147   0.241307   0.147200  -0.162753   0.001037  -0.000050
     6  N   -0.075310  -0.086821   0.009511  -0.000965   0.000013  -0.000001
     7  C   -0.008435   0.006777  -0.000287   0.000123  -0.000034   0.000001
     8  C    0.279415  -0.007645  -0.000387   0.000063   0.000001  -0.000000
     9  C    0.058544  -0.005159  -0.000557  -0.000023   0.000000   0.000000
    10  C   -0.149167  -0.001698   0.000034  -0.000003  -0.000000  -0.000000
    11  C    0.085833   0.000039  -0.000003   0.000000   0.000000   0.000000
    12  C    0.281051   0.000052   0.000005  -0.000000   0.000000   0.000000
    13  C    5.157885   0.001024  -0.000054   0.000001  -0.000000  -0.000000
    14  C    0.001024   5.277207   0.222540   0.112404  -0.000100   0.000005
    15  C   -0.000054   0.222540   5.091537   0.236888   0.000035   0.000006
    16  C    0.000001   0.112404   0.236888   5.201425  -0.000271  -0.000093
    17  H   -0.000000  -0.000100   0.000035  -0.000271   0.663252  -0.023532
    18  H   -0.000000   0.000005   0.000006  -0.000093  -0.023532   0.614433
    19  H    0.000000  -0.000095   0.000032  -0.000187  -0.044079  -0.023599
    20  H    0.000023   0.019183  -0.002758   0.015288   0.001066  -0.000580
    21  H    0.003555  -0.000121   0.000003   0.000003  -0.000001   0.000000
    22  H    0.000046  -0.000822   0.000072  -0.000060   0.000090   0.000001
    23  H    0.001096   0.000288  -0.000068  -0.000066  -0.000039  -0.000001
    24  H    0.016238   0.002735  -0.000146  -0.000045  -0.000000  -0.000000
    25  H   -0.002179   0.000040   0.000002  -0.000000   0.000000  -0.000000
    26  H    0.014657  -0.000001  -0.000000   0.000000  -0.000000   0.000000
    27  H   -0.065397  -0.000002  -0.000000   0.000000  -0.000000  -0.000000
    28  H    0.451869  -0.000029   0.000002   0.000000   0.000000  -0.000000
    29  H   -0.001196   0.459954  -0.073540   0.014924   0.000000  -0.000000
    30  H    0.000001  -0.071447   0.460586  -0.075312  -0.000000  -0.000000
    31  H    0.000000   0.015795  -0.076884   0.446852   0.000083  -0.000093
              19         20         21         22         23         24
     1  C    0.402222   0.011795   0.000000  -0.000070  -0.000029  -0.000000
     2  O   -0.030719  -0.009412  -0.000000   0.000010   0.000001  -0.000000
     3  C   -0.009127  -0.093610  -0.000057   0.001194   0.000976   0.000028
     4  C    0.005346   0.457742   0.000746   0.002978   0.004553  -0.000902
     5  C    0.000911  -0.067060   0.005911  -0.011797  -0.006082   0.004312
     6  N    0.000024  -0.017717  -0.017949  -0.032632  -0.028151  -0.012140
     7  C   -0.000035   0.014108   0.399321   0.399217   0.401245  -0.000139
     8  C   -0.000001  -0.000109  -0.008156   0.004318   0.002766  -0.068563
     9  C   -0.000000  -0.000035  -0.000015   0.001053  -0.000570   0.460992
    10  C    0.000000  -0.000000   0.000012  -0.000075   0.000028  -0.070615
    11  C   -0.000000   0.000000  -0.000067  -0.000004   0.000000   0.014833
    12  C   -0.000000   0.000000   0.000431   0.000033  -0.000058  -0.002521
    13  C    0.000000   0.000023   0.003555   0.000046   0.001096   0.016238
    14  C   -0.000095   0.019183  -0.000121  -0.000822   0.000288   0.002735
    15  C    0.000032  -0.002758   0.000003   0.000072  -0.000068  -0.000146
    16  C   -0.000187   0.015288   0.000003  -0.000060  -0.000066  -0.000045
    17  H   -0.044079   0.001066  -0.000001   0.000090  -0.000039  -0.000000
    18  H   -0.023599  -0.000580   0.000000   0.000001  -0.000001  -0.000000
    19  H    0.664553   0.001188  -0.000000  -0.000145   0.000145   0.000000
    20  H    0.001188   0.713757  -0.000202  -0.001129  -0.000872  -0.000011
    21  H   -0.000000  -0.000202   0.605074  -0.021671  -0.018411  -0.000036
    22  H   -0.000145  -0.001129  -0.021671   0.659850  -0.039908   0.000026
    23  H    0.000145  -0.000872  -0.018411  -0.039908   0.643146  -0.000001
    24  H    0.000000  -0.000011  -0.000036   0.000026  -0.000001   0.655651
    25  H   -0.000000  -0.000000   0.000000   0.000001  -0.000000  -0.012519
    26  H    0.000000   0.000000  -0.000001  -0.000000   0.000000  -0.000223
    27  H    0.000000  -0.000000   0.000052  -0.000002   0.000002   0.000021
    28  H   -0.000000  -0.000003   0.000863   0.000321  -0.000678  -0.000194
    29  H   -0.000001  -0.000203  -0.000007  -0.000025   0.000033  -0.002473
    30  H   -0.000000   0.000009  -0.000000  -0.000000   0.000001   0.000016
    31  H    0.000081  -0.000216  -0.000000  -0.000000  -0.000000  -0.000000
              25         26         27         28         29         30
     1  C    0.000000   0.000000  -0.000000  -0.000000   0.000000   0.000008
     2  O    0.000000   0.000000  -0.000000   0.000000   0.000004  -0.000061
     3  C    0.000000   0.000000   0.000000  -0.000000  -0.002178   0.015474
     4  C   -0.000000   0.000000  -0.000000  -0.000019   0.018183  -0.002594
     5  C   -0.000023   0.000001   0.000007  -0.000318  -0.067907   0.015804
     6  N   -0.000134   0.000008  -0.000143  -0.009980  -0.015537  -0.000125
     7  C    0.000005   0.000000  -0.000012   0.000801  -0.000120   0.000006
     8  C    0.015296  -0.001691   0.015256  -0.071540   0.006272  -0.000012
     9  C   -0.067030   0.014771  -0.002029   0.016375   0.002766   0.000034
    10  C    0.453309  -0.069574   0.014093  -0.002587  -0.000660   0.000001
    11  C   -0.072456   0.453060  -0.070667   0.014955   0.000068  -0.000000
    12  C    0.014367  -0.069801   0.450081  -0.065995   0.000032  -0.000000
    13  C   -0.002179   0.014657  -0.065397   0.451869  -0.001196   0.000001
    14  C    0.000040  -0.000001  -0.000002  -0.000029   0.459954  -0.071447
    15  C    0.000002  -0.000000  -0.000000   0.000002  -0.073540   0.460586
    16  C   -0.000000   0.000000   0.000000   0.000000   0.014924  -0.075312
    17  H    0.000000  -0.000000  -0.000000   0.000000   0.000000  -0.000000
    18  H   -0.000000   0.000000  -0.000000  -0.000000  -0.000000  -0.000000
    19  H   -0.000000   0.000000   0.000000  -0.000000  -0.000001  -0.000000
    20  H   -0.000000   0.000000  -0.000000  -0.000003  -0.000203   0.000009
    21  H    0.000000  -0.000001   0.000052   0.000863  -0.000007  -0.000000
    22  H    0.000001  -0.000000  -0.000002   0.000321  -0.000025  -0.000000
    23  H   -0.000000   0.000000   0.000002  -0.000678   0.000033   0.000001
    24  H   -0.012519  -0.000223   0.000021  -0.000194  -0.002473   0.000016
    25  H    0.670919  -0.012314  -0.000266   0.000026   0.000019  -0.000000
    26  H   -0.012314   0.673945  -0.012330  -0.000230   0.000000   0.000000
    27  H   -0.000266  -0.012330   0.673111  -0.013164  -0.000004   0.000000
    28  H    0.000026  -0.000230  -0.013164   0.679575  -0.000037  -0.000000
    29  H    0.000019   0.000000  -0.000004  -0.000037   0.662953  -0.012720
    30  H   -0.000000   0.000000   0.000000  -0.000000  -0.012720   0.671581
    31  H    0.000000  -0.000000   0.000000   0.000000  -0.000211  -0.013223
              31
     1  C   -0.000239
     2  O    0.000969
     3  C   -0.068912
     4  C    0.021269
     5  C   -0.002544
     6  N    0.000010
     7  C    0.000000
     8  C    0.000000
     9  C    0.000000
    10  C    0.000000
    11  C   -0.000000
    12  C    0.000000
    13  C    0.000000
    14  C    0.015795
    15  C   -0.076884
    16  C    0.446852
    17  H    0.000083
    18  H   -0.000093
    19  H    0.000081
    20  H   -0.000216
    21  H   -0.000000
    22  H   -0.000000
    23  H   -0.000000
    24  H   -0.000000
    25  H    0.000000
    26  H   -0.000000
    27  H    0.000000
    28  H    0.000000
    29  H   -0.000211
    30  H   -0.013223
    31  H    0.675084
 Mulliken charges:
               1
     1  C    0.146937
     2  O   -0.368976
     3  C    0.262751
     4  C   -0.201021
     5  C    0.241425
     6  N   -0.370147
     7  C    0.111487
     8  C    0.153918
     9  C   -0.041699
    10  C   -0.011001
    11  C   -0.009382
    12  C   -0.007851
    13  C   -0.053138
    14  C   -0.085122
    15  C    0.003868
    16  C   -0.058155
    17  H    0.034526
    18  H    0.052338
    19  H    0.033488
    20  H   -0.040242
    21  H    0.050722
    22  H    0.039132
    23  H    0.040657
    24  H    0.015678
    25  H    0.012937
    26  H    0.009722
    27  H    0.011394
    28  H   -0.000011
    29  H    0.011610
    30  H    0.011976
    31  H    0.002178
 Sum of Mulliken charges =  -0.00000
 Mulliken charges with hydrogens summed into heavy atoms:
               1
     1  C    0.267289
     2  O   -0.368976
     3  C    0.262751
     4  C   -0.241263
     5  C    0.241425
     6  N   -0.370147
     7  C    0.241998
     8  C    0.153918
     9  C   -0.026021
    10  C    0.001935
    11  C    0.000340
    12  C    0.003543
    13  C   -0.053148
    14  C   -0.073512
    15  C    0.015844
    16  C   -0.055977
 Electronic spatial extent (au):  <R**2>=           4465.5005
 Charge=             -0.0000 electrons
 Dipole moment (field-independent basis, Debye):
    X=              0.7662    Y=              2.1291    Z=              0.2910  Tot=              2.2814
 Quadrupole moment (field-independent basis, Debye-Ang):
   XX=            -90.9132   YY=            -85.4766   ZZ=            -95.8484
   XY=             -6.5658   XZ=             -2.9152   YZ=             -1.3510
 Traceless Quadrupole moment (field-independent basis, Debye-Ang):
   XX=             -0.1671   YY=              5.2695   ZZ=             -5.1023
   XY=             -6.5658   XZ=             -2.9152   YZ=             -1.3510
 Octapole moment (field-independent basis, Debye-Ang**2):
  XXX=              9.0410  YYY=              6.5619  ZZZ=              5.4114  XYY=            -17.0945
  XXY=             25.6658  XXZ=              3.9590  XZZ=             -3.9170  YZZ=              3.2424
  YYZ=             -3.2751  XYZ=            -17.7577
 Hexadecapole moment (field-independent basis, Debye-Ang**3):
 XXXX=          -4497.4465 YYYY=           -942.1849 ZZZZ=           -317.3290 XXXY=           -168.5683
 XXXZ=            -79.1678 YYYX=              6.1915 YYYZ=              6.1076 ZZZX=            -17.4582
 ZZZY=            -13.0796 XXYY=           -893.5403 XXZZ=           -844.3234 YYZZ=           -209.6313
 XXYZ=            -20.4486 YYXZ=              1.5480 ZZXY=            -15.1531
 N-N= 1.028066050371D+03 E-N=-3.613945155170D+03  KE= 6.648106044049D+02
   1 Symmetry operations used in ECPInt.
 ECPInt:  NShTT=   10011 NPrTT=   36031 LenC2=    9309 LenP2D=   24307.
 LDataN:  DoStor=T MaxTD1= 5 Len=  102
 Calling FoFJK, ICntrl=      2127 FMM=F ISym2X=0 I1Cent= 0 IOpClX= 0 NMat=1 NMatS=1 NMatT=0.
 ***** Axes restored to original set *****
 -------------------------------------------------------------------
 Center     Atomic                   Forces (Hartrees/Bohr)
 Number     Number              X              Y              Z
 -------------------------------------------------------------------
      1        6          -0.004613441   -0.004765033    0.011026842
      2        8           0.031657434   -0.012529589    0.010138239
      3        6          -0.020470212    0.004157015   -0.000906887
      4        6          -0.007305400    0.006155832   -0.009678831
      5        6           0.027468632   -0.002241053   -0.002982163
      6        7          -0.000192871   -0.002972115    0.003500017
      7        6          -0.003189621   -0.002703371    0.019931548
      8        6          -0.019498520    0.001683537   -0.007392063
      9        6          -0.004983015    0.002390880   -0.005547205
     10        6           0.001206323   -0.001091710    0.001733485
     11        6           0.006192329   -0.001400050    0.002807078
     12        6           0.003946272    0.001306394    0.001280553
     13        6          -0.010137017    0.001248689   -0.002736304
     14        6           0.008730687   -0.003033849   -0.001059419
     15        6           0.000777829    0.003427241   -0.004601175
     16        6          -0.016021460    0.007158922   -0.005932735
     17        1           0.005452657    0.007033304   -0.003812921
     18        1          -0.005256731    0.000469319    0.001344449
     19        1           0.003312893   -0.002363700   -0.008753826
     20        1           0.001704936    0.005452378   -0.010398840
     21        1           0.005306183   -0.000693247    0.000281289
     22        1          -0.002506428    0.009607323   -0.005597027
     23        1          -0.005434148   -0.004567639   -0.005929586
     24        1          -0.007986216    0.006569178    0.004496310
     25        1           0.000801618    0.005574124    0.008776606
     26        1           0.008937060   -0.001056416    0.005232040
     27        1           0.007166287   -0.006297339   -0.004126951
     28        1          -0.000808727   -0.006355693   -0.009963320
     29        1           0.007582526   -0.005063062    0.005335586
     30        1          -0.000986196   -0.004843865    0.008671600
     31        1          -0.010853664   -0.000256406    0.004863615
 -------------------------------------------------------------------
 Cartesian Forces:  Max     0.031657434 RMS     0.007997041

 GradGradGradGradGradGradGradGradGradGradGradGradGradGradGradGradGradGrad
 Berny optimization.
 FormGI is forming the generalized inverse of G from B-inverse, IUseBI=4.
 Internal  Forces:  Max     0.034142682 RMS     0.006483935
 Search for a local minimum.
 Step number   1 out of a maximum of  161
 All quantities printed in internal units (Hartrees-Bohrs-Radians)
 Mixed Optimization -- RFO/linear search
 Second derivative matrix not updated -- first step.
 ITU=  0
     Eigenvalues ---    0.00863   0.01122   0.01254   0.01344   0.01599
     Eigenvalues ---    0.01673   0.01884   0.01924   0.02073   0.02171
     Eigenvalues ---    0.02185   0.02192   0.02201   0.02263   0.02267
     Eigenvalues ---    0.02288   0.02289   0.02335   0.02336   0.02350
     Eigenvalues ---    0.02354   0.02368   0.02374   0.02401   0.07384
     Eigenvalues ---    0.07444   0.10341   0.10571   0.15993   0.15997
     Eigenvalues ---    0.15998   0.15999   0.16000   0.16000   0.16000
     Eigenvalues ---    0.16000   0.16000   0.16000   0.16000   0.16000
     Eigenvalues ---    0.16000   0.16000   0.16000   0.22000   0.22000
     Eigenvalues ---    0.22000   0.23451   0.23468   0.23483   0.24985
     Eigenvalues ---    0.24990   0.24995   0.25000   0.25000   0.25000
     Eigenvalues ---    0.34741   0.34741   0.34759   0.34994   0.35017
     Eigenvalues ---    0.35081   0.36259   0.36263   0.36266   0.36269
     Eigenvalues ---    0.36474   0.36504   0.36531   0.36541   0.36636
     Eigenvalues ---    0.37002   0.40546   0.41526   0.42632   0.43059
     Eigenvalues ---    0.43377   0.43769   0.44480   0.45383   0.46290
     Eigenvalues ---    0.46884   0.47334   0.47919   0.48706   0.49077
     Eigenvalues ---    0.49408   0.49736
 RFO step:  Lambda=-1.70685018D-02 EMin= 8.63244749D-03
 Linear search not attempted -- first point.
 Iteration  1 RMS(Cart)=  0.05730578 RMS(Int)=  0.00135433
 Iteration  2 RMS(Cart)=  0.00210828 RMS(Int)=  0.00015923
 Iteration  3 RMS(Cart)=  0.00000408 RMS(Int)=  0.00015921
 Iteration  4 RMS(Cart)=  0.00000000 RMS(Int)=  0.00015921
 Variable       Old X    -DE/DX   Delta X   Delta X   Delta X     New X
                                 (Linear)    (Quad)   (Total)
    R1        2.65884   0.00021   0.00000   0.00046   0.00046   2.65930
    R2        2.06097   0.00857   0.00000   0.02350   0.02350   2.08447
    R3        2.06068   0.00445   0.00000   0.01220   0.01220   2.07288
    R4        2.06097   0.00855   0.00000   0.02347   0.02347   2.08444
    R5        2.64834  -0.03414   0.00000  -0.07251  -0.07251   2.57583
    R6        2.63278   0.00529   0.00000   0.01013   0.01018   2.64296
    R7        2.64036  -0.00117   0.00000  -0.00324  -0.00320   2.63715
    R8        2.62778   0.01335   0.00000   0.02726   0.02728   2.65505
    R9        2.02544   0.01185   0.00000   0.03060   0.03060   2.05604
   R10        2.69531  -0.02188   0.00000  -0.05060  -0.05060   2.64471
   R11        2.63570   0.00947   0.00000   0.02045   0.02041   2.65611
   R12        2.76398  -0.00851   0.00000  -0.02218  -0.02218   2.74180
   R13        2.70818  -0.01601   0.00000  -0.03789  -0.03789   2.67029
   R14        2.05544   0.00491   0.00000   0.01336   0.01336   2.06880
   R15        2.05647   0.01085   0.00000   0.02954   0.02954   2.08601
   R16        2.05684   0.00904   0.00000   0.02463   0.02463   2.08147
   R17        2.63570   0.00847   0.00000   0.01702   0.01702   2.65272
   R18        2.63592   0.00712   0.00000   0.01419   0.01418   2.65010
   R19        2.60092   0.01577   0.00000   0.03066   0.03066   2.63159
   R20        2.03347   0.01126   0.00000   0.02949   0.02949   2.06296
   R21        2.61015   0.01400   0.00000   0.02825   0.02825   2.63840
   R22        2.03672   0.01040   0.00000   0.02739   0.02739   2.06411
   R23        2.61045   0.01250   0.00000   0.02527   0.02528   2.63572
   R24        2.03667   0.01041   0.00000   0.02741   0.02741   2.06409
   R25        2.60175   0.01668   0.00000   0.03241   0.03241   2.63416
   R26        2.03679   0.01037   0.00000   0.02732   0.02732   2.06411
   R27        2.03301   0.01181   0.00000   0.03091   0.03091   2.06392
   R28        2.60152   0.01531   0.00000   0.03051   0.03046   2.63198
   R29        2.03259   0.01047   0.00000   0.02739   0.02739   2.05997
   R30        2.60055   0.01410   0.00000   0.02736   0.02735   2.62790
   R31        2.03663   0.00998   0.00000   0.02627   0.02627   2.06290
   R32        2.03243   0.01188   0.00000   0.03107   0.03107   2.06350
    A1        1.91884   0.00655   0.00000   0.03841   0.03805   1.95689
    A2        1.89427  -0.00730   0.00000  -0.04398  -0.04373   1.85054
    A3        1.91913   0.00649   0.00000   0.03806   0.03769   1.95683
    A4        1.90048  -0.00083   0.00000  -0.00740  -0.00716   1.89332
    A5        1.93021  -0.00430   0.00000  -0.01903  -0.01985   1.91035
    A6        1.90034  -0.00084   0.00000  -0.00754  -0.00730   1.89303
    A7        2.00399   0.01772   0.00000   0.06636   0.06636   2.07035
    A8        2.17238  -0.00182   0.00000  -0.00586  -0.00591   2.16648
    A9        2.05031  -0.00951   0.00000  -0.03462  -0.03467   2.01564
   A10        2.06049   0.01133   0.00000   0.04048   0.04057   2.10106
   A11        2.12402  -0.00546   0.00000  -0.02354  -0.02347   2.10054
   A12        2.08467   0.00335   0.00000   0.01528   0.01525   2.09992
   A13        2.07444   0.00211   0.00000   0.00826   0.00823   2.08266
   A14        2.11769  -0.00877   0.00000  -0.03414  -0.03418   2.08351
   A15        2.06627   0.00245   0.00000   0.01151   0.01143   2.07770
   A16        2.09906   0.00630   0.00000   0.02229   0.02223   2.12129
   A17        2.07880  -0.00373   0.00000  -0.01413  -0.01418   2.06462
   A18        2.13186   0.00087   0.00000   0.00306   0.00301   2.13487
   A19        2.07194   0.00284   0.00000   0.01047   0.01042   2.08236
   A20        1.93588  -0.00458   0.00000  -0.02849  -0.02834   1.90754
   A21        1.92121   0.00525   0.00000   0.03110   0.03099   1.95219
   A22        1.92236   0.00261   0.00000   0.01587   0.01568   1.93804
   A23        1.88252  -0.00091   0.00000  -0.00738  -0.00717   1.87535
   A24        1.89490   0.00033   0.00000  -0.00095  -0.00088   1.89402
   A25        1.90618  -0.00284   0.00000  -0.01098  -0.01139   1.89479
   A26        2.10272   0.00113   0.00000   0.00523   0.00518   2.10790
   A27        2.11487  -0.00339   0.00000  -0.01170  -0.01175   2.10312
   A28        2.06560   0.00226   0.00000   0.00641   0.00634   2.07194
   A29        2.10831  -0.00100   0.00000  -0.00513  -0.00514   2.10316
   A30        2.07307   0.00112   0.00000   0.00610   0.00610   2.07916
   A31        2.10172  -0.00012   0.00000  -0.00088  -0.00089   2.10083
   A32        2.09596   0.00139   0.00000   0.00730   0.00728   2.10324
   A33        2.09357  -0.00138   0.00000  -0.00750  -0.00752   2.08605
   A34        2.09365  -0.00001   0.00000   0.00018   0.00016   2.09381
   A35        2.09272  -0.00327   0.00000  -0.01127  -0.01127   2.08145
   A36        2.09520   0.00173   0.00000   0.00618   0.00618   2.10138
   A37        2.09526   0.00154   0.00000   0.00509   0.00509   2.10035
   A38        2.09756   0.00100   0.00000   0.00543   0.00542   2.10299
   A39        2.09261   0.00016   0.00000   0.00101   0.00099   2.09359
   A40        2.09301  -0.00116   0.00000  -0.00647  -0.00649   2.08652
   A41        2.10622  -0.00038   0.00000  -0.00273  -0.00275   2.10348
   A42        2.07935   0.00108   0.00000   0.00647   0.00646   2.08581
   A43        2.09722  -0.00069   0.00000  -0.00349  -0.00351   2.09371
   A44        2.10767  -0.00517   0.00000  -0.01746  -0.01755   2.09012
   A45        2.07751   0.00398   0.00000   0.01663   0.01668   2.09419
   A46        2.09786   0.00119   0.00000   0.00084   0.00088   2.09874
   A47        2.09724   0.00434   0.00000   0.02105   0.02097   2.11821
   A48        2.09324  -0.00209   0.00000  -0.01005  -0.01004   2.08321
   A49        2.09270  -0.00226   0.00000  -0.01102  -0.01100   2.08170
   A50        2.11064  -0.00750   0.00000  -0.03212  -0.03210   2.07855
   A51        2.06406   0.00319   0.00000   0.01289   0.01287   2.07693
   A52        2.10848   0.00431   0.00000   0.01921   0.01919   2.12767
    D1       -1.06886  -0.00153   0.00000  -0.01175  -0.01257  -1.08143
    D2        3.13732   0.00003   0.00000   0.00121   0.00121   3.13853
    D3        1.06032   0.00164   0.00000   0.01455   0.01537   1.07569
    D4        0.00219   0.00015   0.00000   0.00386   0.00386   0.00605
    D5       -3.13942  -0.00001   0.00000   0.00024   0.00023  -3.13919
    D6        3.13799  -0.00000   0.00000  -0.00051  -0.00054   3.13745
    D7        0.00804  -0.00000   0.00000  -0.00079  -0.00073   0.00731
    D8       -0.00358   0.00015   0.00000   0.00313   0.00326  -0.00032
    D9       -3.13353   0.00015   0.00000   0.00285   0.00307  -3.13046
   D10        3.13905  -0.00009   0.00000  -0.00296  -0.00292   3.13613
   D11        0.00055   0.00012   0.00000   0.00295   0.00294   0.00349
   D12       -0.00256  -0.00024   0.00000  -0.00635  -0.00641  -0.00896
   D13       -3.14106  -0.00002   0.00000  -0.00043  -0.00054   3.14158
   D14        3.13118  -0.00046   0.00000  -0.01386  -0.01350   3.11768
   D15        0.00899   0.00022   0.00000   0.00627   0.00638   0.01536
   D16       -0.02199  -0.00044   0.00000  -0.01353  -0.01326  -0.03525
   D17        3.13900   0.00023   0.00000   0.00659   0.00661  -3.13757
   D18       -0.34070   0.00015   0.00000   0.00465   0.00454  -0.33616
   D19        2.76343  -0.00033   0.00000  -0.01411  -0.01411   2.74932
   D20        2.78113  -0.00059   0.00000  -0.01599  -0.01599   2.76514
   D21       -0.39793  -0.00107   0.00000  -0.03474  -0.03463  -0.43256
   D22       -0.00844  -0.00048   0.00000  -0.01266  -0.01266  -0.02110
   D23        3.11475  -0.00049   0.00000  -0.01187  -0.01199   3.10276
   D24       -3.13085   0.00036   0.00000   0.00789   0.00832  -3.12253
   D25       -0.00766   0.00035   0.00000   0.00868   0.00898   0.00132
   D26       -2.98893  -0.00019   0.00000  -0.00820  -0.00824  -2.99717
   D27        1.21219   0.00048   0.00000  -0.00097  -0.00071   1.21148
   D28       -0.89068  -0.00102   0.00000  -0.01741  -0.01758  -0.90826
   D29        0.18883   0.00032   0.00000   0.01004   0.00997   0.19880
   D30       -1.89324   0.00098   0.00000   0.01727   0.01750  -1.87574
   D31        2.28709  -0.00052   0.00000   0.00083   0.00063   2.28771
   D32       -0.76229  -0.00132   0.00000  -0.04351  -0.04340  -0.80569
   D33        2.38283  -0.00062   0.00000  -0.02366  -0.02362   2.35921
   D34        2.34198  -0.00194   0.00000  -0.06270  -0.06274   2.27924
   D35       -0.79608  -0.00123   0.00000  -0.04285  -0.04296  -0.83904
   D36       -3.13933   0.00033   0.00000   0.00945   0.00961  -3.12972
   D37       -0.01273   0.00058   0.00000   0.01591   0.01604   0.00330
   D38       -0.00116  -0.00037   0.00000  -0.00988  -0.00986  -0.01103
   D39        3.12543  -0.00012   0.00000  -0.00342  -0.00343   3.12200
   D40        3.13999  -0.00086   0.00000  -0.02284  -0.02273   3.11726
   D41       -0.03179  -0.00049   0.00000  -0.01346  -0.01335  -0.04514
   D42        0.00185  -0.00017   0.00000  -0.00341  -0.00335  -0.00150
   D43        3.11325   0.00020   0.00000   0.00598   0.00603   3.11928
   D44        0.00027   0.00054   0.00000   0.01361   0.01362   0.01389
   D45        3.13975   0.00008   0.00000   0.00225   0.00226  -3.14118
   D46       -3.12608   0.00027   0.00000   0.00699   0.00705  -3.11903
   D47        0.01340  -0.00018   0.00000  -0.00437  -0.00431   0.00909
   D48       -0.00002  -0.00017   0.00000  -0.00396  -0.00398  -0.00401
   D49       -3.14063  -0.00026   0.00000  -0.00654  -0.00655   3.13600
   D50       -3.13951   0.00029   0.00000   0.00741   0.00744  -3.13207
   D51        0.00307   0.00019   0.00000   0.00483   0.00487   0.00794
   D52        0.00071  -0.00037   0.00000  -0.00926  -0.00927  -0.00855
   D53       -3.13685   0.00003   0.00000   0.00063   0.00068  -3.13617
   D54        3.14132  -0.00027   0.00000  -0.00668  -0.00670   3.13463
   D55        0.00376   0.00013   0.00000   0.00321   0.00325   0.00701
   D56       -0.00165   0.00054   0.00000   0.01295   0.01298   0.01134
   D57       -3.11274   0.00013   0.00000   0.00330   0.00339  -3.10935
   D58        3.13591   0.00014   0.00000   0.00308   0.00310   3.13901
   D59        0.02482  -0.00027   0.00000  -0.00657  -0.00650   0.01832
   D60        0.00257   0.00037   0.00000   0.00951   0.00951   0.01209
   D61        3.14109  -0.00003   0.00000  -0.00014  -0.00023   3.14085
   D62       -3.12041   0.00035   0.00000   0.00855   0.00868  -3.11172
   D63        0.01811  -0.00005   0.00000  -0.00111  -0.00107   0.01704
   D64        0.00306  -0.00002   0.00000   0.00014   0.00002   0.00308
   D65        3.14148  -0.00024   0.00000  -0.00594  -0.00604   3.13545
   D66       -3.13546   0.00038   0.00000   0.00980   0.00976  -3.12570
   D67        0.00297   0.00015   0.00000   0.00371   0.00370   0.00667
         Item               Value     Threshold  Converged?
 Maximum Force            0.034143     0.000450     NO 
 RMS     Force            0.006484     0.000300     NO 
 Maximum Displacement     0.168092     0.001800     NO 
 RMS     Displacement     0.058075     0.001200     NO 
 Predicted change in Energy=-9.072414D-03
 GradGradGradGradGradGradGradGradGradGradGradGradGradGradGradGradGradGrad

                          Input orientation:                          
 ---------------------------------------------------------------------
 Center     Atomic      Atomic             Coordinates (Angstroms)
 Number     Number       Type             X           Y           Z
 ---------------------------------------------------------------------
      1          6           0       -3.969427    1.593634   -1.916976
      2          8           0       -4.054368    0.931640   -0.678075
      3          6           0       -2.921957    0.387234   -0.149651
      4          6           0       -1.664207    0.447938   -0.758294
      5          6           0       -0.546997   -0.137591   -0.139421
      6          7           0        0.696306   -0.089919   -0.780185
      7          6           0        0.724850    0.168106   -2.207669
      8          6           0        1.914617   -0.217337   -0.075763
      9          6           0        2.136367    0.498854    1.111014
     10          6           0        3.344581    0.379827    1.793157
     11          6           0        4.359990   -0.440813    1.298373
     12          6           0        4.150040   -1.145941    0.113432
     13          6           0        2.937233   -1.042390   -0.565862
     14          6           0       -0.716283   -0.799836    1.088728
     15          6           0       -1.975344   -0.843722    1.682596
     16          6           0       -3.081383   -0.255738    1.078621
     17          1           0       -3.300021    2.469343   -1.874976
     18          1           0       -4.984302    1.942374   -2.144236
     19          1           0       -3.642224    0.919571   -2.726462
     20          1           0       -1.539127    0.958458   -1.710918
     21          1           0        1.744680    0.028008   -2.580259
     22          1           0        0.425455    1.203973   -2.444037
     23          1           0        0.057235   -0.521750   -2.747678
     24          1           0        1.351872    1.157381    1.488715
     25          1           0        3.499875    0.944191    2.715359
     26          1           0        5.308915   -0.528832    1.832080
     27          1           0        4.934784   -1.795169   -0.281228
     28          1           0        2.771045   -1.621669   -1.476727
     29          1           0        0.132735   -1.290798    1.564566
     30          1           0       -2.099619   -1.360410    2.636150
     31          1           0       -4.073492   -0.289706    1.533526
 ---------------------------------------------------------------------
                    Distance matrix (angstroms):
                    1          2          3          4          5
     1  C    0.000000
     2  O    1.407241   0.000000
     3  C    2.382442   1.363071   0.000000
     4  C    2.822978   2.439933   1.398595   0.000000
     5  C    4.227277   3.706084   2.432279   1.404994   0.000000
     6  N    5.088782   4.860340   3.703657   2.421113   1.399519
     7  C    4.914557   5.075782   4.193168   2.808307   2.447181
     8  C    6.425858   6.108331   4.874773   3.703568   2.463728
     9  C    6.902752   6.458586   5.214247   4.235713   3.028050
    10  C    8.290544   7.820225   6.560796   5.621609   4.375723
    11  C    9.157327   8.751651   7.470555   6.427340   5.122276
    12  C    8.806450   8.500302   7.241062   6.091455   4.810702
    13  C    7.515057   7.265801   6.045425   4.840595   3.624965
    14  C    5.034471   4.154806   2.794229   2.422187   1.405551
    15  C    4.782676   3.612065   2.401762   2.779053   2.420442
    16  C    3.630757   2.332926   1.395522   2.424419   2.814374
    17  H    1.103057   2.089531   2.730358   2.830008   4.169820
    18  H    1.096923   2.008977   3.263448   3.895794   5.294830
    19  H    1.103037   2.089473   2.728025   2.829960   4.170229
    20  H    2.520370   2.719176   2.162422   1.088011   2.157604
    21  H    5.961724   6.169588   5.273936   3.887983   3.352148
    22  H    4.443491   4.823028   4.139618   2.789266   2.838435
    23  H    4.623735   4.827098   4.056055   2.803802   2.704752
    24  H    6.332872   5.828667   4.641442   3.827412   2.816643
    25  H    8.813102   8.281433   7.053964   6.243418   5.069240
    26  H   10.229756   9.803311   8.515497   7.502569   6.191250
    27  H    9.666676   9.402012   8.155279   6.986115   5.728664
    28  H    7.481039   7.330994   6.181188   4.946804   3.873018
    29  H    6.104819   5.244092   3.884003   3.412900   2.166908
    30  H    5.740515   4.478686   3.389866   3.870654   3.407303
    31  H    3.932400   2.526506   2.148807   3.406056   3.906157
                    6          7          8          9         10
     6  N    0.000000
     7  C    1.450897   0.000000
     8  C    1.413057   2.471666   0.000000
     9  C    2.448890   3.621523   1.403760   0.000000
    10  C    3.722380   4.786901   2.427810   1.392576   0.000000
    11  C    4.226833   5.086979   2.813901   2.421276   1.396180
    12  C    3.720486   4.341216   2.428006   2.784852   2.407947
    13  C    2.444359   3.009231   1.402374   2.414277   2.784529
    14  C    2.447902   3.725588   2.935469   3.134438   4.287008
    15  C    3.710960   4.842417   4.314624   4.362956   5.459936
    16  C    4.213501   5.046460   5.127777   5.272132   6.496731
    17  H    4.870217   4.648222   6.135786   6.507939   7.872230
    18  H    6.185480   5.978836   7.519177   7.961428   9.344245
    19  H    4.861060   4.461523   6.260771   6.949484   8.338688
    20  H    2.638659   2.448880   3.998072   4.656586   6.038539
    21  H    2.086447   1.094762   2.522216   3.741739   4.670142
    22  H    2.125070   1.103869   3.137905   4.007843   5.210981
    23  H    2.113272   1.101464   3.268282   4.500437   5.677911
    24  H    2.670848   3.877508   2.157341   1.091672   2.160593
    25  H    4.598719   5.704321   3.413583   2.152070   1.092282
    26  H    5.319092   6.149711   3.906168   3.411911   2.164667
    27  H    4.595817   5.028834   3.413675   3.877115   3.400357
    28  H    2.671323   2.815046   2.160629   3.405266   3.876476
    29  H    2.693990   4.087635   2.649170   2.724537   3.627560
    30  H    4.593766   5.811761   4.977467   4.870983   5.777402
    31  H    5.305106   6.101658   6.201008   6.273970   7.452751
                   11         12         13         14         15
    11  C    0.000000
    12  C    1.394765   0.000000
    13  C    2.421054   1.393938   0.000000
    14  C    5.093270   4.975147   4.018044   0.000000
    15  C    6.359751   6.330398   5.406334   1.392782   0.000000
    16  C    7.446918   7.349662   6.288632   2.426901   1.390624
    17  H    8.787202   8.516305   7.276633   5.113391   5.038599
    18  H   10.239480   9.903079   8.611086   6.015626   5.608993
    19  H    9.060098   8.546971   7.197690   5.106189   5.032641
[...]
    16  C    0.000304  -0.000249   0.000028   0.000004   0.000000   0.000001
    17  H    0.000033   0.000018  -0.000005   0.000000  -0.000000   0.000000
    18  H    0.000001   0.000000  -0.000000  -0.000000   0.000000  -0.000000
    19  H   -0.000017  -0.000016   0.000002  -0.000000   0.000000  -0.000000
    20  H    0.004174  -0.000997   0.000191  -0.000006  -0.000001   0.000011
    21  H    0.407954  -0.007110  -0.000088   0.000435  -0.000129  -0.000331
    22  H    0.403696  -0.006362   0.003493  -0.000809   0.000042   0.000267
    23  H    0.416076   0.014231  -0.001227   0.000148  -0.000024  -0.000314
    24  H    0.000122  -0.041390   0.431810  -0.042019   0.008006  -0.002122
    25  H    0.000004   0.012987  -0.054750   0.441690  -0.057212   0.010660
    26  H   -0.000002  -0.003625   0.011625  -0.055895   0.443498  -0.055698
    27  H    0.000029   0.014561  -0.004440   0.011493  -0.057604   0.441779
    28  H   -0.002238  -0.051800   0.008678  -0.002641   0.008090  -0.034505
    29  H   -0.000224   0.002397  -0.003993  -0.000268   0.000082   0.000284
    30  H    0.000014   0.000104  -0.000058   0.000011  -0.000004   0.000003
    31  H   -0.000002  -0.000010   0.000003  -0.000000   0.000000  -0.000000
              13         14         15         16         17         18
     1  C   -0.000001   0.001270  -0.001797   0.003925   0.411520   0.401625
     2  O    0.000000  -0.000617   0.002651  -0.055649  -0.042062  -0.031414
     3  C    0.000073  -0.131627   0.069805   0.378024  -0.019930   0.008142
     4  C    0.001064   0.113325  -0.161408   0.103201   0.014573  -0.003806
     5  C   -0.009940   0.332432   0.050186  -0.120007  -0.001653   0.000473
     6  N   -0.040173  -0.060613   0.002051   0.001622  -0.000026  -0.000000
     7  C   -0.007862   0.012267  -0.000732   0.000304   0.000033   0.000001
     8  C    0.468399  -0.000646  -0.001755  -0.000249   0.000018   0.000000
     9  C    0.021039  -0.001137   0.002394   0.000028  -0.000005  -0.000000
    10  C   -0.056731  -0.002026   0.000060   0.000004   0.000000  -0.000000
    11  C    0.012242   0.000384   0.000016   0.000000  -0.000000   0.000000
    12  C    0.456424  -0.000014  -0.000049   0.000001   0.000000  -0.000000
    13  C    5.041831   0.003694   0.000048   0.000053  -0.000000   0.000000
    14  C    0.003694   5.188599   0.403172   0.044326   0.000282  -0.000062
    15  C    0.000048   0.403172   4.921104   0.418856  -0.000357   0.000143
    16  C    0.000053   0.044326   0.418856   5.114288   0.001246  -0.000340
    17  H   -0.000000   0.000282  -0.000357   0.001246   0.593659  -0.020453
    18  H    0.000000  -0.000062   0.000143  -0.000340  -0.020453   0.525454
    19  H    0.000000   0.000143  -0.000278   0.001065  -0.057666  -0.020017
    20  H   -0.000043   0.001933   0.000603   0.001993   0.002660  -0.000423
    21  H   -0.004222  -0.000229   0.000061  -0.000018  -0.000003  -0.000000
    22  H    0.003151  -0.000403  -0.000155   0.000154   0.000250  -0.000001
    23  H   -0.000603   0.001117  -0.000070  -0.000170  -0.000036  -0.000002
    24  H    0.008561  -0.000380   0.000143  -0.000000   0.000002   0.000000
    25  H   -0.003466  -0.000125  -0.000011  -0.000001   0.000000   0.000000
    26  H    0.011019   0.000001  -0.000000   0.000000  -0.000000   0.000000
    27  H   -0.055516   0.000010   0.000000  -0.000000   0.000000  -0.000000
    28  H    0.426515  -0.000216   0.000013  -0.000001  -0.000000   0.000000
    29  H   -0.000043   0.438254  -0.045055   0.009260   0.000003  -0.000000
    30  H   -0.000012  -0.066563   0.456268  -0.070978  -0.000001   0.000000
    31  H    0.000000   0.017546  -0.068418   0.457519   0.000142  -0.000220
              19         20         21         22         23         24
     1  C    0.413413   0.010757   0.000003  -0.000042  -0.000078  -0.000002
     2  O   -0.042087  -0.007731  -0.000000   0.000009  -0.000032  -0.000001
     3  C   -0.017274  -0.033026   0.000072  -0.000710   0.000830  -0.000047
     4  C    0.013207   0.406541  -0.000760   0.010037  -0.003102   0.000751
     5  C   -0.002533  -0.019201   0.008499  -0.008682  -0.006815   0.001024
     6  N   -0.000011  -0.003598  -0.027742  -0.051512  -0.047083  -0.003189
     7  C   -0.000017   0.004174   0.407954   0.403696   0.416076   0.000122
     8  C   -0.000016  -0.000997  -0.007110  -0.006362   0.014231  -0.041390
     9  C    0.000002   0.000191  -0.000088   0.003493  -0.001227   0.431810
    10  C   -0.000000  -0.000006   0.000435  -0.000809   0.000148  -0.042019
    11  C    0.000000  -0.000001  -0.000129   0.000042  -0.000024   0.008006
    12  C   -0.000000   0.000011  -0.000331   0.000267  -0.000314  -0.002122
    13  C    0.000000  -0.000043  -0.004222   0.003151  -0.000603   0.008561
    14  C    0.000143   0.001933  -0.000229  -0.000403   0.001117  -0.000380
    15  C   -0.000278   0.000603   0.000061  -0.000155  -0.000070   0.000143
    16  C    0.001065   0.001993  -0.000018   0.000154  -0.000170  -0.000000
    17  H   -0.057666   0.002660  -0.000003   0.000250  -0.000036   0.000002
    18  H   -0.020017  -0.000423  -0.000000  -0.000001  -0.000002   0.000000
    19  H    0.592310   0.001533  -0.000003  -0.000109   0.000324  -0.000000
    20  H    0.001533   0.495369   0.000482   0.005095  -0.006926   0.000010
    21  H   -0.000003   0.000482   0.512570  -0.025596  -0.012415  -0.000160
    22  H   -0.000109   0.005095  -0.025596   0.594706  -0.050303   0.000379
    23  H    0.000324  -0.006926  -0.012415  -0.050303   0.559348  -0.000020
    24  H   -0.000000   0.000010  -0.000160   0.000379  -0.000020   0.499765
    25  H   -0.000000   0.000000   0.000002   0.000003  -0.000001  -0.006481
    26  H    0.000000   0.000000  -0.000001  -0.000000   0.000000  -0.000080
    27  H   -0.000000  -0.000000   0.000037  -0.000009   0.000008   0.000017
    28  H   -0.000000   0.000003  -0.002777   0.000569  -0.000681  -0.000151
    29  H    0.000001  -0.000145  -0.000024   0.000026   0.000009  -0.000771
    30  H   -0.000001  -0.000006  -0.000000  -0.000000  -0.000000  -0.000002
    31  H    0.000126   0.000059  -0.000000   0.000001   0.000001   0.000001
              25         26         27         28         29         30
     1  C    0.000000  -0.000000   0.000000  -0.000000   0.000001   0.000029
     2  O   -0.000000   0.000000  -0.000000   0.000000   0.000009  -0.000122
     3  C    0.000001  -0.000000   0.000000   0.000005  -0.004275   0.017278
     4  C    0.000008   0.000000  -0.000003   0.000053   0.014421  -0.006773
     5  C    0.000058   0.000005  -0.000024   0.000736  -0.053702   0.017587
     6  N   -0.000229   0.000013  -0.000249   0.005788  -0.004625  -0.000192
     7  C    0.000004  -0.000002   0.000029  -0.002238  -0.000224   0.000014
     8  C    0.012987  -0.003625   0.014561  -0.051800   0.002397   0.000104
     9  C   -0.054750   0.011625  -0.004440   0.008678  -0.003993  -0.000058
    10  C    0.441690  -0.055895   0.011493  -0.002641  -0.000268   0.000011
    11  C   -0.057212   0.443498  -0.057604   0.008090   0.000082  -0.000004
    12  C    0.010660  -0.055698   0.441779  -0.034505   0.000284   0.000003
    13  C   -0.003466   0.011019  -0.055516   0.426515  -0.000043  -0.000012
    14  C   -0.000125   0.000001   0.000010  -0.000216   0.438254  -0.066563
    15  C   -0.000011  -0.000000   0.000000   0.000013  -0.045055   0.456268
    16  C   -0.000001   0.000000  -0.000000  -0.000001   0.009260  -0.070978
    17  H    0.000000  -0.000000   0.000000  -0.000000   0.000003  -0.000001
    18  H    0.000000   0.000000  -0.000000   0.000000  -0.000000   0.000000
    19  H   -0.000000   0.000000  -0.000000  -0.000000   0.000001  -0.000001
    20  H    0.000000   0.000000  -0.000000   0.000003  -0.000145  -0.000006
    21  H    0.000002  -0.000001   0.000037  -0.002777  -0.000024  -0.000000
    22  H    0.000003  -0.000000  -0.000009   0.000569   0.000026  -0.000000
    23  H   -0.000001   0.000000   0.000008  -0.000681   0.000009  -0.000000
    24  H   -0.006481  -0.000080   0.000017  -0.000151  -0.000771  -0.000002
    25  H    0.541134  -0.006812  -0.000140   0.000032   0.000004   0.000001
    26  H   -0.006812   0.541752  -0.006859  -0.000091   0.000002  -0.000000
    27  H   -0.000140  -0.006859   0.543579  -0.007128  -0.000006   0.000000
    28  H    0.000032  -0.000091  -0.007128   0.512076  -0.000043  -0.000000
    29  H    0.000004   0.000002  -0.000006  -0.000043   0.511265  -0.007279
    30  H    0.000001  -0.000000   0.000000  -0.000000  -0.007279   0.556422
    31  H   -0.000000   0.000000   0.000000   0.000000   0.000014  -0.009246
              31
     1  C   -0.000253
     2  O    0.008465
     3  C   -0.082937
     4  C    0.027173
     5  C   -0.009002
     6  N    0.000026
     7  C   -0.000002
     8  C   -0.000010
     9  C    0.000003
    10  C   -0.000000
    11  C    0.000000
    12  C   -0.000000
    13  C    0.000000
    14  C    0.017546
    15  C   -0.068418
    16  C    0.457519
    17  H    0.000142
    18  H   -0.000220
    19  H    0.000126
    20  H    0.000059
    21  H   -0.000000
    22  H    0.000001
    23  H    0.000001
    24  H    0.000001
    25  H   -0.000000
    26  H    0.000000
    27  H    0.000000
    28  H    0.000000
    29  H    0.000014
    30  H   -0.009246
    31  H    0.544350
 Mulliken charges:
               1
     1  C   -0.205836
     2  O   -0.282326
     3  C    0.379855
     4  C   -0.420290
     5  C    0.205778
     6  N   -0.054699
     7  C   -0.316756
     8  C    0.202506
     9  C   -0.285461
    10  C   -0.061082
    11  C   -0.143060
    12  C   -0.065278
    13  C   -0.275497
    14  C   -0.294099
    15  C   -0.047492
    16  C   -0.288458
    17  H    0.117802
    18  H    0.140900
    19  H    0.117888
    20  H    0.140688
    21  H    0.151491
    22  H    0.122815
    23  H    0.137813
    24  H    0.146224
    25  H    0.122643
    26  H    0.121149
    27  H    0.120463
    28  H    0.139713
    29  H    0.144421
    30  H    0.113520
    31  H    0.114665
 Sum of Mulliken charges =  -0.00000
 Mulliken charges with hydrogens summed into heavy atoms:
               1
     1  C    0.170753
     2  O   -0.282326
     3  C    0.379855
     4  C   -0.279602
     5  C    0.205778
     6  N   -0.054699
     7  C    0.095364
     8  C    0.202506
     9  C   -0.139237
    10  C    0.061561
    11  C   -0.021911
    12  C    0.055185
    13  C   -0.135784
    14  C   -0.149678
    15  C    0.066027
    16  C   -0.173793
 Electronic spatial extent (au):  <R**2>=           4447.9631
 Charge=             -0.0000 electrons
 Dipole moment (field-independent basis, Debye):
    X=              0.9089    Y=              2.1187    Z=              0.4346  Tot=              2.3461
 Quadrupole moment (field-independent basis, Debye-Ang):
   XX=            -88.3302   YY=            -88.1040   ZZ=            -95.4789
   XY=             -6.7871   XZ=             -2.7369   YZ=             -1.6692
 Traceless Quadrupole moment (field-independent basis, Debye-Ang):
   XX=              2.3075   YY=              2.5337   ZZ=             -4.8412
   XY=             -6.7871   XZ=             -2.7369   YZ=             -1.6692
 Octapole moment (field-independent basis, Debye-Ang**2):
  XXX=              3.3246  YYY=              5.2595  ZZZ=              6.3492  XYY=            -20.5948
  XXY=             19.8777  XXZ=              2.8374  XZZ=              2.6522  YZZ=              3.8515
  YYZ=             -3.4740  XYZ=            -16.7583
 Hexadecapole moment (field-independent basis, Debye-Ang**3):
 XXXX=          -4402.8972 YYYY=           -930.8284 ZZZZ=           -355.8890 XXXY=           -171.2936
 XXXZ=            -74.9091 YYYX=              9.5713 YYYZ=              8.7692 ZZZX=            -15.3420
 ZZZY=            -20.5646 XXYY=           -912.9909 XXZZ=           -840.9812 YYZZ=           -218.3883
 XXYZ=            -27.8766 YYXZ=              2.1933 ZZXY=            -16.9985
 N-N= 1.027837058545D+03 E-N=-3.619009483321D+03  KE= 6.688024457848D+02
 Breneman (CHELPG) radii used.
 Read replacement radii for each type of atom:
 Atom Element Radius
    1     6    1.50
    2     8    1.70
    3     6    1.50
    4     6    1.50
    5     6    1.50
    6     7    1.70
    7     6    1.50
    8     6    1.50
    9     6    1.50
   10     6    1.50
   11     6    1.50
   12     6    1.50
   13     6    1.50
   14     6    1.50
   15     6    1.50
   16     6    1.50
   17     1    1.45
   18     1    1.45
   19     1    1.45
   20     1    1.45
   21     1    1.45
   22     1    1.45
   23     1    1.45
   24     1    1.45
   25     1    1.45
   26     1    1.45
   27     1    1.45
   28     1    1.45
   29     1    1.45
   30     1    1.45
   31     1    1.45
 Generate Potential Derived Charges using the Breneman model, NDens= 1.
 Grid spacing= 0.300 Box extension= 2.800
 NStep X,Y,Z=   57     40     33   Total possible points=       75240
 Number of Points to Fit=   18897

 **********************************************************************

            Electrostatic Properties Using The SCF Density.

 **********************************************************************

       Atomic Center    1 is at  -4.461713  1.319386  0.545684
       Atomic Center    2 is at  -4.200237 -0.019443  0.236053
       Atomic Center    3 is at  -2.929787 -0.408649 -0.014947
       Atomic Center    4 is at  -1.835729  0.461934  0.029744
       Atomic Center    5 is at  -0.536238 -0.009942 -0.242772
       Atomic Center    6 is at   0.548150  0.866032 -0.233016
       Atomic Center    7 is at   0.323690  2.291379 -0.136443
       Atomic Center    8 is at   1.869232  0.390202 -0.030484
       Atomic Center    9 is at   2.180655 -0.425681  1.065083
       Atomic Center   10 is at   3.485191 -0.868957  1.263472
       Atomic Center   11 is at   4.500939 -0.489185  0.385552
       Atomic Center   12 is at   4.198376  0.329765 -0.700952
       Atomic Center   13 is at   2.889676  0.758135 -0.914707
       Atomic Center   14 is at  -0.363484 -1.369028 -0.560983
       Atomic Center   15 is at  -1.464614 -2.218772 -0.590661
       Atomic Center   16 is at  -2.748987 -1.760789 -0.323110
       Atomic Center   17 is at  -3.948830  1.637294  1.470860
       Atomic Center   18 is at  -5.544983  1.401935  0.698170
       Atomic Center   19 is at  -4.166335  1.997922 -0.274271
       Atomic Center   20 is at  -1.987377  1.506406  0.289406
       Atomic Center   21 is at   1.272478  2.818380 -0.293058
       Atomic Center   22 is at  -0.065372  2.593802  0.854768
       Atomic Center   23 is at  -0.388191  2.632954 -0.904588
       Atomic Center   24 is at   1.385783 -0.716062  1.755120
       Atomic Center   25 is at   3.712784 -1.507068  2.120324
       Atomic Center   26 is at   5.524728 -0.832515  0.547474
       Atomic Center   27 is at   4.984132  0.626414 -1.399295
       Atomic Center   28 is at   2.645655  1.378024 -1.780357
       Atomic Center   29 is at   0.629045 -1.753242 -0.795646
       Atomic Center   30 is at  -1.313840 -3.271208 -0.842648
       Atomic Center   31 is at  -3.618079 -2.418499 -0.350425
   18897 points will be used for fitting atomic charges
 Fitting point charges to electrostatic potential
 Charges from ESP fit, RMS=   0.00362 RRMS=   0.31277:
 ESP charges:
               1
     1  C    0.129533
     2  O   -0.362760
     3  C    0.443579
     4  C   -0.420413
     5  C    0.393765
     6  N   -0.396057
     7  C    0.025345
     8  C    0.355697
     9  C   -0.148966
    10  C   -0.097393
    11  C   -0.134368
    12  C   -0.075384
    13  C   -0.226277
    14  C   -0.336889
    15  C    0.022305
    16  C   -0.367026
    17  H    0.009296
    18  H    0.053943
    19  H    0.006687
    20  H    0.163819
    21  H    0.036312
    22  H    0.021178
    23  H    0.041630
    24  H    0.087653
    25  H    0.104063
    26  H    0.102858
    27  H    0.097579
    28  H    0.129872
    29  H    0.103389
    30  H    0.097237
    31  H    0.139794
 Sum of ESP charges =   0.00000
 ESP charges with hydrogens summed into heavy atoms:
               1
     1  C    0.199459
     2  O   -0.362760
     3  C    0.443579
     4  C   -0.256594
     5  C    0.393765
     6  N   -0.396057
     7  C    0.124465
     8  C    0.355697
     9  C   -0.061313
    10  C    0.006670
    11  C   -0.031510
    12  C    0.022195
    13  C   -0.096405
    14  C   -0.233500
    15  C    0.119541
    16  C   -0.227232
 Charge=   0.00000 Dipole=     0.9559     2.1282     0.4111 Tot=     2.3689
 -----------------------------------------------------------------

              Electrostatic Properties (Atomic Units)

 -----------------------------------------------------------------
    Center     Electric         -------- Electric Field --------
               Potential          X             Y             Z
 -----------------------------------------------------------------
    1 Atom    -14.715844
    2 Atom    -22.330091
    3 Atom    -14.713867
    4 Atom    -14.780107
    5 Atom    -14.726978
    6 Atom    -18.359760
    7 Atom    -14.733979
    8 Atom    -14.726213
    9 Atom    -14.768513
   10 Atom    -14.765168
   11 Atom    -14.767701
   12 Atom    -14.764361
   13 Atom    -14.767028
   14 Atom    -14.788748
   15 Atom    -14.776040
   16 Atom    -14.791113
   17 Atom     -1.108379
   18 Atom     -1.106670
   19 Atom     -1.108307
   20 Atom     -1.102218
   21 Atom     -1.102560
   22 Atom     -1.112922
   23 Atom     -1.109149
   24 Atom     -1.103838
   25 Atom     -1.104656
   26 Atom     -1.105261
   27 Atom     -1.103463
   28 Atom     -1.100296
   29 Atom     -1.118773
   30 Atom     -1.116922
   31 Atom     -1.117949
 -----------------------------------------------------------------
 Unable to Open any file for archive entry.
 1\1\GINC-NOTCH480\SP\RwB97XD\def2TZVP\C14H15N1O1\U1366379\17-Feb-2026\
 0\\#N Guess=Read Geom=Check Integral(Ultrafine) Density Pop=(ChelpG,Re
 adRadii) NMR wB97XD def2TZVP\\prod_5g_8\\0,1\C,0,-3.9979948663,1.53548
 94671,-1.9054447065\O,0,-4.0534064705,0.8838898948,-0.6688962103\C,0,-
 2.9261708501,0.3494875345,-0.1470918661\C,0,-1.6785942986,0.4212653661
 ,-0.7758008558\C,0,-0.5425098194,-0.1577286077,-0.176061534\N,0,0.6928
 715708,-0.1166552416,-0.8206307929\C,0,0.7782556093,0.344909261,-2.188
 4722385\C,0,1.9021860054,-0.2443881161,-0.0899226738\C,0,2.1596984047,
 0.5660255436,1.0235559757\C,0,3.3591512265,0.4445679183,1.7194203388\C
 ,0,4.326721604,-0.4707698655,1.3038741624\C,0,4.079465652,-1.273188280
 9,0.1913519111\C,0,2.8711860635,-1.1692873763,-0.495053555\C,0,-0.6893
 043065,-0.8081361221,1.0623404374\C,0,-1.9377986457,-0.8595159159,1.67
 3939364\C,0,-3.0625924657,-0.2909425563,1.0886967142\H,0,-3.3307002817
 ,2.4153184983,-1.8793307338\H,0,-5.0172438137,1.8738699842,-2.12943318
 57\H,0,-3.6629683173,0.860507467,-2.7129979745\H,0,-1.5824544526,0.938
 6182294,-1.7268241542\H,0,1.7915203604,0.1664860576,-2.5678340686\H,0,
 0.5728035171,1.4283593137,-2.2846603373\H,0,0.0705054854,-0.1984268288
 ,-2.8345142727\H,0,1.4042643089,1.2868114664,1.3430557881\H,0,3.545021
 9342,1.0809470595,2.587551619\H,0,5.2696718616,-0.5590524498,1.8472780
 534\H,0,4.8263970125,-1.9990213465,-0.1378226416\H,0,2.6646155945,-1.8
 157430258,-1.3509642112\H,0,0.1705658198,-1.2813611841,1.53613635\H,0,
 -2.0355669492,-1.3712300315,2.6343776792\H,0,-4.0457664935,-0.33219611
 25,1.5580776191\\Version=ES64L-G16RevC.01\State=1-A\HF=-672.4936716\RM
 SD=3.518e-09\Dipole=0.5380396,0.3017578,-0.6865957\Quadrupole=-0.85835
 27,-2.7217799,3.5801326,-3.6806814,3.8103333,-1.5230057\PG=C01 [X(C14H
 15N1O1)]\\@
 The archive entry for this job was punched.


 LOVE IS BLIND, THAT'S WHY ALL THE WORLD LOVES A LOUVER.
 Job cpu time:       0 days  0 hours 42 minutes 37.0 seconds.
 Elapsed time:       0 days  0 hours  5 minutes 30.4 seconds.
 File lengths (MBytes):  RWF=    209 Int=      0 D2E=      0 Chk=     32 Scr=      2
 Normal termination of Gaussian 16 at Tue Feb 17 16:10:45 2026.
