 Entering Gaussian System, Link 0=g16
 Input=prod_5f_6.com
 Output=prod_5f_6.log
 Initial command:
 /uufs/chpc.utah.edu/sys/installdir/gaussian16/C01/AVX/g16/l1.exe "/scratch/general/vast/u1366379/GAUSSSCRDIR/11028656-notchpeak.peaks/Gau-492461.inp" -scrdir="/scratch/general/vast/u1366379/GAUSSSCRDIR/11028656-notchpeak.peaks/"
 Entering Link 1 = /uufs/chpc.utah.edu/sys/installdir/gaussian16/C01/AVX/g16/l1.exe PID=    492463.
  
 Copyright (c) 1988-2019, Gaussian, Inc.  All Rights Reserved.
  
 This is part of the Gaussian(R) 16 program.  It is based on
 the Gaussian(R) 09 system (copyright 2009, Gaussian, Inc.),
 the Gaussian(R) 03 system (copyright 2003, Gaussian, Inc.),
 the Gaussian(R) 98 system (copyright 1998, Gaussian, Inc.),
 the Gaussian(R) 94 system (copyright 1995, Gaussian, Inc.),
 the Gaussian 92(TM) system (copyright 1992, Gaussian, Inc.),
 the Gaussian 90(TM) system (copyright 1990, Gaussian, Inc.),
 the Gaussian 88(TM) system (copyright 1988, Gaussian, Inc.),
 the Gaussian 86(TM) system (copyright 1986, Carnegie Mellon
 University), and the Gaussian 82(TM) system (copyright 1983,
 Carnegie Mellon University). Gaussian is a federally registered
 trademark of Gaussian, Inc.
  
 This software contains proprietary and confidential information,
 including trade secrets, belonging to Gaussian, Inc.
  
 This software is provided under written license and may be
 used, copied, transmitted, or stored only in accord with that
 written license.
  
 The following legend is applicable only to US Government
 contracts under FAR:
  
                    RESTRICTED RIGHTS LEGEND
  
 Use, reproduction and disclosure by the US Government is
 subject to restrictions as set forth in subparagraphs (a)
 and (c) of the Commercial Computer Software - Restricted
 Rights clause in FAR 52.227-19.
  
 Gaussian, Inc.
 340 Quinnipiac St., Bldg. 40, Wallingford CT 06492
  
  
 ---------------------------------------------------------------
 Warning -- This program may not be used in any manner that
 competes with the business of Gaussian, Inc. or will provide
 assistance to any competitor of Gaussian, Inc.  The licensee
 of this program is prohibited from giving any competitor of
 Gaussian, Inc. access to this program.  By using this program,
 the user acknowledges that Gaussian, Inc. is engaged in the
 business of creating and licensing software in the field of
 computational chemistry and represents and warrants to the
 licensee that it is not a competitor of Gaussian, Inc. and that
 it will not use this program in any manner prohibited above.
 ---------------------------------------------------------------
  

 Cite this work as:
 Gaussian 16, Revision C.01,
 M. J. Frisch, G. W. Trucks, H. B. Schlegel, G. E. Scuseria, 
 M. A. Robb, J. R. Cheeseman, G. Scalmani, V. Barone, 
 G. A. Petersson, H. Nakatsuji, X. Li, M. Caricato, A. V. Marenich, 
 J. Bloino, B. G. Janesko, R. Gomperts, B. Mennucci, H. P. Hratchian, 
 J. V. Ortiz, A. F. Izmaylov, J. L. Sonnenberg, D. Williams-Young, 
 F. Ding, F. Lipparini, F. Egidi, J. Goings, B. Peng, A. Petrone, 
 T. Henderson, D. Ranasinghe, V. G. Zakrzewski, J. Gao, N. Rega, 
 G. Zheng, W. Liang, M. Hada, M. Ehara, K. Toyota, R. Fukuda, 
 J. Hasegawa, M. Ishida, T. Nakajima, Y. Honda, O. Kitao, H. Nakai, 
 T. Vreven, K. Throssell, J. A. Montgomery, Jr., J. E. Peralta, 
 F. Ogliaro, M. J. Bearpark, J. J. Heyd, E. N. Brothers, K. N. Kudin, 
 V. N. Staroverov, T. A. Keith, R. Kobayashi, J. Normand, 
 K. Raghavachari, A. P. Rendell, J. C. Burant, S. S. Iyengar, 
 J. Tomasi, M. Cossi, J. M. Millam, M. Klene, C. Adamo, R. Cammi, 
 J. W. Ochterski, R. L. Martin, K. Morokuma, O. Farkas, 
 J. B. Foresman, and D. J. Fox, Gaussian, Inc., Wallingford CT, 2019.
 
 ******************************************
 Gaussian 16:  ES64L-G16RevC.01  3-Jul-2019
                17-Feb-2026 
 ******************************************
 %NProcShared=8
 Will use up to    8 processors via shared memory.
 %Mem=8GB
 %chk=prod_5f_6.chk
 ------------------------------------------------------
 #N OPT FREQ=NORAMAN Integral(Ultrafine) wB97XD def2SVP
 ------------------------------------------------------
 1/18=20,19=15,26=4,38=1/1,3;
 2/9=110,12=2,17=6,18=5,40=1/2;
 3/5=43,7=101,11=2,25=1,30=1,71=1,74=-58,75=-5/1,2,3;
 4//1;
 5/5=2,38=5/2;
 6/7=2,8=2,9=2,10=2,28=1/1;
 7//1,2,3,16;
 1/18=20,19=15,26=4/3(2);
 2/9=110/2;
 99//99;
 2/9=110/2;
 3/5=43,7=101,11=2,25=1,30=1,71=1,74=-58,75=-5/1,2,3;
 4/5=5,16=3,69=1/1;
 5/5=2,38=5/2;
 7//1,2,3,16;
 1/18=20,19=15,26=4/3(-5);
 2/9=110/2;
 6/7=2,8=2,9=2,10=2,19=2,28=1/1;
 99/9=1/99;
 ---------
 prod_5f_6
 ---------
 Symbolic Z-matrix:
 Charge =  0 Multiplicity = 1
 Cl                   -2.97759  -2.03152   0.65032 
 C                    -2.38206  -0.47788   0.18103 
 C                    -1.04712  -0.17664   0.35871 
 C                    -0.5388    1.0653   -0.01104 
 N                     0.84593   1.35974   0.18488 
 C                     1.23759   2.74271   0.45806 
 C                     1.85667   0.3665   -0.00704 
 C                     3.05571   0.38967   0.70596 
 C                     4.01735  -0.57396   0.49886 
 C                     3.80716  -1.57954  -0.42392 
 C                     2.6279   -1.61794  -1.14085 
 C                     1.66473  -0.65665  -0.93572 
 C                    -1.41617   1.99951  -0.56699 
 C                    -2.75037   1.69714  -0.74438 
 C                    -3.23787   0.46144  -0.37179 
 H                    -0.39746  -0.91063   0.79878 
 H                     1.60892   3.20916  -0.45233 
 H                     2.01448   2.78715   1.2167 
 H                     0.38703   3.31309   0.82585 
 H                     3.2193    1.15337   1.44446 
 H                     4.93614  -0.54594   1.06162 
 H                     4.56125  -2.3327   -0.58365 
 H                     2.46213  -2.4006   -1.86302 
 H                     0.75223  -0.67596  -1.50537 
 H                    -1.03542   2.955    -0.88145 
 H                    -3.41404   2.42684  -1.17839 
 H                    -4.27647   0.21073  -0.50427 
 

 GradGradGradGradGradGradGradGradGradGradGradGradGradGradGradGradGradGrad
 Berny optimization.
 Initialization pass.
                           ----------------------------
                           !    Initial Parameters    !
                           ! (Angstroms and Degrees)  !
 --------------------------                            --------------------------
 ! Name  Definition              Value          Derivative Info.                !
 --------------------------------------------------------------------------------
 ! R1    R(1,2)                  1.7288         estimate D2E/DX2                !
 ! R2    R(2,3)                  1.38           estimate D2E/DX2                !
 ! R3    R(2,15)                 1.3858         estimate D2E/DX2                !
 ! R4    R(3,4)                  1.3919         estimate D2E/DX2                !
 ! R5    R(3,16)                 1.0745         estimate D2E/DX2                !
 ! R6    R(4,5)                  1.4292         estimate D2E/DX2                !
 ! R7    R(4,13)                 1.397          estimate D2E/DX2                !
 ! R8    R(5,6)                  1.4631         estimate D2E/DX2                !
 ! R9    R(5,7)                  1.43           estimate D2E/DX2                !
 ! R10   R(6,17)                 1.0882         estimate D2E/DX2                !
 ! R11   R(6,18)                 1.0868         estimate D2E/DX2                !
 ! R12   R(6,19)                 1.0881         estimate D2E/DX2                !
 ! R13   R(7,8)                  1.3952         estimate D2E/DX2                !
 ! R14   R(7,12)                 1.395          estimate D2E/DX2                !
 ! R15   R(8,9)                  1.377          estimate D2E/DX2                !
 ! R16   R(8,20)                 1.0749         estimate D2E/DX2                !
 ! R17   R(9,10)                 1.3809         estimate D2E/DX2                !
 ! R18   R(9,21)                 1.0778         estimate D2E/DX2                !
 ! R19   R(10,11)                1.3806         estimate D2E/DX2                !
 ! R20   R(10,22)                1.0777         estimate D2E/DX2                !
 ! R21   R(11,12)                1.3762         estimate D2E/DX2                !
 ! R22   R(11,23)                1.0778         estimate D2E/DX2                !
 ! R23   R(12,24)                1.0759         estimate D2E/DX2                !
 ! R24   R(13,14)                1.3795         estimate D2E/DX2                !
 ! R25   R(13,25)                1.0756         estimate D2E/DX2                !
 ! R26   R(14,15)                1.3796         estimate D2E/DX2                !
 ! R27   R(14,26)                1.0776         estimate D2E/DX2                !
 ! R28   R(15,27)                1.0766         estimate D2E/DX2                !
 ! A1    A(1,2,3)              119.634          estimate D2E/DX2                !
 ! A2    A(1,2,15)             120.3124         estimate D2E/DX2                !
 ! A3    A(3,2,15)             120.0535         estimate D2E/DX2                !
 ! A4    A(2,3,4)              120.9192         estimate D2E/DX2                !
 ! A5    A(2,3,16)             119.243          estimate D2E/DX2                !
 ! A6    A(4,3,16)             119.8346         estimate D2E/DX2                !
 ! A7    A(3,4,5)              120.0815         estimate D2E/DX2                !
 ! A8    A(3,4,13)             118.2305         estimate D2E/DX2                !
 ! A9    A(5,4,13)             121.6877         estimate D2E/DX2                !
 ! A10   A(4,5,6)              118.666          estimate D2E/DX2                !
 ! A11   A(4,5,7)              121.5557         estimate D2E/DX2                !
 ! A12   A(6,5,7)              119.4972         estimate D2E/DX2                !
 ! A13   A(5,6,17)             109.895          estimate D2E/DX2                !
 ! A14   A(5,6,18)             111.1221         estimate D2E/DX2                !
 ! A15   A(5,6,19)             110.4467         estimate D2E/DX2                !
 ! A16   A(17,6,18)            108.816          estimate D2E/DX2                !
 ! A17   A(17,6,19)            108.9535         estimate D2E/DX2                !
 ! A18   A(18,6,19)            107.5417         estimate D2E/DX2                !
 ! A19   A(5,7,8)              121.8236         estimate D2E/DX2                !
 ! A20   A(5,7,12)             120.0996         estimate D2E/DX2                !
 ! A21   A(8,7,12)             118.0746         estimate D2E/DX2                !
 ! A22   A(7,8,9)              120.7755         estimate D2E/DX2                !
 ! A23   A(7,8,20)             119.584          estimate D2E/DX2                !
 ! A24   A(9,8,20)             119.6197         estimate D2E/DX2                !
 ! A25   A(8,9,10)             120.2512         estimate D2E/DX2                !
 ! A26   A(8,9,21)             119.9069         estimate D2E/DX2                !
 ! A27   A(10,9,21)            119.8414         estimate D2E/DX2                !
 ! A28   A(9,10,11)            119.8197         estimate D2E/DX2                !
 ! A29   A(9,10,22)            120.0962         estimate D2E/DX2                !
 ! A30   A(11,10,22)           120.0841         estimate D2E/DX2                !
 ! A31   A(10,11,12)           120.0649         estimate D2E/DX2                !
 ! A32   A(10,11,23)           119.9687         estimate D2E/DX2                !
 ! A33   A(12,11,23)           119.9663         estimate D2E/DX2                !
 ! A34   A(7,12,11)            121.0138         estimate D2E/DX2                !
 ! A35   A(7,12,24)            118.8375         estimate D2E/DX2                !
 ! A36   A(11,12,24)           120.142          estimate D2E/DX2                !
 ! A37   A(4,13,14)            120.7983         estimate D2E/DX2                !
 ! A38   A(4,13,25)            119.2158         estimate D2E/DX2                !
 ! A39   A(14,13,25)           119.9674         estimate D2E/DX2                !
 ! A40   A(13,14,15)           120.2214         estimate D2E/DX2                !
 ! A41   A(13,14,26)           119.9346         estimate D2E/DX2                !
 ! A42   A(15,14,26)           119.8436         estimate D2E/DX2                !
 ! A43   A(2,15,14)            119.7771         estimate D2E/DX2                !
 ! A44   A(2,15,27)            119.1442         estimate D2E/DX2                !
 ! A45   A(14,15,27)           121.0787         estimate D2E/DX2                !
 ! D1    D(1,2,3,4)            179.9246         estimate D2E/DX2                !
 ! D2    D(1,2,3,16)            -0.7395         estimate D2E/DX2                !
 ! D3    D(15,2,3,4)            -0.0225         estimate D2E/DX2                !
 ! D4    D(15,2,3,16)          179.3134         estimate D2E/DX2                !
 ! D5    D(1,2,15,14)         -179.8951         estimate D2E/DX2                !
 ! D6    D(1,2,15,27)            0.0212         estimate D2E/DX2                !
 ! D7    D(3,2,15,14)            0.0516         estimate D2E/DX2                !
 ! D8    D(3,2,15,27)          179.9679         estimate D2E/DX2                !
 ! D9    D(2,3,4,5)            179.8048         estimate D2E/DX2                !
 ! D10   D(2,3,4,13)             0.0068         estimate D2E/DX2                !
 ! D11   D(16,3,4,5)             0.4728         estimate D2E/DX2                !
 ! D12   D(16,3,4,13)         -179.3252         estimate D2E/DX2                !
 ! D13   D(3,4,5,6)           -149.0416         estimate D2E/DX2                !
 ! D14   D(3,4,5,7)             37.081          estimate D2E/DX2                !
 ! D15   D(13,4,5,6)            30.7492         estimate D2E/DX2                !
 ! D16   D(13,4,5,7)          -143.1282         estimate D2E/DX2                !
 ! D17   D(3,4,13,14)           -0.0206         estimate D2E/DX2                !
 ! D18   D(3,4,13,25)         -178.4551         estimate D2E/DX2                !
 ! D19   D(5,4,13,14)         -179.8151         estimate D2E/DX2                !
 ! D20   D(5,4,13,25)            1.7503         estimate D2E/DX2                !
 ! D21   D(4,5,6,17)           -99.8392         estimate D2E/DX2                !
 ! D22   D(4,5,6,18)           139.6627         estimate D2E/DX2                !
 ! D23   D(4,5,6,19)            20.397          estimate D2E/DX2                !
 ! D24   D(7,5,6,17)            74.167          estimate D2E/DX2                !
 ! D25   D(7,5,6,18)           -46.3312         estimate D2E/DX2                !
 ! D26   D(7,5,6,19)          -165.5968         estimate D2E/DX2                !
 ! D27   D(4,5,7,8)           -150.5041         estimate D2E/DX2                !
 ! D28   D(4,5,7,12)            30.0528         estimate D2E/DX2                !
 ! D29   D(6,5,7,8)             35.6684         estimate D2E/DX2                !
 ! D30   D(6,5,7,12)          -143.7748         estimate D2E/DX2                !
 ! D31   D(5,7,8,9)           -179.6563         estimate D2E/DX2                !
 ! D32   D(5,7,8,20)             2.0096         estimate D2E/DX2                !
 ! D33   D(12,7,8,9)            -0.2022         estimate D2E/DX2                !
 ! D34   D(12,7,8,20)         -178.5364         estimate D2E/DX2                !
 ! D35   D(5,7,12,11)          179.6395         estimate D2E/DX2                !
 ! D36   D(5,7,12,24)            0.5759         estimate D2E/DX2                !
 ! D37   D(8,7,12,11)            0.1757         estimate D2E/DX2                !
 ! D38   D(8,7,12,24)         -178.8879         estimate D2E/DX2                !
 ! D39   D(7,8,9,10)             0.1217         estimate D2E/DX2                !
 ! D40   D(7,8,9,21)          -179.6383         estimate D2E/DX2                !
 ! D41   D(20,8,9,10)          178.4553         estimate D2E/DX2                !
 ! D42   D(20,8,9,21)           -1.3047         estimate D2E/DX2                !
 ! D43   D(8,9,10,11)           -0.0085         estimate D2E/DX2                !
 ! D44   D(8,9,10,22)         -179.9698         estimate D2E/DX2                !
 ! D45   D(21,9,10,11)         179.7515         estimate D2E/DX2                !
 ! D46   D(21,9,10,22)          -0.2098         estimate D2E/DX2                !
 ! D47   D(9,10,11,12)          -0.0183         estimate D2E/DX2                !
 ! D48   D(9,10,11,23)         179.8825         estimate D2E/DX2                !
 ! D49   D(22,10,11,12)        179.943          estimate D2E/DX2                !
 ! D50   D(22,10,11,23)         -0.1562         estimate D2E/DX2                !
 ! D51   D(10,11,12,7)          -0.0678         estimate D2E/DX2                !
 ! D52   D(10,11,12,24)        178.9836         estimate D2E/DX2                !
 ! D53   D(23,11,12,7)        -179.9687         estimate D2E/DX2                !
 ! D54   D(23,11,12,24)         -0.9172         estimate D2E/DX2                !
 ! D55   D(4,13,14,15)           0.0502         estimate D2E/DX2                !
 ! D56   D(4,13,14,26)        -179.7456         estimate D2E/DX2                !
 ! D57   D(25,13,14,15)        178.473          estimate D2E/DX2                !
 ! D58   D(25,13,14,26)         -1.3227         estimate D2E/DX2                !
 ! D59   D(13,14,15,2)          -0.0653         estimate D2E/DX2                !
 ! D60   D(13,14,15,27)       -179.98           estimate D2E/DX2                !
 ! D61   D(26,14,15,2)         179.7306         estimate D2E/DX2                !
 ! D62   D(26,14,15,27)         -0.1841         estimate D2E/DX2                !
 --------------------------------------------------------------------------------
 Trust Radius=3.00D-01 FncErr=1.00D-07 GrdErr=1.00D-06 EigMax=2.50D+02 EigMin=1.00D-04
 Number of steps in this run=    145 maximum allowed number of steps=    162.
 GradGradGradGradGradGradGradGradGradGradGradGradGradGradGradGradGradGrad

                          Input orientation:                          
 ---------------------------------------------------------------------
 Center     Atomic      Atomic             Coordinates (Angstroms)
 Number     Number       Type             X           Y           Z
 ---------------------------------------------------------------------
      1         17           0       -2.977590   -2.031520    0.650320
      2          6           0       -2.382060   -0.477880    0.181030
      3          6           0       -1.047120   -0.176640    0.358710
      4          6           0       -0.538800    1.065300   -0.011040
      5          7           0        0.845930    1.359740    0.184880
      6          6           0        1.237590    2.742710    0.458060
      7          6           0        1.856670    0.366500   -0.007040
      8          6           0        3.055710    0.389670    0.705960
      9          6           0        4.017350   -0.573960    0.498860
     10          6           0        3.807160   -1.579540   -0.423920
     11          6           0        2.627900   -1.617940   -1.140850
     12          6           0        1.664730   -0.656650   -0.935720
     13          6           0       -1.416170    1.999510   -0.566990
     14          6           0       -2.750370    1.697140   -0.744380
     15          6           0       -3.237870    0.461440   -0.371790
     16          1           0       -0.397460   -0.910630    0.798780
     17          1           0        1.608920    3.209160   -0.452330
     18          1           0        2.014480    2.787150    1.216700
     19          1           0        0.387030    3.313090    0.825850
     20          1           0        3.219300    1.153370    1.444460
     21          1           0        4.936140   -0.545940    1.061620
     22          1           0        4.561250   -2.332700   -0.583650
     23          1           0        2.462130   -2.400600   -1.863020
     24          1           0        0.752230   -0.675960   -1.505370
     25          1           0       -1.035420    2.955000   -0.881450
     26          1           0       -3.414040    2.426840   -1.178390
     27          1           0       -4.276470    0.210730   -0.504270
 ---------------------------------------------------------------------
                    Distance matrix (angstroms):
                    1          2          3          4          5
     1  Cl   0.000000
     2  C    1.728782   0.000000
     3  C    2.693015   1.379993   0.000000
     4  C    3.996922   2.411618   1.391948   0.000000
     5  N    5.131918   3.714402   2.444242   1.429180   0.000000
     6  C    6.371654   4.852918   3.708419   2.487835   1.463090
     7  C    5.436239   4.326104   2.976705   2.495318   1.430019
     8  C    6.501228   5.531504   4.156261   3.727072   2.468945
     9  C    7.146790   6.408018   5.081964   4.868847   3.727692
    10  C    6.884120   6.315541   5.113186   5.104216   4.216502
    11  C    5.899225   5.305356   4.222771   4.301655   3.714775
    12  C    5.094794   4.201857   3.043039   2.945452   2.447858
    13  C    4.491000   2.762234   2.393480   1.396999   2.468139
    14  C    3.987446   2.392227   2.762050   2.414136   3.729710
    15  C    2.706899   1.385764   2.395863   2.789223   4.218323
    16  H    2.817003   2.123093   1.074458   2.140113   2.660352
    17  H    7.051003   5.470222   4.379038   3.066525   2.099653
    18  H    6.961403   5.573383   4.346676   3.315321   2.113684
    19  H    6.317938   4.738682   3.801739   2.571013   2.106421
    20  H    7.012534   5.969294   4.598926   4.031073   2.694813
    21  H    8.062459   7.371304   6.035716   5.807036   4.596750
    22  H    7.645096   7.227354   6.081978   6.155063   5.294181
    23  H    6.003637   5.598318   4.711361   4.944479   4.576697
    24  H    4.516204   3.564682   2.638518   2.632825   2.647603
    25  H    5.566303   3.837573   3.368279   2.138974   2.687265
    26  H    4.838558   3.369036   3.839674   3.388732   4.598321
    27  H    2.836874   2.128993   3.365040   3.865714   5.294727
                    6          7          8          9         10
     6  C    0.000000
     7  C    2.499190   0.000000
     8  C    2.983926   1.395207   0.000000
     9  C    4.327705   2.410174   1.377035   0.000000
    10  C    5.105137   2.786624   2.391463   1.380903   0.000000
    11  C    4.848169   2.412120   2.761200   2.389375   1.380622
    12  C    3.698746   1.395035   2.392640   2.756751   2.388236
    13  C    2.940326   3.700236   4.920335   6.105893   6.333502
    14  C    4.294520   4.851710   6.125645   7.246073   7.337610
    15  C    5.091423   5.108463   6.385597   7.380264   7.334900
    16  H    4.017010   2.713210   3.691040   4.437775   4.429590
    17  H    1.088242   2.887971   3.374072   4.584462   5.269223
    18  H    1.086769   2.716982   2.663255   3.977919   4.997331
    19  H    1.088143   3.396460   3.960128   5.328724   6.098938
    20  H    2.725098   2.140742   1.074887   2.124785   3.362324
    21  H    4.985858   3.384925   2.130229   1.077803   2.133015
    22  H    6.155620   3.864313   3.367647   2.135608   1.077690
    23  H    5.774127   3.386456   3.838958   3.366571   2.134070
    24  H    3.972145   2.133425   3.366239   3.832538   3.364311
    25  H    2.646871   3.978581   5.083122   6.315798   6.649960
    26  H    4.941195   5.779052   7.039780   8.188011   8.292529
    27  H    6.143440   6.155234   7.433542   8.391034   8.279891
                   11         12         13         14         15
    11  C    0.000000
    12  C    1.376173   0.000000
    13  C    5.456167   4.084494   0.000000
    14  C    6.330303   5.007000   1.379487   0.000000
    15  C    6.270768   5.060003   2.392144   1.379650   0.000000
    16  H    3.662684   2.706589   3.372241   3.836404   3.364631
    17  H    4.981292   3.896315   3.259995   4.623300   5.572058
    18  H    5.033800   4.076150   3.946047   5.266664   5.959816
    19  H    5.762331   4.527083   2.630024   3.862667   4.765097
    20  H    3.835849   3.370181   5.123423   6.381510   6.743336
    21  H    3.365714   3.834547   7.034453   8.208257   8.359660
    22  H    2.135227   3.364955   7.382267   8.350164   8.287242
    23  H    1.077760   2.130045   6.006819   6.724060   6.550194
    24  H    2.130338   1.075886   3.569405   4.298711   4.301114
    25  H    5.865065   4.509742   1.075554   2.131209   3.365766
    26  H    7.270949   5.946487   2.132582   1.077629   2.131768
    27  H    7.170746   6.019664   3.374164   2.143840   1.076613
                   16         17         18         19         20
    16  H    0.000000
    17  H    4.750106   0.000000
    18  H    4.434601   1.768681   0.000000
    19  H    4.296041   1.771316   1.754414   0.000000
    20  H    4.214018   3.227601   2.042719   3.615083   0.000000
    21  H    5.352511   5.240536   4.435046   5.970101   2.445764
    22  H    5.340618   6.280582   5.995011   7.161407   4.250499
    23  H    4.181201   5.847001   6.049613   6.646978   4.913597
    24  H    2.585723   4.115455   4.582147   4.634704   4.258448
    25  H    4.263011   2.690962   3.705711   2.250881   5.172849
    26  H    4.914027   5.135106   5.944334   4.387545   7.245845
    27  H    4.242889   6.605384   7.012541   5.756917   7.802095
                   21         22         23         24         25
    21  H    0.000000
    22  H    2.457634   0.000000
    23  H    4.256055   2.459208   0.000000
    24  H    4.910341   4.254761   2.454802   0.000000
    25  H    7.189689   7.705269   6.471382   4.094977   0.000000
    26  H    9.142241   9.306567   7.635592   5.205006   2.454579
    27  H    9.375326   9.196773   7.353501   5.203484   4.263530
                   26         27
    26  H    0.000000
    27  H    2.471713   0.000000
 Stoichiometry    C13H12ClN
 Framework group  C1[X(C13H12ClN)]
 Deg. of freedom    75
 Full point group                 C1      NOp   1
 Largest Abelian subgroup         C1      NOp   1
 Largest concise Abelian subgroup C1      NOp   1
                         Standard orientation:                         
 ---------------------------------------------------------------------
 Center     Atomic      Atomic             Coordinates (Angstroms)
 Number     Number       Type             X           Y           Z
 ---------------------------------------------------------------------
      1         17           0        3.030003   -2.129482   -0.572262
      2          6           0        2.444439   -0.560366   -0.143688
      3          6           0        1.115720   -0.248650   -0.347939
      4          6           0        0.615454    1.005894   -0.011231
      5          7           0       -0.762844    1.310970   -0.234345
      6          6           0       -1.135177    2.692167   -0.541414
      7          6           0       -1.787174    0.332636   -0.037964
      8          6           0       -2.974936    0.354005   -0.769652
      9          6           0       -3.950081   -0.594939   -0.557939
     10          6           0       -3.764915   -1.583683    0.388101
     11          6           0       -2.597156   -1.619988    1.123721
     12          6           0       -1.620536   -0.673360    0.914049
     13          6           0        1.494449    1.941868    0.539158
     14          6           0        2.822420    1.629024    0.743131
     15          6           0        3.301981    0.380882    0.403137
     16          1           0        0.464826   -0.984514   -0.783028
     17          1           0       -1.515152    3.180987    0.353541
     18          1           0       -1.899938    2.729388   -1.312661
     19          1           0       -0.272953    3.245870   -0.907526
     20          1           0       -3.118949    1.104193   -1.525865
     21          1           0       -4.859869   -0.568636   -1.135221
     22          1           0       -4.529528   -2.325382    0.551399
     23          1           0       -2.450922   -2.389487    1.864027
     24          1           0       -0.717047   -0.690748    1.497945
     25          1           0        1.119439    2.907557    0.828347
     26          1           0        3.487367    2.360327    1.172465
     27          1           0        4.335650    0.121908    0.556622
 ---------------------------------------------------------------------
 Rotational constants (GHZ):           0.8751957           0.3402405           0.2662889
 Standard basis: def2SVP (5D, 7F)
 There are   289 symmetry adapted cartesian basis functions of A   symmetry.
 There are   274 symmetry adapted basis functions of A   symmetry.
   274 basis functions,   471 primitive gaussians,   289 cartesian basis functions
    57 alpha electrons       57 beta electrons
       nuclear repulsion energy      1007.2418358390 Hartrees.
 NAtoms=   27 NActive=   27 NUniq=   27 SFac= 1.00D+00 NAtFMM=   60 NAOKFM=F Big=F
 Integral buffers will be    131072 words long.
 Raffenetti 2 integral format.
 Two-electron integral symmetry is turned on.
 Nuclear repulsion after empirical dispersion term =     1007.2238766805 Hartrees.
 One-electron integrals computed using PRISM.
   1 Symmetry operations used in ECPInt.
 ECPInt:  NShTT=    8256 NPrTT=   30622 LenC2=    7795 LenP2D=   21047.
 LDataN:  DoStor=T MaxTD1= 4 Len=   56
 NBasis=   274 RedAO= T EigKep=  2.27D-04  NBF=   274
 NBsUse=   274 1.00D-06 EigRej= -1.00D+00 NBFU=   274
 ExpMin= 1.22D-01 ExpMax= 1.04D+04 ExpMxC= 1.57D+03 IAcc=3 IRadAn=         5 AccDes= 0.00D+00
 Harris functional with IExCor= 4639 and IRadAn=       5 diagonalized for initial guess.
 HarFok:  IExCor= 4639 AccDes= 0.00D+00 IRadAn=         5 IDoV= 1 UseB2=F ITyADJ=14
 ICtDFT=  3500011 ScaDFX=  1.000000  1.000000  1.000000  1.000000
 FoFCou: FMM=F IPFlag=           0 FMFlag=      100000 FMFlg1=           0
         NFxFlg=           0 DoJE=T BraDBF=F KetDBF=T FulRan=T
         wScrn=  0.000000 ICntrl=       500 IOpCl=  0 I1Cent=   200000004 NGrid=           0
         NMat0=    1 NMatS0=      1 NMatT0=    0 NMatD0=    1 NMtDS0=    0 NMtDT0=    0
 Petite list used in FoFCou.
 Requested convergence on RMS density matrix=1.00D-08 within 128 cycles.
 Requested convergence on MAX density matrix=1.00D-06.
 Requested convergence on             energy=1.00D-06.
 No special actions if energy rises.
 Integral accuracy reduced to 1.0D-05 until final iterations.
 Initial convergence to 1.0D-05 achieved.  Increase integral accuracy.
 SCF Done:  E(RwB97XD) =  -1016.82232660     A.U. after   16 cycles
            NFock= 16  Conv=0.43D-08     -V/T= 2.0067

 **********************************************************************

            Population analysis using the SCF Density.

 **********************************************************************

 Orbital symmetries:
       Occupied  (A) (A) (A) (A) (A) (A) (A) (A) (A) (A) (A) (A)
                 (A) (A) (A) (A) (A) (A) (A) (A) (A) (A) (A) (A)
                 (A) (A) (A) (A) (A) (A) (A) (A) (A) (A) (A) (A)
                 (A) (A) (A) (A) (A) (A) (A) (A) (A) (A) (A) (A)
                 (A) (A) (A) (A) (A) (A) (A) (A) (A)
       Virtual   (A) (A) (A) (A) (A) (A) (A) (A) (A) (A) (A) (A)
                 (A) (A) (A) (A) (A) (A) (A) (A) (A) (A) (A) (A)
                 (A) (A) (A) (A) (A) (A) (A) (A) (A) (A) (A) (A)
                 (A) (A) (A) (A) (A) (A) (A) (A) (A) (A) (A) (A)
                 (A) (A) (A) (A) (A) (A) (A) (A) (A) (A) (A) (A)
                 (A) (A) (A) (A) (A) (A) (A) (A) (A) (A) (A) (A)
                 (A) (A) (A) (A) (A) (A) (A) (A) (A) (A) (A) (A)
                 (A) (A) (A) (A) (A) (A) (A) (A) (A) (A) (A) (A)
                 (A) (A) (A) (A) (A) (A) (A) (A) (A) (A) (A) (A)
                 (A) (A) (A) (A) (A) (A) (A) (A) (A) (A) (A) (A)
                 (A) (A) (A) (A) (A) (A) (A) (A) (A) (A) (A) (A)
                 (A) (A) (A) (A) (A) (A) (A) (A) (A) (A) (A) (A)
                 (A) (A) (A) (A) (A) (A) (A) (A) (A) (A) (A) (A)
                 (A) (A) (A) (A) (A) (A) (A) (A) (A) (A) (A) (A)
                 (A) (A) (A) (A) (A) (A) (A) (A) (A) (A) (A) (A)
                 (A) (A) (A) (A) (A) (A) (A) (A) (A) (A) (A) (A)
                 (A) (A) (A) (A) (A) (A) (A) (A) (A) (A) (A) (A)
                 (A) (A) (A) (A) (A) (A) (A) (A) (A) (A) (A) (A)
                 (A)
 The electronic state is 1-A.
 Alpha  occ. eigenvalues -- -101.67409 -14.47258 -10.35627 -10.35186 -10.34464
 Alpha  occ. eigenvalues --  -10.33551 -10.30979 -10.30335 -10.30284 -10.30227
 Alpha  occ. eigenvalues --  -10.30026 -10.29903 -10.29820 -10.29496 -10.29234
 Alpha  occ. eigenvalues --   -9.58228  -7.33610  -7.32638  -7.32609  -1.04922
 Alpha  occ. eigenvalues --   -0.98952  -0.95369  -0.92995  -0.85851  -0.84897
 Alpha  occ. eigenvalues --   -0.84182  -0.82370  -0.77978  -0.72197  -0.70364
 Alpha  occ. eigenvalues --   -0.69278  -0.66718  -0.63434  -0.61132  -0.57766
 Alpha  occ. eigenvalues --   -0.57266  -0.56215  -0.53971  -0.53831  -0.52993
 Alpha  occ. eigenvalues --   -0.52086  -0.51802  -0.51005  -0.48964  -0.48274
 Alpha  occ. eigenvalues --   -0.46778  -0.45985  -0.44964  -0.43831  -0.42815
 Alpha  occ. eigenvalues --   -0.42420  -0.39049  -0.38490  -0.34471  -0.33666
 Alpha  occ. eigenvalues --   -0.32301  -0.26816
 Alpha virt. eigenvalues --    0.04598   0.05013   0.06756   0.08334   0.12253
 Alpha virt. eigenvalues --    0.13864   0.15709   0.17322   0.18167   0.19619
 Alpha virt. eigenvalues --    0.20188   0.20908   0.21459   0.21673   0.22247
 Alpha virt. eigenvalues --    0.23653   0.23788   0.24270   0.25178   0.28725
 Alpha virt. eigenvalues --    0.30922   0.33482   0.35110   0.35925   0.36542
 Alpha virt. eigenvalues --    0.37385   0.39027   0.40146   0.40982   0.42035
 Alpha virt. eigenvalues --    0.42628   0.45042   0.46081   0.47598   0.47909
 Alpha virt. eigenvalues --    0.48952   0.50420   0.51353   0.52369   0.53189
 Alpha virt. eigenvalues --    0.53946   0.55070   0.56097   0.57058   0.57309
 Alpha virt. eigenvalues --    0.58040   0.58277   0.59807   0.60438   0.62544
 Alpha virt. eigenvalues --    0.63180   0.64233   0.64812   0.66016   0.66699
 Alpha virt. eigenvalues --    0.67967   0.69030   0.70268   0.71321   0.71975
 Alpha virt. eigenvalues --    0.72544   0.73115   0.74047   0.74455   0.74996
 Alpha virt. eigenvalues --    0.75583   0.76559   0.77036   0.77417   0.78518
 Alpha virt. eigenvalues --    0.78730   0.79284   0.80920   0.81783   0.81922
 Alpha virt. eigenvalues --    0.82657   0.83701   0.84811   0.85173   0.86412
 Alpha virt. eigenvalues --    0.87630   0.88906   0.89524   0.91078   0.91538
 Alpha virt. eigenvalues --    0.91588   0.92646   0.94103   0.96512   0.98735
 Alpha virt. eigenvalues --    0.99899   1.00683   1.03218   1.04553   1.05910
 Alpha virt. eigenvalues --    1.10126   1.12882   1.16273   1.17007   1.18297
 Alpha virt. eigenvalues --    1.21820   1.24556   1.26481   1.29194   1.30643
 Alpha virt. eigenvalues --    1.31793   1.32850   1.33695   1.34890   1.35565
 Alpha virt. eigenvalues --    1.35888   1.37078   1.38303   1.38532   1.40215
 Alpha virt. eigenvalues --    1.41619   1.42968   1.46477   1.51139   1.55608
 Alpha virt. eigenvalues --    1.57693   1.60099   1.62749   1.65671   1.68254
 Alpha virt. eigenvalues --    1.70736   1.76291   1.77090   1.78284   1.79334
 Alpha virt. eigenvalues --    1.80235   1.80565   1.82430   1.83488   1.83662
 Alpha virt. eigenvalues --    1.84260   1.85634   1.86359   1.86729   1.87265
 Alpha virt. eigenvalues --    1.88902   1.89846   1.90310   1.90753   1.91495
 Alpha virt. eigenvalues --    1.93001   1.93448   1.95889   1.97441   1.97868
 Alpha virt. eigenvalues --    2.01141   2.01825   2.04285   2.05201   2.05828
 Alpha virt. eigenvalues --    2.08676   2.09141   2.10133   2.12214   2.14539
 Alpha virt. eigenvalues --    2.16006   2.19170   2.20587   2.23088   2.23745
 Alpha virt. eigenvalues --    2.25635   2.25888   2.27974   2.28387   2.29189
 Alpha virt. eigenvalues --    2.33227   2.33822   2.36556   2.37909   2.38429
 Alpha virt. eigenvalues --    2.39612   2.40736   2.41735   2.42195   2.45063
 Alpha virt. eigenvalues --    2.46155   2.46853   2.50975   2.55145   2.56001
 Alpha virt. eigenvalues --    2.61283   2.65238   2.69394   2.70115   2.71128
 Alpha virt. eigenvalues --    2.72654   2.74184   2.75059   2.76465   2.78940
 Alpha virt. eigenvalues --    2.83883   2.84715   2.85476   2.88230   2.90293
 Alpha virt. eigenvalues --    2.92615   2.95715   2.97346   2.99807   3.00848
 Alpha virt. eigenvalues --    3.03335   3.06112   3.08064   3.13606   3.17008
 Alpha virt. eigenvalues --    3.22898   3.24832   3.29071   3.37615   3.46330
 Alpha virt. eigenvalues --    3.71715   3.79466
          Condensed to atoms (all electrons):
               1          2          3          4          5          6
     1  Cl  16.966737   0.239096  -0.064000   0.003889  -0.000021   0.000001
     2  C    0.239096   5.256628   0.227615   0.160273   0.011177  -0.000185
     3  C   -0.064000   0.227615   5.222632   0.240464  -0.086074   0.005694
     4  C    0.003889   0.160273   0.240464   5.092758   0.334093  -0.054263
     5  N   -0.000021   0.011177  -0.086074   0.334093   6.816189   0.337710
     6  C    0.000001  -0.000185   0.005694  -0.054263   0.337710   4.436217
     7  C   -0.000029  -0.000388  -0.003560  -0.048817   0.309737  -0.045050
     8  C    0.000001  -0.000064   0.000569   0.006137  -0.078568  -0.003315
     9  C    0.000000   0.000004   0.000025  -0.000162   0.007369   0.000953
    10  C    0.000000  -0.000005  -0.000006   0.000047  -0.000508  -0.000014
    11  C    0.000004   0.000085  -0.001264  -0.000081   0.009355  -0.000163
    12  C   -0.000009  -0.001331  -0.005568  -0.006030  -0.080680   0.004292
    13  C    0.000396  -0.186454   0.080637   0.238495  -0.085865  -0.001368
    14  C    0.004184   0.137757  -0.159916   0.137372   0.009219   0.000187
    15  C   -0.055907   0.253160   0.103532  -0.172755  -0.000973   0.000074
    16  H    0.002605  -0.073067   0.450325  -0.056105  -0.013896   0.000005
    17  H   -0.000000   0.000043  -0.000687  -0.002638  -0.040664   0.408772
    18  H   -0.000000  -0.000010   0.000200   0.004897  -0.023186   0.401742
    19  H    0.000000  -0.000055   0.000271  -0.009160  -0.016596   0.398198
    20  H   -0.000000   0.000001  -0.000033  -0.000179  -0.011396  -0.000004
    21  H   -0.000000  -0.000000  -0.000001   0.000007  -0.000117  -0.000012
    22  H   -0.000000  -0.000000  -0.000000   0.000001   0.000010  -0.000000
    23  H   -0.000000   0.000003   0.000056  -0.000023  -0.000125   0.000006
    24  H    0.000106  -0.001014   0.001529   0.005827  -0.014727  -0.000175
    25  H    0.000009  -0.002426   0.016816  -0.071948  -0.014155   0.007103
    26  H   -0.000122   0.015009  -0.002212   0.014734  -0.000122  -0.000020
    27  H    0.000888  -0.072089   0.016372  -0.001935   0.000008   0.000000
               7          8          9         10         11         12
     1  Cl  -0.000029   0.000001   0.000000   0.000000   0.000004  -0.000009
     2  C   -0.000388  -0.000064   0.000004  -0.000005   0.000085  -0.001331
     3  C   -0.003560   0.000569   0.000025  -0.000006  -0.001264  -0.005568
     4  C   -0.048817   0.006137  -0.000162   0.000047  -0.000081  -0.006030
     5  N    0.309737  -0.078568   0.007369  -0.000508   0.009355  -0.080680
     6  C   -0.045050  -0.003315   0.000953  -0.000014  -0.000163   0.004292
     7  C    5.096376   0.268045   0.113501  -0.164566   0.118345   0.275394
     8  C    0.268045   5.163691   0.298932   0.083437  -0.149376   0.064312
     9  C    0.113501   0.298932   5.020523   0.286236   0.098922  -0.150094
    10  C   -0.164566   0.083437   0.286236   5.103237   0.276426   0.087738
    11  C    0.118345  -0.149376   0.098922   0.276426   5.055505   0.272481
    12  C    0.275394   0.064312  -0.150094   0.087738   0.272481   5.175687
    13  C    0.006110  -0.000419  -0.000002   0.000002  -0.000092   0.000631
    14  C   -0.000206   0.000001  -0.000000  -0.000000   0.000006   0.000056
    15  C    0.000055   0.000001  -0.000000   0.000000  -0.000006   0.000026
    16  H    0.005152  -0.000842   0.000020   0.000010  -0.000454   0.002763
    17  H    0.003672   0.000547  -0.000073  -0.000011  -0.000130   0.001326
    18  H   -0.014308   0.002279   0.000803  -0.000058   0.000088  -0.000438
    19  H    0.005085   0.000540  -0.000024   0.000002   0.000013  -0.000299
    20  H   -0.077834   0.455645  -0.063787   0.015579  -0.002606   0.016614
    21  H    0.015389  -0.066162   0.451081  -0.070658   0.014121  -0.002013
    22  H   -0.001536   0.014624  -0.069763   0.452838  -0.069710   0.014833
    23  H    0.015286  -0.002062   0.014258  -0.072097   0.453641  -0.067074
    24  H   -0.068425   0.015822  -0.002410   0.014774  -0.069365   0.459973
    25  H   -0.000302   0.000007  -0.000000   0.000000  -0.000000  -0.000000
    26  H    0.000008  -0.000000   0.000000   0.000000  -0.000000  -0.000002
    27  H    0.000002   0.000000  -0.000000   0.000000  -0.000000   0.000000
              13         14         15         16         17         18
     1  Cl   0.000396   0.004184  -0.055907   0.002605  -0.000000  -0.000000
     2  C   -0.186454   0.137757   0.253160  -0.073067   0.000043  -0.000010
     3  C    0.080637  -0.159916   0.103532   0.450325  -0.000687   0.000200
     4  C    0.238495   0.137372  -0.172755  -0.056105  -0.002638   0.004897
     5  N   -0.085865   0.009219  -0.000973  -0.013896  -0.040664  -0.023186
     6  C   -0.001368   0.000187   0.000074   0.000005   0.408772   0.401742
     7  C    0.006110  -0.000206   0.000055   0.005152   0.003672  -0.014308
     8  C   -0.000419   0.000001   0.000001  -0.000842   0.000547   0.002279
     9  C   -0.000002  -0.000000  -0.000000   0.000020  -0.000073   0.000803
    10  C    0.000002  -0.000000   0.000000   0.000010  -0.000011  -0.000058
    11  C   -0.000092   0.000006  -0.000006  -0.000454  -0.000130   0.000088
    12  C    0.000631   0.000056   0.000026   0.002763   0.001326  -0.000438
    13  C    5.244632   0.232442   0.107768   0.016405   0.001944   0.000496
    14  C    0.232442   5.077696   0.247547  -0.002769   0.000016  -0.000006
    15  C    0.107768   0.247547   5.110298   0.015684  -0.000010   0.000002
    16  H    0.016405  -0.002769   0.015684   0.642671  -0.000012  -0.000005
    17  H    0.001944   0.000016  -0.000010  -0.000012   0.650684  -0.034006
    18  H    0.000496  -0.000006   0.000002  -0.000005  -0.034006   0.626882
    19  H    0.004303   0.001393  -0.000144  -0.000023  -0.029639  -0.012313
    20  H    0.000003  -0.000000   0.000000  -0.000007   0.000314  -0.001483
    21  H   -0.000000   0.000000   0.000000  -0.000003  -0.000006   0.000060
    22  H    0.000000   0.000000  -0.000000   0.000000  -0.000000   0.000000
    23  H    0.000001  -0.000000  -0.000000   0.000027   0.000001  -0.000000
    24  H   -0.000712   0.000079  -0.000004  -0.002641   0.000097  -0.000038
    25  H    0.457741  -0.070756   0.015315  -0.000169  -0.000304   0.000089
    26  H   -0.067711   0.452920  -0.068406   0.000021   0.000006  -0.000001
    27  H    0.014649  -0.062677   0.448576  -0.000282   0.000000  -0.000000
              19         20         21         22         23         24
     1  Cl   0.000000  -0.000000  -0.000000  -0.000000  -0.000000   0.000106
     2  C   -0.000055   0.000001  -0.000000  -0.000000   0.000003  -0.001014
     3  C    0.000271  -0.000033  -0.000001  -0.000000   0.000056   0.001529
     4  C   -0.009160  -0.000179   0.000007   0.000001  -0.000023   0.005827
     5  N   -0.016596  -0.011396  -0.000117   0.000010  -0.000125  -0.014727
     6  C    0.398198  -0.000004  -0.000012  -0.000000   0.000006  -0.000175
     7  C    0.005085  -0.077834   0.015389  -0.001536   0.015286  -0.068425
     8  C    0.000540   0.455645  -0.066162   0.014624  -0.002062   0.015822
     9  C   -0.000024  -0.063787   0.451081  -0.069763   0.014258  -0.002410
    10  C    0.000002   0.015579  -0.070658   0.452838  -0.072097   0.014774
    11  C    0.000013  -0.002606   0.014121  -0.069710   0.453641  -0.069365
    12  C   -0.000299   0.016614  -0.002013   0.014833  -0.067074   0.459973
    13  C    0.004303   0.000003  -0.000000   0.000000   0.000001  -0.000712
    14  C    0.001393  -0.000000   0.000000   0.000000  -0.000000   0.000079
    15  C   -0.000144   0.000000   0.000000  -0.000000  -0.000000  -0.000004
    16  H   -0.000023  -0.000007  -0.000003   0.000000   0.000027  -0.002641
    17  H   -0.029639   0.000314  -0.000006  -0.000000   0.000001   0.000097
    18  H   -0.012313  -0.001483   0.000060   0.000000  -0.000000  -0.000038
    19  H    0.608743  -0.000241  -0.000000   0.000000  -0.000000  -0.000018
    20  H   -0.000241   0.692666  -0.013953  -0.000253   0.000024  -0.000172
    21  H   -0.000000  -0.013953   0.673421  -0.012272  -0.000265   0.000019
    22  H    0.000000  -0.000253  -0.012272   0.674641  -0.012292  -0.000233
    23  H   -0.000000   0.000024  -0.000265  -0.012292   0.669666  -0.012692
    24  H   -0.000018  -0.000172   0.000019  -0.000233  -0.012692   0.654264
    25  H   -0.000954  -0.000002  -0.000000   0.000000  -0.000000  -0.000013
    26  H    0.000020  -0.000000  -0.000000   0.000000   0.000000  -0.000003
    27  H   -0.000001   0.000000   0.000000  -0.000000   0.000000  -0.000001
              25         26         27
     1  Cl   0.000009  -0.000122   0.000888
     2  C   -0.002426   0.015009  -0.072089
     3  C    0.016816  -0.002212   0.016372
     4  C   -0.071948   0.014734  -0.001935
     5  N   -0.014155  -0.000122   0.000008
     6  C    0.007103  -0.000020   0.000000
     7  C   -0.000302   0.000008   0.000002
     8  C    0.000007  -0.000000   0.000000
     9  C   -0.000000   0.000000  -0.000000
    10  C    0.000000   0.000000   0.000000
    11  C   -0.000000  -0.000000  -0.000000
    12  C   -0.000000  -0.000002   0.000000
    13  C    0.457741  -0.067711   0.014649
    14  C   -0.070756   0.452920  -0.062677
    15  C    0.015315  -0.068406   0.448576
    16  H   -0.000169   0.000021  -0.000282
    17  H   -0.000304   0.000006   0.000000
    18  H    0.000089  -0.000001  -0.000000
    19  H   -0.000954   0.000020  -0.000001
    20  H   -0.000002  -0.000000   0.000000
    21  H   -0.000000  -0.000000   0.000000
    22  H    0.000000   0.000000  -0.000000
    23  H   -0.000000   0.000000   0.000000
    24  H   -0.000013  -0.000003  -0.000001
    25  H    0.677879  -0.012749  -0.000210
    26  H   -0.012749   0.662405  -0.012439
    27  H   -0.000210  -0.012439   0.662933
 Mulliken charges:
               1
     1  Cl  -0.097827
     2  C    0.036237
     3  C   -0.043413
     4  C    0.185103
     5  N   -0.367194
     6  C    0.103616
     7  C    0.192866
     8  C   -0.073780
     9  C   -0.006311
    10  C   -0.012403
    11  C   -0.005746
    12  C   -0.062589
    13  C   -0.064032
    14  C   -0.004546
    15  C   -0.003832
    16  H    0.014589
    17  H    0.040758
    18  H    0.048314
    19  H    0.050900
    20  H   -0.008899
    21  H    0.011364
    22  H    0.009112
    23  H    0.013664
    24  H    0.020153
    25  H   -0.000971
    26  H    0.018664
    27  H    0.006206
 Sum of Mulliken charges =  -0.00000
 Mulliken charges with hydrogens summed into heavy atoms:
               1
     1  Cl  -0.097827
     2  C    0.036237
     3  C   -0.028825
     4  C    0.185103
     5  N   -0.367194
     6  C    0.243588
     7  C    0.192866
     8  C   -0.082679
     9  C    0.005054
    10  C   -0.003291
    11  C    0.007918
    12  C   -0.042436
    13  C   -0.065003
    14  C    0.014118
    15  C    0.002373
 Electronic spatial extent (au):  <R**2>=           4019.2316
 Charge=             -0.0000 electrons
 Dipole moment (field-independent basis, Debye):
    X=             -1.0404    Y=              2.2049    Z=              0.1987  Tot=              2.4461
 Quadrupole moment (field-independent basis, Debye-Ang):
   XX=            -90.8354   YY=            -87.7634   ZZ=            -95.1341
   XY=              3.9162   XZ=              5.0304   YZ=             -2.2830
 Traceless Quadrupole moment (field-independent basis, Debye-Ang):
   XX=              0.4089   YY=              3.4809   ZZ=             -3.8898
   XY=              3.9162   XZ=              5.0304   YZ=             -2.2830
 Octapole moment (field-independent basis, Debye-Ang**2):
  XXX=              6.4013  YYY=             12.2234  ZZZ=             -5.3834  XYY=             -4.5882
  XXY=              2.2075  XXZ=             -4.0857  XZZ=              0.1244  YZZ=             -2.9033
  YYZ=              4.1935  XYZ=             12.2353
 Hexadecapole moment (field-independent basis, Debye-Ang**3):
 XXXX=          -3554.6814 YYYY=          -1311.7021 ZZZZ=           -339.1222 XXXY=             55.4754
 XXXZ=             97.0738 YYYX=            -24.9429 YYYZ=             -1.4816 ZZZX=             -3.1144
 ZZZY=             -6.1770 XXYY=           -818.7750 XXZZ=           -683.3264 YYZZ=           -272.4818
 XXYZ=             -5.4441 YYXZ=             -1.2421 ZZXY=            -12.9918
 N-N= 1.007223876681D+03 E-N=-4.396858507974D+03  KE= 1.010068693252D+03
   1 Symmetry operations used in ECPInt.
 ECPInt:  NShTT=    8256 NPrTT=   30622 LenC2=    7795 LenP2D=   21047.
 LDataN:  DoStor=T MaxTD1= 5 Len=  102
 Calling FoFJK, ICntrl=      2127 FMM=F ISym2X=0 I1Cent= 0 IOpClX= 0 NMat=1 NMatS=1 NMatT=0.
 ***** Axes restored to original set *****
 -------------------------------------------------------------------
 Center     Atomic                   Forces (Hartrees/Bohr)
 Number     Number              X              Y              Z
 -------------------------------------------------------------------
      1       17          -0.002421388   -0.005131281    0.001788052
      2        6           0.002571846    0.004994532   -0.002738112
      3        6           0.001540398   -0.004306253    0.004389381
      4        6           0.023991263    0.005405790   -0.000404735
      5        7          -0.008676351   -0.005114676    0.003740799
      6        6          -0.004026058   -0.017814470   -0.006870743
      7        6          -0.017331052    0.013802061    0.002778389
      8        6          -0.008208857    0.006551287    0.001470882
      9        6           0.002099629   -0.002307708   -0.002044768
     10        6           0.006258589   -0.004972915   -0.000152900
     11        6           0.000466418   -0.001482740    0.000862431
     12        6          -0.003718196    0.005376152   -0.001653627
     13        6           0.009375251    0.001656338    0.000842567
     14        6           0.001576107   -0.002264764    0.003366644
     15        6          -0.009739744   -0.005633412    0.000021264
     16        1           0.007074818   -0.007881868    0.005034100
     17        1           0.004698610    0.008247014   -0.006882860
     18        1           0.005235046    0.000499417    0.005356930
     19        1          -0.005082001    0.001491154    0.002623870
     20        1           0.002977074    0.008127912    0.007807659
     21        1           0.008481771    0.000948604    0.005891884
     22        1           0.007362083   -0.007216599   -0.001480004
     23        1          -0.002230010   -0.006992861   -0.007334468
     24        1          -0.008695529   -0.001225053   -0.006613059
     25        1           0.002909880    0.010299108   -0.003791182
     26        1          -0.006169045    0.006704171   -0.004202483
     27        1          -0.010320551   -0.001758939   -0.001805909
 -------------------------------------------------------------------
 Cartesian Forces:  Max     0.023991263 RMS     0.006553997

 GradGradGradGradGradGradGradGradGradGradGradGradGradGradGradGradGradGrad
 Berny optimization.
 FormGI is forming the generalized inverse of G from B-inverse, IUseBI=4.
 Internal  Forces:  Max     0.020532739 RMS     0.005553544
 Search for a local minimum.
 Step number   1 out of a maximum of  145
 All quantities printed in internal units (Hartrees-Bohrs-Radians)
 Mixed Optimization -- RFO/linear search
 Second derivative matrix not updated -- first step.
 ITU=  0
     Eigenvalues ---    0.00857   0.01135   0.01295   0.01306   0.01893
     Eigenvalues ---    0.01900   0.02182   0.02182   0.02245   0.02263
     Eigenvalues ---    0.02270   0.02286   0.02302   0.02309   0.02327
     Eigenvalues ---    0.02336   0.02339   0.02343   0.02359   0.02359
     Eigenvalues ---    0.02370   0.02378   0.07352   0.07426   0.15994
     Eigenvalues ---    0.15994   0.15998   0.15999   0.16000   0.16000
     Eigenvalues ---    0.16000   0.16000   0.16000   0.16000   0.16000
     Eigenvalues ---    0.16000   0.22000   0.22000   0.22000   0.23465
     Eigenvalues ---    0.23466   0.23491   0.24878   0.24915   0.24999
     Eigenvalues ---    0.25000   0.25000   0.32638   0.35017   0.35028
     Eigenvalues ---    0.35189   0.36261   0.36266   0.36275   0.36282
     Eigenvalues ---    0.36407   0.36496   0.36537   0.36580   0.36619
     Eigenvalues ---    0.36672   0.40987   0.41107   0.43018   0.43061
     Eigenvalues ---    0.43738   0.43756   0.47024   0.47321   0.47815
     Eigenvalues ---    0.47972   0.48883   0.49144   0.49152   0.49733
 RFO step:  Lambda=-1.10605128D-02 EMin= 8.57227236D-03
 Linear search not attempted -- first point.
 Iteration  1 RMS(Cart)=  0.06292298 RMS(Int)=  0.00083837
 Iteration  2 RMS(Cart)=  0.00161982 RMS(Int)=  0.00010452
 Iteration  3 RMS(Cart)=  0.00000208 RMS(Int)=  0.00010451
 Iteration  4 RMS(Cart)=  0.00000000 RMS(Int)=  0.00010451
 Variable       Old X    -DE/DX   Delta X   Delta X   Delta X     New X
                                 (Linear)    (Quad)   (Total)
    R1        3.26692   0.00593   0.00000   0.01757   0.01757   3.28450
    R2        2.60781   0.01095   0.00000   0.02190   0.02190   2.62971
    R3        2.61872   0.00958   0.00000   0.01979   0.01979   2.63851
    R4        2.63040   0.01160   0.00000   0.02391   0.02392   2.65432
    R5        2.03043   0.01172   0.00000   0.03103   0.03103   2.06146
    R6        2.70076  -0.02053   0.00000  -0.04864  -0.04864   2.65212
    R7        2.63995   0.00633   0.00000   0.01309   0.01308   2.65303
    R8        2.76484  -0.00802   0.00000  -0.02128  -0.02128   2.74356
    R9        2.70234  -0.01616   0.00000  -0.03839  -0.03839   2.66395
   R10        2.05648   0.01090   0.00000   0.03016   0.03016   2.08664
   R11        2.05370   0.00750   0.00000   0.02068   0.02068   2.07437
   R12        2.05629   0.00564   0.00000   0.01561   0.01561   2.07190
   R13        2.63656   0.00787   0.00000   0.01604   0.01604   2.65260
   R14        2.63623   0.01063   0.00000   0.02194   0.02194   2.65817
   R15        2.60222   0.01636   0.00000   0.03215   0.03215   2.63437
   R16        2.03124   0.01159   0.00000   0.03072   0.03072   2.06196
   R17        2.60953   0.01243   0.00000   0.02523   0.02523   2.63476
   R18        2.03675   0.01033   0.00000   0.02764   0.02764   2.06440
   R19        2.60900   0.01427   0.00000   0.02899   0.02899   2.63799
   R20        2.03654   0.01041   0.00000   0.02786   0.02786   2.06440
   R21        2.60059   0.01537   0.00000   0.03028   0.03027   2.63086
   R22        2.03667   0.01034   0.00000   0.02766   0.02766   2.06433
   R23        2.03313   0.01090   0.00000   0.02899   0.02899   2.06212
   R24        2.60685   0.01389   0.00000   0.02752   0.02751   2.63436
   R25        2.03250   0.01129   0.00000   0.02999   0.02999   2.06249
   R26        2.60716   0.01183   0.00000   0.02372   0.02372   2.63088
   R27        2.03642   0.01003   0.00000   0.02683   0.02683   2.06326
   R28        2.03450   0.01059   0.00000   0.02822   0.02822   2.06273
    A1        2.08801  -0.00219   0.00000  -0.00906  -0.00911   2.07890
    A2        2.09985  -0.00332   0.00000  -0.01339  -0.01343   2.08641
    A3        2.09533   0.00551   0.00000   0.02246   0.02243   2.11776
    A4        2.11044  -0.00346   0.00000  -0.01453  -0.01450   2.09593
    A5        2.08118   0.00178   0.00000   0.00757   0.00756   2.08874
    A6        2.09151   0.00168   0.00000   0.00697   0.00696   2.09847
    A7        2.09582   0.00171   0.00000   0.00670   0.00653   2.10235
    A8        2.06351   0.00240   0.00000   0.00881   0.00866   2.07217
    A9        2.12385  -0.00411   0.00000  -0.01561  -0.01575   2.10810
   A10        2.07111   0.00064   0.00000   0.00198   0.00193   2.07304
   A11        2.12155   0.00185   0.00000   0.00660   0.00655   2.12809
   A12        2.08562  -0.00253   0.00000  -0.01019  -0.01023   2.07539
   A13        1.91803   0.00716   0.00000   0.04674   0.04672   1.96475
   A14        1.93945  -0.00071   0.00000  -0.00630  -0.00655   1.93290
   A15        1.92766  -0.00354   0.00000  -0.02347  -0.02355   1.90411
   A16        1.89920  -0.00230   0.00000  -0.00820  -0.00838   1.89082
   A17        1.90160  -0.00099   0.00000  -0.00164  -0.00149   1.90011
   A18        1.87696   0.00020   0.00000  -0.00821  -0.00852   1.86844
   A19        2.12622  -0.00556   0.00000  -0.02056  -0.02065   2.10558
   A20        2.09613   0.00377   0.00000   0.01520   0.01508   2.11122
   A21        2.06079   0.00179   0.00000   0.00514   0.00502   2.06581
   A22        2.10793  -0.00045   0.00000  -0.00305  -0.00307   2.10486
   A23        2.08714   0.00134   0.00000   0.00817   0.00816   2.09529
   A24        2.08776  -0.00089   0.00000  -0.00487  -0.00489   2.08287
   A25        2.09878   0.00170   0.00000   0.00810   0.00811   2.10689
   A26        2.09277  -0.00176   0.00000  -0.00938  -0.00939   2.08338
   A27        2.09163   0.00006   0.00000   0.00126   0.00126   2.09288
   A28        2.09125  -0.00369   0.00000  -0.01392  -0.01392   2.07732
   A29        2.09607   0.00173   0.00000   0.00631   0.00630   2.10237
   A30        2.09586   0.00196   0.00000   0.00762   0.00761   2.10347
   A31        2.09553   0.00198   0.00000   0.00996   0.00992   2.10545
   A32        2.09385  -0.00011   0.00000   0.00015   0.00013   2.09397
   A33        2.09381  -0.00187   0.00000  -0.01012  -0.01014   2.08367
   A34        2.11209  -0.00133   0.00000  -0.00628  -0.00630   2.10579
   A35        2.07411   0.00211   0.00000   0.01161   0.01161   2.08572
   A36        2.09687  -0.00077   0.00000  -0.00525  -0.00525   2.09163
   A37        2.10833  -0.00195   0.00000  -0.00857  -0.00859   2.09974
   A38        2.08071   0.00221   0.00000   0.01157   0.01157   2.09228
   A39        2.09383  -0.00025   0.00000  -0.00280  -0.00281   2.09101
   A40        2.09826   0.00342   0.00000   0.01569   0.01566   2.11392
   A41        2.09325  -0.00167   0.00000  -0.00766  -0.00767   2.08558
   A42        2.09167  -0.00174   0.00000  -0.00807  -0.00808   2.08358
   A43        2.09050  -0.00592   0.00000  -0.02385  -0.02385   2.06666
   A44        2.07946   0.00383   0.00000   0.01702   0.01701   2.09647
   A45        2.11322   0.00209   0.00000   0.00684   0.00683   2.12006
    D1        3.14028  -0.00001   0.00000  -0.00058  -0.00048   3.13980
    D2       -0.01291   0.00004   0.00000   0.00108   0.00106  -0.01185
    D3       -0.00039  -0.00057   0.00000  -0.01737  -0.01738  -0.01777
    D4        3.12961  -0.00052   0.00000  -0.01571  -0.01585   3.11376
    D5       -3.13976  -0.00049   0.00000  -0.01477  -0.01471   3.12871
    D6        0.00037  -0.00036   0.00000  -0.01059  -0.01056  -0.01019
    D7        0.00090   0.00008   0.00000   0.00214   0.00226   0.00316
    D8        3.14103   0.00021   0.00000   0.00632   0.00642  -3.13574
    D9        3.13819  -0.00043   0.00000  -0.01487  -0.01525   3.12294
   D10        0.00012   0.00054   0.00000   0.01720   0.01715   0.01727
   D11        0.00825  -0.00048   0.00000  -0.01655  -0.01679  -0.00854
   D12       -3.12982   0.00048   0.00000   0.01552   0.01560  -3.11421
   D13       -2.60127   0.00114   0.00000   0.04589   0.04577  -2.55550
   D14        0.64719   0.00170   0.00000   0.06407   0.06405   0.71124
   D15        0.53667   0.00015   0.00000   0.01274   0.01275   0.54943
   D16       -2.49806   0.00071   0.00000   0.03092   0.03104  -2.46702
   D17       -0.00036  -0.00002   0.00000  -0.00213  -0.00230  -0.00266
   D18       -3.11463  -0.00030   0.00000  -0.01051  -0.01062  -3.12525
   D19       -3.13837   0.00095   0.00000   0.03043   0.03016  -3.10821
   D20        0.03055   0.00068   0.00000   0.02205   0.02184   0.05239
   D21       -1.74252   0.00036   0.00000   0.01596   0.01605  -1.72647
   D22        2.43757  -0.00103   0.00000  -0.00060  -0.00058   2.43699
   D23        0.35599   0.00148   0.00000   0.02902   0.02880   0.38480
   D24        1.29446   0.00008   0.00000  -0.00081  -0.00065   1.29381
   D25       -0.80863  -0.00132   0.00000  -0.01737  -0.01728  -0.82591
   D26       -2.89021   0.00119   0.00000   0.01225   0.01210  -2.87811
   D27       -2.62679   0.00045   0.00000   0.02104   0.02108  -2.60571
   D28        0.52452   0.00127   0.00000   0.04882   0.04879   0.57331
   D29        0.62253   0.00082   0.00000   0.03863   0.03866   0.66119
   D30       -2.50934   0.00165   0.00000   0.06641   0.06637  -2.44297
   D31       -3.13559   0.00049   0.00000   0.01649   0.01620  -3.11940
   D32        0.03507   0.00016   0.00000   0.00663   0.00636   0.04144
   D33       -0.00353  -0.00031   0.00000  -0.01069  -0.01075  -0.01428
   D34       -3.11605  -0.00064   0.00000  -0.02054  -0.02058  -3.13663
   D35        3.13530  -0.00015   0.00000  -0.00532  -0.00566   3.12964
   D36        0.01005  -0.00033   0.00000  -0.01119  -0.01148  -0.00142
   D37        0.00307   0.00069   0.00000   0.02157   0.02158   0.02464
   D38       -3.12218   0.00051   0.00000   0.01570   0.01576  -3.10642
   D39        0.00212  -0.00020   0.00000  -0.00506  -0.00514  -0.00302
   D40       -3.13528  -0.00004   0.00000  -0.00043  -0.00045  -3.13573
   D41        3.11463   0.00016   0.00000   0.00502   0.00483   3.11947
   D42       -0.02277   0.00033   0.00000   0.00965   0.00953  -0.01324
   D43       -0.00015   0.00034   0.00000   0.01034   0.01036   0.01021
   D44       -3.14107   0.00011   0.00000   0.00306   0.00310  -3.13797
   D45        3.13726   0.00017   0.00000   0.00569   0.00561  -3.14032
   D46       -0.00366  -0.00006   0.00000  -0.00159  -0.00165  -0.00531
   D47       -0.00032   0.00003   0.00000   0.00045   0.00051   0.00019
   D48        3.13954  -0.00041   0.00000  -0.01247  -0.01251   3.12703
   D49        3.14060   0.00027   0.00000   0.00773   0.00777  -3.13481
   D50       -0.00273  -0.00018   0.00000  -0.00519  -0.00525  -0.00797
   D51       -0.00118  -0.00055   0.00000  -0.01668  -0.01669  -0.01788
   D52        3.12385  -0.00035   0.00000  -0.01058  -0.01070   3.11315
   D53       -3.14105  -0.00012   0.00000  -0.00377  -0.00376   3.13838
   D54       -0.01601   0.00009   0.00000   0.00234   0.00224  -0.01377
   D55        0.00088  -0.00046   0.00000  -0.01279  -0.01289  -0.01201
   D56       -3.13715  -0.00005   0.00000  -0.00098  -0.00095  -3.13810
   D57        3.11494  -0.00014   0.00000  -0.00413  -0.00435   3.11059
   D58       -0.02309   0.00027   0.00000   0.00768   0.00759  -0.01550
   D59       -0.00114   0.00043   0.00000   0.01281   0.01288   0.01174
   D60       -3.14124   0.00030   0.00000   0.00854   0.00867  -3.13258
   D61        3.13689   0.00002   0.00000   0.00102   0.00096   3.13785
   D62       -0.00321  -0.00011   0.00000  -0.00325  -0.00326  -0.00647
         Item               Value     Threshold  Converged?
 Maximum Force            0.020533     0.000450     NO 
 RMS     Force            0.005554     0.000300     NO 
 Maximum Displacement     0.233443     0.001800     NO 
 RMS     Displacement     0.063798     0.001200     NO 
 Predicted change in Energy=-5.820159D-03
 GradGradGradGradGradGradGradGradGradGradGradGradGradGradGradGradGradGrad

                          Input orientation:                          
 ---------------------------------------------------------------------
 Center     Atomic      Atomic             Coordinates (Angstroms)
 Number     Number       Type             X           Y           Z
 ---------------------------------------------------------------------
      1         17           0       -3.063561   -1.975526    0.773853
      2          6           0       -2.423289   -0.451671    0.236410
      3          6           0       -1.068764   -0.186196    0.413296
      4          6           0       -0.529243    1.037780   -0.015321
      5          7           0        0.831118    1.322668    0.179370
      6          6           0        1.227442    2.694715    0.440563
      7          6           0        1.832170    0.349744   -0.017034
      8          6           0        3.017624    0.381299    0.734007
      9          6           0        4.018238   -0.565611    0.520690
     10          6           0        3.860638   -1.564312   -0.439368
     11          6           0        2.688212   -1.597062   -1.196371
     12          6           0        1.689186   -0.647894   -0.998321
     13          6           0       -1.385015    1.984365   -0.600663
     14          6           0       -2.742500    1.706212   -0.753065
     15          6           0       -3.277408    0.487289   -0.345238
     16          1           0       -0.431147   -0.929080    0.894530
     17          1           0        1.602960    3.206705   -0.462828
     18          1           0        2.009474    2.733831    1.209890
     19          1           0        0.365405    3.249188    0.829860
     20          1           0        3.155664    1.140483    1.505486
     21          1           0        4.930418   -0.525568    1.120466
     22          1           0        4.646074   -2.306254   -0.600683
     23          1           0        2.554252   -2.364468   -1.962189
     24          1           0        0.789536   -0.669583   -1.615518
     25          1           0       -0.983068    2.935450   -0.954333
     26          1           0       -3.395434    2.450651   -1.213038
     27          1           0       -4.337833    0.260234   -0.469428
 ---------------------------------------------------------------------
                    Distance matrix (angstroms):
                    1          2          3          4          5
     1  Cl   0.000000
     2  C    1.738081   0.000000
     3  C    2.703871   1.391583   0.000000
     4  C    4.015667   2.422653   1.404605   0.000000
     5  N    5.138095   3.707115   2.437405   1.403441   0.000000
     6  C    6.350980   4.823822   3.684149   2.457479   1.451829
     7  C    5.477277   4.337676   2.981247   2.459607   1.409702
     8  C    6.522041   5.526751   4.138051   3.684117   2.444300
     9  C    7.225222   6.448803   5.102262   4.851572   3.720192
    10  C    7.041700   6.417350   5.188953   5.120717   4.230304
    11  C    6.091627   5.430675   4.323938   4.323111   3.723746
    12  C    5.243263   4.298315   3.132429   2.954524   2.450786
    13  C    4.515257   2.777225   2.416499   1.403922   2.440808
    14  C    3.998718   2.395290   2.782624   2.426845   3.713124
    15  C    2.713587   1.396238   2.430445   2.822109   4.225288
    16  H    2.835352   2.151668   1.090880   2.169330   2.678645
    17  H    7.082466   5.484828   4.406528   3.074213   2.134890
    18  H    6.935694   5.544770   4.317021   3.289804   2.107576
    19  H    6.249686   4.671761   3.745962   2.530819   2.086026
    20  H    6.994539   5.938875   4.560565   3.987724   2.682404
    21  H    8.131803   7.407025   6.050244   5.791542   4.594115
    22  H    7.838189   7.356364   6.179172   6.189436   5.322729
    23  H    6.260753   5.767889   4.849128   4.987336   4.598960
    24  H    4.718150   3.714750   2.793390   2.686056   2.681868
    25  H    5.606493   3.868423   3.409169   2.165376   2.679108
    26  H    4.863015   3.386656   3.874445   3.412592   4.590740
    27  H    2.857995   2.161133   3.415452   3.913585   5.316743
                    6          7          8          9         10
     6  C    0.000000
     7  C    2.464545   0.000000
     8  C    2.939856   1.403695   0.000000
     9  C    4.292399   2.430209   1.394048   0.000000
    10  C    5.084025   2.820755   2.423403   1.394257   0.000000
    11  C    4.820037   2.431810   2.783664   2.404404   1.395962
    12  C    3.668328   1.406645   2.413493   2.781843   2.422283
    13  C    2.900635   3.655529   4.871796   6.079059   6.335298
    14  C    4.261728   4.827976   6.094736   7.245081   7.375375
    15  C    5.077783   5.121955   6.387756   7.421918   7.427626
    16  H    4.011097   2.754804   3.692815   4.479831   4.538967
    17  H    1.104203   2.900603   3.378847   4.585983   5.278282
    18  H    1.097711   2.687127   2.603312   3.923830   4.961944
    19  H    1.096402   3.357886   3.907459   5.290695   6.082546
    20  H    2.695875   2.166789   1.091144   2.150491   3.405196
    21  H    4.954243   3.414560   2.151869   1.092432   2.157892
    22  H    6.146620   3.913186   3.414116   2.163676   1.092433
    23  H    5.755777   3.416427   3.876005   3.397621   2.160064
    24  H    3.967081   2.163623   3.404262   3.872817   3.408157
    25  H    2.624889   3.935730   5.037829   6.280620   6.631330
    26  H    4.915786   5.759521   7.014308   8.189394   8.328810
    27  H    6.142236   6.187213   7.454237   8.454955   8.399095
                   11         12         13         14         15
    11  C    0.000000
    12  C    1.392192   0.000000
    13  C    5.456434   4.066649   0.000000
    14  C    6.371874   5.024122   1.394045   0.000000
    15  C    6.376329   5.136361   2.426443   1.392200   0.000000
    16  H    3.814246   2.856180   3.410812   3.873202   3.412379
    17  H    4.979161   3.892573   3.231271   4.606381   5.588116
    18  H    5.000741   4.051524   3.919485   5.243134   5.951176
    19  H    5.743447   4.503541   2.590394   3.813856   4.720066
    20  H    3.874623   3.408505   5.076000   6.341092   6.725791
    21  H    3.397546   3.874249   7.010474   8.207596   8.398963
    22  H    2.165876   3.413424   7.401584   8.409169   8.405397
    23  H    1.092397   2.150350   6.023614   6.788814   6.689941
    24  H    2.154269   1.091225   3.577995   4.343213   4.414974
    25  H    5.837855   4.470261   1.091424   2.155722   3.410056
    26  H    7.307189   5.958225   2.152722   1.091828   2.149836
    27  H    7.303650   6.117955   3.421839   2.171724   1.091549
                   16         17         18         19         20
    16  H    0.000000
    17  H    4.804658   0.000000
    18  H    4.412822   1.785175   0.000000
    19  H    4.254010   1.790081   1.764364   0.000000
    20  H    4.185878   3.248758   1.984914   3.562113   0.000000
    21  H    5.381473   5.244870   4.377624   5.930647   2.464492
    22  H    5.469044   6.298592   5.969278   7.157759   4.305493
    23  H    4.374219   5.847308   6.029221   6.640761   4.967006
    24  H    2.803168   4.125041   4.588508   4.638590   4.314577
    25  H    4.319434   2.646261   3.698624   2.258352   5.138261
    26  H    4.965021   5.110615   5.929908   4.353735   7.212753
    27  H    4.305467   6.631346   7.016202   5.722101   7.799207
                   21         22         23         24         25
    21  H    0.000000
    22  H    2.492799   0.000000
    23  H    4.304704   2.496558   0.000000
    24  H    4.965204   4.310623   2.471242   0.000000
    25  H    7.159103   7.699855   6.451166   4.071309   0.000000
    26  H    9.144558   9.363171   7.690602   5.235630   2.474161
    27  H    9.436404   9.344232   7.524509   5.335540   4.318143
                   26         27
    26  H    0.000000
    27  H    2.497798   0.000000
 Stoichiometry    C13H12ClN
 Framework group  C1[X(C13H12ClN)]
 Deg. of freedom    75
 Full point group                 C1      NOp   1
 Largest Abelian subgroup         C1      NOp   1
 Largest concise Abelian subgroup C1      NOp   1
                         Standard orientation:                         
 ---------------------------------------------------------------------
 Center     Atomic      Atomic             Coordinates (Angstroms)
 Number     Number       Type             X           Y           Z
 ---------------------------------------------------------------------
      1         17           0        3.109550   -2.106081   -0.580934
      2          6           0        2.475038   -0.551823   -0.130821
      3          6           0        1.130600   -0.276707   -0.361696
      4          6           0        0.595815    0.971885   -0.004015
      5          7           0       -0.753624    1.265687   -0.253698
      6          6           0       -1.121838    2.629978   -0.586768
      7          6           0       -1.774209    0.315510   -0.046741
      8          6           0       -2.935305    0.329486   -0.835424
      9          6           0       -3.955599   -0.593966   -0.612698
     10          6           0       -3.842180   -1.551442    0.394441
     11          6           0       -2.694307   -1.566180    1.188719
     12          6           0       -1.676038   -0.639780    0.981089
     13          6           0        1.446663    1.932038    0.566213
     14          6           0        2.794632    1.643141    0.773285
     15          6           0        3.324237    0.400572    0.435997
     16          1           0        0.497504   -1.031645   -0.829966
     17          1           0       -1.517668    3.186076    0.281183
     18          1           0       -1.879073    2.645431   -1.381327
     19          1           0       -0.240267    3.155476   -0.972491
     20          1           0       -3.038461    1.055738   -1.643207
     21          1           0       -4.848133   -0.568428   -1.242092
     22          1           0       -4.642856   -2.275242    0.563093
     23          1           0       -2.595172   -2.300840    1.991077
     24          1           0       -0.796301   -0.646053    1.626686
     25          1           0        1.047748    2.902932    0.865277
     26          1           0        3.443716    2.398497    1.220738
     27          1           0        4.376929    0.165361    0.603312
 ---------------------------------------------------------------------
 Rotational constants (GHZ):           0.8832924           0.3312586           0.2641857
 Standard basis: def2SVP (5D, 7F)
 There are   289 symmetry adapted cartesian basis functions of A   symmetry.
 There are   274 symmetry adapted basis functions of A   symmetry.
   274 basis functions,   471 primitive gaussians,   289 cartesian basis functions
    57 alpha electrons       57 beta electrons
       nuclear repulsion energy      1002.5836009783 Hartrees.
 NAtoms=   27 NActive=   27 NUniq=   27 SFac= 1.00D+00 NAtFMM=   60 NAOKFM=F Big=F
 Integral buffers will be    131072 words long.
 Raffenetti 2 integral format.
 Two-electron integral symmetry is turned on.
 Nuclear repulsion after empirical dispersion term =     1002.5657359412 Hartrees.
 One-electron integrals computed using PRISM.
   1 Symmetry operations used in ECPInt.
 ECPInt:  NShTT=    8256 NPrTT=   30622 LenC2=    7789 LenP2D=   20986.
 LDataN:  DoStor=T MaxTD1= 4 Len=   56
 NBasis=   274 RedAO= T EigKep=  2.55D-04  NBF=   274
 NBsUse=   274 1.00D-06 EigRej= -1.00D+00 NBFU=   274
 Initial guess from the checkpoint file:  "prod_5f_6.chk"
 B after Tr=     0.000000   -0.000000    0.000000
         Rot=    0.999979    0.004990    0.004039   -0.001016 Ang=   0.74 deg.
 ExpMin= 1.22D-01 ExpMax= 1.04D+04 ExpMxC= 1.57D+03 IAcc=3 IRadAn=         5 AccDes= 0.00D+00
 Harris functional with IExCor= 4639 and IRadAn=       5 diagonalized for initial guess.
 HarFok:  IExCor= 4639 AccDes= 0.00D+00 IRadAn=         5 IDoV= 1 UseB2=F ITyADJ=14
 ICtDFT=  3500011 ScaDFX=  1.000000  1.000000  1.000000  1.000000
 FoFCou: FMM=F IPFlag=           0 FMFlag=      100000 FMFlg1=           0
         NFxFlg=           0 DoJE=T BraDBF=F KetDBF=T FulRan=T
         wScrn=  0.000000 ICntrl=       500 IOpCl=  0 I1Cent=   200000004 NGrid=           0
         NMat0=    1 NMatS0=      1 NMatT0=    0 NMatD0=    1 NMtDS0=    0 NMtDT0=    0
 Petite list used in FoFCou.
 Requested convergence on RMS density matrix=1.00D-08 within 128 cycles.
 Requested convergence on MAX density matrix=1.00D-06.
 Requested convergence on             energy=1.00D-06.
 No special actions if energy rises.
 Integral accuracy reduced to 1.0D-05 until final iterations.
 Initial convergence to 1.0D-05 achieved.  Increase integral accuracy.
 SCF Done:  E(RwB97XD) =  -1016.82756718     A.U. after   14 cycles
            NFock= 14  Conv=0.68D-08     -V/T= 2.0072
   1 Symmetry operations used in ECPInt.
 ECPInt:  NShTT=    8256 NPrTT=   30622 LenC2=    7789 LenP2D=   20986.
 LDataN:  DoStor=T MaxTD1= 5 Len=  102
 Calling FoFJK, ICntrl=      2127 FMM=F ISym2X=0 I1Cent= 0 IOpClX= 0 NMat=1 NMatS=1 NMatT=0.
 ***** Axes restored to original set *****
 -------------------------------------------------------------------
 Center     Atomic                   Forces (Hartrees/Bohr)
 Number     Number              X              Y              Z
 -------------------------------------------------------------------
      1       17          -0.000838039   -0.001979262    0.000713652
      2        6           0.003409074    0.004810475   -0.001692733
      3        6          -0.001435421   -0.002428813    0.000431853
      4        6           0.002808335    0.001307631   -0.001092834
      5        7          -0.001155069    0.000861612    0.002065034
      6        6          -0.001208437   -0.002584066   -0.000471769
      7        6          -0.000357598    0.000700640   -0.000528590
      8        6           0.000531971   -0.002046310    0.000004361
      9        6          -0.000795746   -0.000294020   -0.000907899
     10        6          -0.000218445    0.000487602    0.000043349
     11        6           0.000217020    0.000854724    0.001428856
     12        6           0.000790173    0.000220854    0.000325764
     13        6          -0.001456580   -0.000490815   -0.000550921
     14        6           0.001194963   -0.000784372    0.000831526
     15        6          -0.001546097   -0.000734144    0.000228727
     16        1           0.000084163    0.000247548   -0.000475494
     17        1           0.000295802    0.000416382   -0.000179395
     18        1          -0.000080623    0.001160616   -0.000443429
     19        1           0.000363872    0.000851155    0.000463405
     20        1           0.000668240   -0.001027194   -0.000313450
     21        1          -0.000166876    0.000235168    0.000181545
     22        1          -0.000482746    0.000365221    0.000078767
     23        1          -0.000259425    0.000201774   -0.000092700
     24        1          -0.000357732   -0.000238805    0.000336461
     25        1          -0.000847049   -0.000590325   -0.000239443
     26        1          -0.000022060    0.000174624   -0.000111484
     27        1           0.000864329    0.000302099   -0.000033159
 -------------------------------------------------------------------
 Cartesian Forces:  Max     0.004810475 RMS     0.001129267

 GradGradGradGradGradGradGradGradGradGradGradGradGradGradGradGradGradGrad
 Berny optimization.
 Using GEDIIS/GDIIS optimizer.
 FormGI is forming the generalized inverse of G from B-inverse, IUseBI=4.
 Internal  Forces:  Max     0.005611049 RMS     0.001049664
 Search for a local minimum.
 Step number   2 out of a maximum of  145
 All quantities printed in internal units (Hartrees-Bohrs-Radians)
 Mixed Optimization -- RFO/linear search
 Update second derivatives using D2CorX and points    1    2
 DE= -5.24D-03 DEPred=-5.82D-03 R= 9.00D-01
 TightC=F SS=  1.41D+00  RLast= 2.29D-01 DXNew= 5.0454D-01 6.8820D-01
[...]
 Alpha virt. eigenvalues --   22.90469  22.96250  23.27972  23.33747  25.99146
 Alpha virt. eigenvalues --   33.15445
          Condensed to atoms (all electrons):
               1          2          3          4          5          6
     1  Cl  16.877136   0.285708  -0.050857   0.010254  -0.000279   0.000004
     2  C    0.285708   4.954729   0.308359   0.049801   0.000352  -0.000966
     3  C   -0.050857   0.308359   5.345432   0.329883  -0.072951   0.015174
     4  C    0.010254   0.049801   0.329883   4.943898   0.439915  -0.077950
     5  N   -0.000279   0.000352  -0.072951   0.439915   6.420567   0.307740
     6  C    0.000004  -0.000966   0.015174  -0.077950   0.307740   4.937345
     7  C   -0.000241  -0.003342   0.014805  -0.146911   0.245092  -0.075362
     8  C   -0.000011   0.000423   0.004665  -0.009504  -0.038755  -0.008040
     9  C    0.000009  -0.000113  -0.000250   0.000096   0.005942   0.000431
    10  C   -0.000009   0.000003   0.000387   0.000822   0.000944  -0.000143
    11  C    0.000030   0.000253  -0.002574  -0.002864   0.008841   0.000643
    12  C    0.000080   0.002205  -0.003979   0.020014  -0.049966  -0.003349
    13  C   -0.000053  -0.108942   0.053898   0.354901  -0.089000  -0.009195
    14  C    0.013682   0.061596  -0.115024   0.020339   0.001192  -0.002092
    15  C   -0.040309   0.361079   0.064293  -0.103721   0.001710   0.000504
    16  H    0.004477  -0.056467   0.430017  -0.038746  -0.005659  -0.000128
    17  H   -0.000000  -0.000145  -0.000354  -0.005726  -0.050344   0.406779
    18  H   -0.000000   0.000060  -0.000395   0.007400  -0.026645   0.407296
    19  H    0.000001   0.000039   0.000470  -0.006869  -0.046080   0.414511
    20  H   -0.000001   0.000008  -0.000093   0.000651   0.005584  -0.001716
    21  H    0.000000   0.000000   0.000006  -0.000021  -0.000256   0.000027
    22  H   -0.000000  -0.000001  -0.000002   0.000006   0.000011  -0.000002
    23  H    0.000000  -0.000013  -0.000072   0.000056  -0.000231   0.000004
    24  H    0.000039  -0.000005  -0.000701   0.000866  -0.002618   0.000141
    25  H    0.000022  -0.000442   0.004421  -0.053997  -0.004626   0.004901
    26  H   -0.000301   0.010046  -0.001814   0.012185  -0.000110  -0.000012
    27  H    0.001593  -0.068795   0.019501  -0.004492   0.000036   0.000001
               7          8          9         10         11         12
     1  Cl  -0.000241  -0.000011   0.000009  -0.000009   0.000030   0.000080
     2  C   -0.003342   0.000423  -0.000113   0.000003   0.000253   0.002205
     3  C    0.014805   0.004665  -0.000250   0.000387  -0.002574  -0.003979
     4  C   -0.146911  -0.009504   0.000096   0.000822  -0.002864   0.020014
     5  N    0.245092  -0.038755   0.005942   0.000944   0.008841  -0.049966
     6  C   -0.075362  -0.008040   0.000431  -0.000143   0.000643  -0.003349
     7  C    5.075991   0.469466  -0.033676  -0.081144  -0.020500   0.431401
     8  C    0.469466   5.025844   0.457214   0.010902  -0.054623   0.020283
     9  C   -0.033676   0.457214   4.880188   0.454035  -0.003129  -0.057387
    10  C   -0.081144   0.010902   0.454035   4.942885   0.436002   0.029757
    11  C   -0.020500  -0.054623  -0.003129   0.436002   4.928285   0.414748
    12  C    0.431401   0.020283  -0.057387   0.029757   0.414748   5.086779
    13  C    0.007581   0.000383   0.000114   0.000055  -0.000868   0.000815
    14  C   -0.001268  -0.000018  -0.000006  -0.000003   0.000073   0.000217
    15  C    0.000911   0.000022  -0.000001   0.000003  -0.000024   0.000196
    16  H    0.006498  -0.000979   0.000322  -0.000009  -0.000330  -0.003319
    17  H   -0.004699   0.003026   0.000265   0.000036  -0.000794   0.002299
    18  H   -0.007027  -0.004962  -0.000374  -0.000099   0.000422   0.000519
    19  H    0.013178  -0.000656  -0.000337  -0.000025   0.000162  -0.001002
    20  H   -0.051974   0.428296  -0.036011   0.008459  -0.002828   0.009128
    21  H    0.014451  -0.054816   0.441272  -0.056860   0.011212  -0.004216
    22  H   -0.003393   0.010665  -0.054499   0.442186  -0.054585   0.011274
    23  H    0.012839  -0.003295   0.010339  -0.056175   0.440586  -0.053434
    24  H   -0.042989   0.008519  -0.002151   0.008013  -0.040466   0.431620
    25  H   -0.000941  -0.000045   0.000009  -0.000001  -0.000005   0.000147
    26  H    0.000029  -0.000000   0.000000  -0.000000  -0.000000  -0.000003
    27  H    0.000015   0.000000  -0.000000   0.000000  -0.000000  -0.000000
              13         14         15         16         17         18
     1  Cl  -0.000053   0.013682  -0.040309   0.004477  -0.000000  -0.000000
     2  C   -0.108942   0.061596   0.361079  -0.056467  -0.000145   0.000060
     3  C    0.053898  -0.115024   0.064293   0.430017  -0.000354  -0.000395
     4  C    0.354901   0.020339  -0.103721  -0.038746  -0.005726   0.007400
     5  N   -0.089000   0.001192   0.001710  -0.005659  -0.050344  -0.026645
     6  C   -0.009195  -0.002092   0.000504  -0.000128   0.406779   0.407296
     7  C    0.007581  -0.001268   0.000911   0.006498  -0.004699  -0.007027
     8  C    0.000383  -0.000018   0.000022  -0.000979   0.003026  -0.004962
     9  C    0.000114  -0.000006  -0.000001   0.000322   0.000265  -0.000374
    10  C    0.000055  -0.000003   0.000003  -0.000009   0.000036  -0.000099
    11  C   -0.000868   0.000073  -0.000024  -0.000330  -0.000794   0.000422
    12  C    0.000815   0.000217   0.000196  -0.003319   0.002299   0.000519
    13  C    5.233246   0.432939   0.044794   0.008982   0.007668   0.000478
    14  C    0.432939   4.906386   0.407694  -0.003841  -0.000615   0.000075
    15  C    0.044794   0.407694   5.104554   0.012407   0.000078  -0.000009
    16  H    0.008982  -0.003841   0.012407   0.485524   0.000004  -0.000014
    17  H    0.007668  -0.000615   0.000078   0.000004   0.582109  -0.023201
    18  H    0.000478   0.000075  -0.000009  -0.000014  -0.023201   0.510043
    19  H   -0.002160   0.001409  -0.000282   0.000007  -0.048615  -0.013766
    20  H   -0.000029  -0.000002   0.000002  -0.000045   0.000496  -0.002420
    21  H   -0.000002   0.000000  -0.000000   0.000000  -0.000007   0.000029
    22  H    0.000000  -0.000000   0.000000   0.000003  -0.000000  -0.000001
    23  H    0.000004   0.000000  -0.000001   0.000004   0.000003   0.000002
    24  H    0.000746   0.000020  -0.000020  -0.000697   0.000319  -0.000154
    25  H    0.426090  -0.020543   0.005366  -0.000129   0.001904   0.000460
    26  H   -0.054710   0.435525  -0.053720   0.000037  -0.000001  -0.000001
    27  H    0.013058  -0.059241   0.446277   0.000014   0.000001  -0.000000
              19         20         21         22         23         24
     1  Cl   0.000001  -0.000001   0.000000  -0.000000   0.000000   0.000039
     2  C    0.000039   0.000008   0.000000  -0.000001  -0.000013  -0.000005
     3  C    0.000470  -0.000093   0.000006  -0.000002  -0.000072  -0.000701
     4  C   -0.006869   0.000651  -0.000021   0.000006   0.000056   0.000866
     5  N   -0.046080   0.005584  -0.000256   0.000011  -0.000231  -0.002618
     6  C    0.414511  -0.001716   0.000027  -0.000002   0.000004   0.000141
     7  C    0.013178  -0.051974   0.014451  -0.003393   0.012839  -0.042989
     8  C   -0.000656   0.428296  -0.054816   0.010665  -0.003295   0.008519
     9  C   -0.000337  -0.036011   0.441272  -0.054499   0.010339  -0.002151
    10  C   -0.000025   0.008459  -0.056860   0.442186  -0.056175   0.008013
    11  C    0.000162  -0.002828   0.011212  -0.054585   0.440586  -0.040466
    12  C   -0.001002   0.009128  -0.004216   0.011274  -0.053434   0.431620
    13  C   -0.002160  -0.000029  -0.000002   0.000000   0.000004   0.000746
    14  C    0.001409  -0.000002   0.000000  -0.000000   0.000000   0.000020
    15  C   -0.000282   0.000002  -0.000000   0.000000  -0.000001  -0.000020
    16  H    0.000007  -0.000045   0.000000   0.000003   0.000004  -0.000697
    17  H   -0.048615   0.000496  -0.000007  -0.000000   0.000003   0.000319
    18  H   -0.013766  -0.002420   0.000029  -0.000001   0.000002  -0.000154
    19  H    0.557464  -0.000736   0.000008   0.000000  -0.000001  -0.000015
    20  H   -0.000736   0.510520  -0.007077  -0.000086   0.000031  -0.000147
    21  H    0.000008  -0.007077   0.539996  -0.006735  -0.000135   0.000018
    22  H    0.000000  -0.000086  -0.006735   0.538015  -0.006663  -0.000081
    23  H   -0.000001   0.000031  -0.000135  -0.006663   0.537172  -0.006469
    24  H   -0.000015  -0.000147   0.000018  -0.000081  -0.006469   0.500072
    25  H   -0.006424   0.000002  -0.000000   0.000000   0.000000  -0.000009
    26  H   -0.000013  -0.000000  -0.000000   0.000000   0.000000  -0.000001
    27  H   -0.000001   0.000000  -0.000000   0.000000   0.000000   0.000001
              25         26         27
     1  Cl   0.000022  -0.000301   0.001593
     2  C   -0.000442   0.010046  -0.068795
     3  C    0.004421  -0.001814   0.019501
     4  C   -0.053997   0.012185  -0.004492
     5  N   -0.004626  -0.000110   0.000036
     6  C    0.004901  -0.000012   0.000001
     7  C   -0.000941   0.000029   0.000015
     8  C   -0.000045  -0.000000   0.000000
     9  C    0.000009   0.000000  -0.000000
    10  C   -0.000001  -0.000000   0.000000
    11  C   -0.000005  -0.000000  -0.000000
    12  C    0.000147  -0.000003  -0.000000
    13  C    0.426090  -0.054710   0.013058
    14  C   -0.020543   0.435525  -0.059241
    15  C    0.005366  -0.053720   0.446277
    16  H   -0.000129   0.000037   0.000014
    17  H    0.001904  -0.000001   0.000001
    18  H    0.000460  -0.000001  -0.000000
    19  H   -0.006424  -0.000013  -0.000001
    20  H    0.000002  -0.000000   0.000000
    21  H   -0.000000  -0.000000  -0.000000
    22  H    0.000000   0.000000   0.000000
    23  H    0.000000   0.000000   0.000000
    24  H   -0.000009  -0.000001   0.000001
    25  H    0.516570  -0.006387  -0.000124
    26  H   -0.006387   0.545877  -0.006740
    27  H   -0.000124  -0.006740   0.530379
 Mulliken charges:
               1
     1  Cl  -0.100973
     2  C    0.204568
     3  C   -0.342246
     4  C    0.259716
     5  N   -0.050404
     6  C   -0.316548
     7  C    0.181211
     8  C   -0.264005
     9  C   -0.062301
    10  C   -0.140022
    11  C   -0.057667
    12  C   -0.284824
    13  C   -0.320794
    14  C   -0.078496
    15  C   -0.251802
    16  H    0.162066
    17  H    0.129516
    18  H    0.152284
    19  H    0.139733
    20  H    0.139988
    21  H    0.123107
    22  H    0.123888
    23  H    0.125446
    24  H    0.146149
    25  H    0.133781
    26  H    0.120112
    27  H    0.128518
 Sum of Mulliken charges =   0.00000
 Mulliken charges with hydrogens summed into heavy atoms:
               1
     1  Cl  -0.100973
     2  C    0.204568
     3  C   -0.180180
     4  C    0.259716
     5  N   -0.050404
     6  C    0.104985
     7  C    0.181211
     8  C   -0.124017
     9  C    0.060806
    10  C   -0.016133
    11  C    0.067779
    12  C   -0.138675
    13  C   -0.187014
    14  C    0.041616
    15  C   -0.123284
 Electronic spatial extent (au):  <R**2>=           3993.0132
 Charge=             -0.0000 electrons
 Dipole moment (field-independent basis, Debye):
    X=             -2.2453    Y=              2.1167    Z=              0.2798  Tot=              3.0984
 Quadrupole moment (field-independent basis, Debye-Ang):
   XX=            -90.6390   YY=            -89.8501   ZZ=            -94.5272
   XY=              6.1538   XZ=              3.5092   YZ=             -1.8936
 Traceless Quadrupole moment (field-independent basis, Debye-Ang):
   XX=              1.0331   YY=              1.8220   ZZ=             -2.8551
   XY=              6.1538   XZ=              3.5092   YZ=             -1.8936
 Octapole moment (field-independent basis, Debye-Ang**2):
  XXX=              5.9390  YYY=             14.7761  ZZZ=             -1.8155  XYY=             -7.6525
  XXY=             -3.6595  XXZ=             -7.1139  XZZ=            -11.1908  YZZ=             -6.3369
  YYZ=              4.0933  XYZ=              8.4101
 Hexadecapole moment (field-independent basis, Debye-Ang**3):
 XXXX=          -3511.8256 YYYY=          -1385.1094 ZZZZ=           -335.2820 XXXY=            104.8029
 XXXZ=             80.5807 YYYX=            -15.0519 YYYZ=              0.7733 ZZZX=              1.6373
 ZZZY=            -13.3601 XXYY=           -810.7075 XXZZ=           -668.5096 YYZZ=           -297.8002
 XXYZ=             -5.7973 YYXZ=             -4.8989 ZZXY=             -7.1762
 N-N= 1.005013861453D+03 E-N=-4.397775725366D+03  KE= 1.013778083769D+03
 Breneman (CHELPG) radii used.
 Read replacement radii for each type of atom:
 Atom Element Radius
    1    17    2.00
    2     6    1.50
    3     6    1.50
    4     6    1.50
    5     7    1.70
    6     6    1.50
    7     6    1.50
    8     6    1.50
    9     6    1.50
   10     6    1.50
   11     6    1.50
   12     6    1.50
   13     6    1.50
   14     6    1.50
   15     6    1.50
   16     1    1.45
   17     1    1.45
   18     1    1.45
   19     1    1.45
   20     1    1.45
   21     1    1.45
   22     1    1.45
   23     1    1.45
   24     1    1.45
   25     1    1.45
   26     1    1.45
   27     1    1.45
 Generate Potential Derived Charges using the Breneman model, NDens= 1.
 Grid spacing= 0.300 Box extension= 2.800
 NStep X,Y,Z=   50     39     34   Total possible points=       66300
 Number of Points to Fit=   16958

 **********************************************************************

            Electrostatic Properties Using The SCF Density.

 **********************************************************************

       Atomic Center    1 is at   2.872706 -2.297963 -0.335108
       Atomic Center    2 is at   2.391506 -0.636043 -0.100260
       Atomic Center    3 is at   1.046557 -0.312245 -0.205331
       Atomic Center    4 is at   0.624727  1.020698 -0.019060
       Atomic Center    5 is at  -0.715991  1.361037 -0.143240
       Atomic Center    6 is at  -1.109299  2.753740 -0.147054
       Atomic Center    7 is at  -1.737283  0.381406 -0.019557
       Atomic Center    8 is at  -2.683078  0.224209 -1.037987
       Atomic Center    9 is at  -3.709246 -0.709741 -0.908045
       Atomic Center   10 is at  -3.789027 -1.510992  0.229723
       Atomic Center   11 is at  -2.841330 -1.365322  1.243177
       Atomic Center   12 is at  -1.827426 -0.418553  1.126275
       Atomic Center   13 is at   1.604792  1.993662  0.255917
       Atomic Center   14 is at   2.948313  1.637202  0.345872
       Atomic Center   15 is at   3.367008  0.321969  0.175564
       Atomic Center   16 is at   0.325639 -1.094235 -0.440747
       Atomic Center   17 is at  -0.952629  3.238913  0.834616
       Atomic Center   18 is at  -2.177064  2.823949 -0.386402
       Atomic Center   19 is at  -0.549494  3.323054 -0.906142
       Atomic Center   20 is at  -2.601861  0.836585 -1.938799
       Atomic Center   21 is at  -4.442204 -0.821871 -1.709942
       Atomic Center   22 is at  -4.587176 -2.249725  0.326524
       Atomic Center   23 is at  -2.898328 -1.986704  2.139547
       Atomic Center   24 is at  -1.088426 -0.296393  1.920980
       Atomic Center   25 is at   1.325437  3.034945  0.410111
       Atomic Center   26 is at   3.688207  2.410900  0.563144
       Atomic Center   27 is at   4.416559  0.038740  0.251210
   16958 points will be used for fitting atomic charges
 Fitting point charges to electrostatic potential
 Charges from ESP fit, RMS=   0.00402 RRMS=   0.36893:
 ESP charges:
               1
     1  Cl  -0.146886
     2  C    0.162637
     3  C   -0.251419
     4  C    0.381066
     5  N   -0.441432
     6  C    0.107002
     7  C    0.350528
     8  C   -0.210772
     9  C   -0.082627
    10  C   -0.120699
    11  C   -0.096391
    12  C   -0.139134
    13  C   -0.263315
    14  C   -0.080413
    15  C   -0.176462
    16  H    0.093730
    17  H    0.010745
    18  H    0.015266
    19  H    0.024972
    20  H    0.129443
    21  H    0.099556
    22  H    0.101859
    23  H    0.104778
    24  H    0.084203
    25  H    0.124568
    26  H    0.110832
    27  H    0.108364
 Sum of ESP charges =  -0.00000
 ESP charges with hydrogens summed into heavy atoms:
               1
     1  Cl  -0.146886
     2  C    0.162637
     3  C   -0.157689
     4  C    0.381066
     5  N   -0.441432
     6  C    0.157986
     7  C    0.350528
     8  C   -0.081329
     9  C    0.016929
    10  C   -0.018840
    11  C    0.008387
    12  C   -0.054932
    13  C   -0.138747
    14  C    0.030419
    15  C   -0.068098
 Charge=  -0.00000 Dipole=    -2.3143     2.2636     0.2840 Tot=     3.2496
 -----------------------------------------------------------------

              Electrostatic Properties (Atomic Units)

 -----------------------------------------------------------------
    Center     Electric         -------- Electric Field --------
               Potential          X             Y             Z
 -----------------------------------------------------------------
    1 Atom    -64.441430
    2 Atom    -14.710319
    3 Atom    -14.768439
    4 Atom    -14.715734
    5 Atom    -18.351788
    6 Atom    -14.728977
    7 Atom    -14.720841
    8 Atom    -14.761554
    9 Atom    -14.759541
   10 Atom    -14.762542
   11 Atom    -14.760234
   12 Atom    -14.762613
   13 Atom    -14.770142
   14 Atom    -14.762749
   15 Atom    -14.771937
   16 Atom     -1.099736
   17 Atom     -1.107878
   18 Atom     -1.097529
   19 Atom     -1.104458
   20 Atom     -1.095165
   21 Atom     -1.099040
   22 Atom     -1.100860
   23 Atom     -1.100124
   24 Atom     -1.097663
   25 Atom     -1.101696
   26 Atom     -1.103595
   27 Atom     -1.103621
 -----------------------------------------------------------------
 Unable to Open any file for archive entry.
 1\1\GINC-NOTCH130\SP\RwB97XD\def2TZVP\C13H12Cl1N1\U1366379\17-Feb-2026
 \0\\#N Guess=Read Geom=Check Integral(Ultrafine) Density Pop=(ChelpG,R
 eadRadii) NMR wB97XD def2TZVP\\prod_5f_6\\0,1\Cl,0,-2.8554436646,-2.14
 85386022,0.4906267896\C,0,-2.3276915997,-0.51725275,0.1603698413\C,0,-
 0.9715901668,-0.231506858,0.2244959509\C,0,-0.5124068402,1.0758298081,
 -0.03893516\N,0,0.8403470872,1.3792132287,0.0434766788\C,0,1.276549421
 6,2.7569788194,-0.0327941132\C,0,1.8282648112,0.3624004167,-0.04663875
 54\C,0,2.7882486383,0.2282042097,0.9617559728\C,0,3.7823315485,-0.7434
 937016,0.862906835\C,0,3.8152857703,-1.604877971,-0.2324544951\C,0,2.8
 531407204,-1.4818682543,-1.2352424243\C,0,1.8714587519,-0.4984435841,-
 1.1503024395\C,0,-1.4670360574,2.06397339,-0.347245918\C,0,-2.82242796
 44,1.7463650536,-0.3945889803\C,0,-3.2782392328,0.4557768879,-0.148081
 524\H,0,-0.2707928052,-1.022817774,0.4878618749\H,0,1.1160216302,3.195
 2760494,-1.0356607346\H,0,2.3504012321,2.8054218592,0.1836187019\H,0,0
 .7493975364,3.3825081117,0.7051339627\H,0,2.7434374265,0.8888064556,1.
 8304672816\H,0,4.5268292676,-0.8371600497,1.6564988372\H,0,4.588181328
 9,-2.3727263832,-0.3044323886\H,0,2.8735570056,-2.1504565118,-2.098617
 0906\H,0,1.1213717381,-0.3941999756,-1.9371331676\H,0,-1.1586352942,3.
 0864023763,-0.5608159399\H,0,-3.5420949317,2.5309475159,-0.6390681619\
 H,0,-4.3373153576,0.2026282339,-0.1901814337\\Version=ES64L-G16RevC.01
 \State=1-A\HF=-1017.5716424\RMSD=8.843e-10\Dipole=0.9064167,0.7973203,
 -0.1692545\Quadrupole=0.5871278,1.7733194,-2.3604472,-4.3807562,2.8302
 549,1.2062314\PG=C01 [X(C13H12Cl1N1)]\\@
 The archive entry for this job was punched.


 I DO NOT DEFINE TIME, SPACE, PLACE, AND MOTION, AS BEING WELL KNOWN TO ALL.
                                            -- NEWTON (1642-1726), PRINCIPIA
 Job cpu time:       0 days  1 hours 19 minutes 27.0 seconds.
 Elapsed time:       0 days  0 hours 10 minutes 14.4 seconds.
 File lengths (MBytes):  RWF=    183 Int=      0 D2E=      0 Chk=     28 Scr=      2
 Normal termination of Gaussian 16 at Tue Feb 17 16:41:07 2026.
