 Entering Gaussian System, Link 0=g16
 Input=prod_5l_29.com
 Output=prod_5l_29.log
 Initial command:
 /uufs/chpc.utah.edu/sys/installdir/gaussian16/C01/AVX/g16/l1.exe "/scratch/general/vast/u1366379/GAUSSSCRDIR/11028704-notchpeak.peaks/Gau-1511728.inp" -scrdir="/scratch/general/vast/u1366379/GAUSSSCRDIR/11028704-notchpeak.peaks/"
 Entering Link 1 = /uufs/chpc.utah.edu/sys/installdir/gaussian16/C01/AVX/g16/l1.exe PID=   1511735.
  
 Copyright (c) 1988-2019, Gaussian, Inc.  All Rights Reserved.
  
 This is part of the Gaussian(R) 16 program.  It is based on
 the Gaussian(R) 09 system (copyright 2009, Gaussian, Inc.),
 the Gaussian(R) 03 system (copyright 2003, Gaussian, Inc.),
 the Gaussian(R) 98 system (copyright 1998, Gaussian, Inc.),
 the Gaussian(R) 94 system (copyright 1995, Gaussian, Inc.),
 the Gaussian 92(TM) system (copyright 1992, Gaussian, Inc.),
 the Gaussian 90(TM) system (copyright 1990, Gaussian, Inc.),
 the Gaussian 88(TM) system (copyright 1988, Gaussian, Inc.),
 the Gaussian 86(TM) system (copyright 1986, Carnegie Mellon
 University), and the Gaussian 82(TM) system (copyright 1983,
 Carnegie Mellon University). Gaussian is a federally registered
 trademark of Gaussian, Inc.
  
 This software contains proprietary and confidential information,
 including trade secrets, belonging to Gaussian, Inc.
  
 This software is provided under written license and may be
 used, copied, transmitted, or stored only in accord with that
 written license.
  
 The following legend is applicable only to US Government
 contracts under FAR:
  
                    RESTRICTED RIGHTS LEGEND
  
 Use, reproduction and disclosure by the US Government is
 subject to restrictions as set forth in subparagraphs (a)
 and (c) of the Commercial Computer Software - Restricted
 Rights clause in FAR 52.227-19.
  
 Gaussian, Inc.
 340 Quinnipiac St., Bldg. 40, Wallingford CT 06492
  
  
 ---------------------------------------------------------------
 Warning -- This program may not be used in any manner that
 competes with the business of Gaussian, Inc. or will provide
 assistance to any competitor of Gaussian, Inc.  The licensee
 of this program is prohibited from giving any competitor of
 Gaussian, Inc. access to this program.  By using this program,
 the user acknowledges that Gaussian, Inc. is engaged in the
 business of creating and licensing software in the field of
 computational chemistry and represents and warrants to the
 licensee that it is not a competitor of Gaussian, Inc. and that
 it will not use this program in any manner prohibited above.
 ---------------------------------------------------------------
  

 Cite this work as:
 Gaussian 16, Revision C.01,
 M. J. Frisch, G. W. Trucks, H. B. Schlegel, G. E. Scuseria, 
 M. A. Robb, J. R. Cheeseman, G. Scalmani, V. Barone, 
 G. A. Petersson, H. Nakatsuji, X. Li, M. Caricato, A. V. Marenich, 
 J. Bloino, B. G. Janesko, R. Gomperts, B. Mennucci, H. P. Hratchian, 
 J. V. Ortiz, A. F. Izmaylov, J. L. Sonnenberg, D. Williams-Young, 
 F. Ding, F. Lipparini, F. Egidi, J. Goings, B. Peng, A. Petrone, 
 T. Henderson, D. Ranasinghe, V. G. Zakrzewski, J. Gao, N. Rega, 
 G. Zheng, W. Liang, M. Hada, M. Ehara, K. Toyota, R. Fukuda, 
 J. Hasegawa, M. Ishida, T. Nakajima, Y. Honda, O. Kitao, H. Nakai, 
 T. Vreven, K. Throssell, J. A. Montgomery, Jr., J. E. Peralta, 
 F. Ogliaro, M. J. Bearpark, J. J. Heyd, E. N. Brothers, K. N. Kudin, 
 V. N. Staroverov, T. A. Keith, R. Kobayashi, J. Normand, 
 K. Raghavachari, A. P. Rendell, J. C. Burant, S. S. Iyengar, 
 J. Tomasi, M. Cossi, J. M. Millam, M. Klene, C. Adamo, R. Cammi, 
 J. W. Ochterski, R. L. Martin, K. Morokuma, O. Farkas, 
 J. B. Foresman, and D. J. Fox, Gaussian, Inc., Wallingford CT, 2019.
 
 ******************************************
 Gaussian 16:  ES64L-G16RevC.01  3-Jul-2019
                17-Feb-2026 
 ******************************************
 %NProcShared=8
 Will use up to    8 processors via shared memory.
 %Mem=8GB
 %chk=prod_5l_29.chk
 ------------------------------------------------------
 #N OPT FREQ=NORAMAN Integral(Ultrafine) wB97XD def2SVP
 ------------------------------------------------------
 1/18=20,19=15,26=4,38=1/1,3;
 2/9=110,12=2,17=6,18=5,40=1/2;
 3/5=43,7=101,11=2,25=1,30=1,71=1,74=-58,75=-5/1,2,3;
 4//1;
 5/5=2,38=5/2;
 6/7=2,8=2,9=2,10=2,28=1/1;
 7//1,2,3,16;
 1/18=20,19=15,26=4/3(2);
 2/9=110/2;
 99//99;
 2/9=110/2;
 3/5=43,7=101,11=2,25=1,30=1,71=1,74=-58,75=-5/1,2,3;
 4/5=5,16=3,69=1/1;
 5/5=2,38=5/2;
 7//1,2,3,16;
 1/18=20,19=15,26=4/3(-5);
 2/9=110/2;
 6/7=2,8=2,9=2,10=2,19=2,28=1/1;
 99/9=1/99;
 ----------
 prod_5l_29
 ----------
 Symbolic Z-matrix:
 Charge =  0 Multiplicity = 1
 O                     0.42353   1.92403   0.99988 
 S                     0.03549   1.45009  -0.36992 
 N                     1.05765   0.26844  -1.06349 
 C                     2.14288  -0.27509  -0.37627 
 C                     3.06996  -1.05465  -1.0773 
 C                     4.13661  -1.63733  -0.43395 
 C                     4.30904  -1.46163   0.9246 
 C                     3.40933  -0.69549   1.63793 
 C                     2.34319  -0.11006   0.99863 
 C                    -1.43292   0.44491  -0.1242 
 C                    -2.63295   1.07134   0.11029 
 C                    -3.77412   0.32105   0.31086 
 C                    -3.72436  -1.06513   0.27143 
 C                    -4.94726  -1.87725   0.51403 
 C                    -2.50315  -1.6812    0.03941 
 C                    -1.3649   -0.92725  -0.15993 
 O                    -0.27191   2.42346  -1.47026 
 H                     1.23948   0.61775  -1.98266 
 H                     2.92895  -1.19634  -2.13433 
 H                     4.84023  -2.23318  -0.99169 
 H                     5.14648  -1.91771   1.42631 
 H                     3.54732  -0.5493    2.69668 
 H                     1.66135   0.51181   1.54829 
 H                    -2.66773   2.14849   0.1364 
 H                    -4.71367   0.81005   0.50235 
 H                    -5.01145  -2.17589   1.56071 
 H                    -5.84894  -1.31552   0.26843 
 H                    -4.94467  -2.78137  -0.09545 
 H                    -2.45075  -2.75604   0.01685 
 H                    -0.417    -1.40133  -0.34659 
 

 GradGradGradGradGradGradGradGradGradGradGradGradGradGradGradGradGradGrad
 Berny optimization.
 Initialization pass.
                           ----------------------------
                           !    Initial Parameters    !
                           ! (Angstroms and Degrees)  !
 --------------------------                            --------------------------
 ! Name  Definition              Value          Derivative Info.                !
 --------------------------------------------------------------------------------
 ! R1    R(1,2)                  1.5005         estimate D2E/DX2                !
 ! R2    R(2,3)                  1.7094         estimate D2E/DX2                !
 ! R3    R(2,10)                 1.7964         estimate D2E/DX2                !
 ! R4    R(2,17)                 1.5009         estimate D2E/DX2                !
 ! R5    R(3,4)                  1.3948         estimate D2E/DX2                !
 ! R6    R(3,18)                 1.0            estimate D2E/DX2                !
 ! R7    R(4,5)                  1.3995         estimate D2E/DX2                !
 ! R8    R(4,9)                  1.3992         estimate D2E/DX2                !
 ! R9    R(5,6)                  1.3752         estimate D2E/DX2                !
 ! R10   R(5,19)                 1.0758         estimate D2E/DX2                !
 ! R11   R(6,7)                  1.3807         estimate D2E/DX2                !
 ! R12   R(6,20)                 1.0776         estimate D2E/DX2                !
 ! R13   R(7,8)                  1.3803         estimate D2E/DX2                !
 ! R14   R(7,21)                 1.0775         estimate D2E/DX2                !
 ! R15   R(8,9)                  1.3741         estimate D2E/DX2                !
 ! R16   R(8,22)                 1.0777         estimate D2E/DX2                !
 ! R17   R(9,23)                 1.0741         estimate D2E/DX2                !
 ! R18   R(10,11)                1.3739         estimate D2E/DX2                !
 ! R19   R(10,16)                1.3743         estimate D2E/DX2                !
 ! R20   R(11,12)                1.3804         estimate D2E/DX2                !
 ! R21   R(11,24)                1.078          estimate D2E/DX2                !
 ! R22   R(12,13)                1.3876         estimate D2E/DX2                !
 ! R23   R(12,25)                1.0764         estimate D2E/DX2                !
 ! R24   R(13,14)                1.4879         estimate D2E/DX2                !
 ! R25   R(13,15)                1.3873         estimate D2E/DX2                !
 ! R26   R(14,26)                1.0903         estimate D2E/DX2                !
 ! R27   R(14,27)                1.0904         estimate D2E/DX2                !
 ! R28   R(14,28)                1.0904         estimate D2E/DX2                !
 ! R29   R(15,16)                1.3798         estimate D2E/DX2                !
 ! R30   R(15,29)                1.0764         estimate D2E/DX2                !
 ! R31   R(16,30)                1.0762         estimate D2E/DX2                !
 ! A1    A(1,2,3)              115.7272         estimate D2E/DX2                !
 ! A2    A(1,2,10)             105.2634         estimate D2E/DX2                !
 ! A3    A(1,2,17)             121.1569         estimate D2E/DX2                !
 ! A4    A(3,2,10)              99.0609         estimate D2E/DX2                !
 ! A5    A(3,2,17)             105.8615         estimate D2E/DX2                !
 ! A6    A(10,2,17)            107.2025         estimate D2E/DX2                !
 ! A7    A(2,3,4)              122.3244         estimate D2E/DX2                !
 ! A8    A(2,3,18)             103.8987         estimate D2E/DX2                !
 ! A9    A(4,3,18)             116.5859         estimate D2E/DX2                !
 ! A10   A(3,4,5)              119.0568         estimate D2E/DX2                !
 ! A11   A(3,4,9)              123.3384         estimate D2E/DX2                !
 ! A12   A(5,4,9)              117.5861         estimate D2E/DX2                !
 ! A13   A(4,5,6)              121.0297         estimate D2E/DX2                !
 ! A14   A(4,5,19)             118.6019         estimate D2E/DX2                !
 ! A15   A(6,5,19)             120.3672         estimate D2E/DX2                !
 ! A16   A(5,6,7)              120.217          estimate D2E/DX2                !
 ! A17   A(5,6,20)             119.908          estimate D2E/DX2                !
 ! A18   A(7,6,20)             119.8749         estimate D2E/DX2                !
 ! A19   A(6,7,8)              119.8502         estimate D2E/DX2                !
 ! A20   A(6,7,21)             120.0899         estimate D2E/DX2                !
 ! A21   A(8,7,21)             120.0594         estimate D2E/DX2                !
 ! A22   A(7,8,9)              120.1177         estimate D2E/DX2                !
 ! A23   A(7,8,22)             119.97           estimate D2E/DX2                !
 ! A24   A(9,8,22)             119.9104         estimate D2E/DX2                !
 ! A25   A(4,9,8)              121.1989         estimate D2E/DX2                !
 ! A26   A(4,9,23)             118.702          estimate D2E/DX2                !
 ! A27   A(8,9,23)             120.0732         estimate D2E/DX2                !
 ! A28   A(2,10,11)            118.8299         estimate D2E/DX2                !
 ! A29   A(2,10,16)            120.9753         estimate D2E/DX2                !
 ! A30   A(11,10,16)           120.1935         estimate D2E/DX2                !
 ! A31   A(10,11,12)           119.939          estimate D2E/DX2                !
 ! A32   A(10,11,24)           119.2033         estimate D2E/DX2                !
 ! A33   A(12,11,24)           120.8577         estimate D2E/DX2                !
 ! A34   A(11,12,13)           120.6104         estimate D2E/DX2                !
 ! A35   A(11,12,25)           120.0363         estimate D2E/DX2                !
 ! A36   A(13,12,25)           119.3532         estimate D2E/DX2                !
 ! A37   A(12,13,14)           120.7395         estimate D2E/DX2                !
 ! A38   A(12,13,15)           118.6799         estimate D2E/DX2                !
 ! A39   A(14,13,15)           120.5547         estimate D2E/DX2                !
 ! A40   A(13,14,26)           110.7567         estimate D2E/DX2                !
 ! A41   A(13,14,27)           111.2078         estimate D2E/DX2                !
 ! A42   A(13,14,28)           111.0689         estimate D2E/DX2                !
 ! A43   A(26,14,27)           107.9778         estimate D2E/DX2                !
 ! A44   A(26,14,28)           108.0359         estimate D2E/DX2                !
 ! A45   A(27,14,28)           107.6522         estimate D2E/DX2                !
 ! A46   A(13,15,16)           120.5091         estimate D2E/DX2                !
 ! A47   A(13,15,29)           119.3273         estimate D2E/DX2                !
 ! A48   A(16,15,29)           120.1636         estimate D2E/DX2                !
 ! A49   A(10,16,15)           120.0653         estimate D2E/DX2                !
 ! A50   A(10,16,30)           119.2058         estimate D2E/DX2                !
 ! A51   A(15,16,30)           120.7288         estimate D2E/DX2                !
 ! D1    D(1,2,3,4)              3.2727         estimate D2E/DX2                !
 ! D2    D(1,2,3,18)          -131.3282         estimate D2E/DX2                !
 ! D3    D(10,2,3,4)          -108.6133         estimate D2E/DX2                !
 ! D4    D(10,2,3,18)          116.7858         estimate D2E/DX2                !
 ! D5    D(17,2,3,4)           140.4919         estimate D2E/DX2                !
 ! D6    D(17,2,3,18)            5.891          estimate D2E/DX2                !
 ! D7    D(1,2,10,11)           76.2494         estimate D2E/DX2                !
 ! D8    D(1,2,10,16)         -103.3368         estimate D2E/DX2                !
 ! D9    D(3,2,10,11)         -163.806          estimate D2E/DX2                !
 ! D10   D(3,2,10,16)           16.6078         estimate D2E/DX2                !
 ! D11   D(17,2,10,11)         -53.9839         estimate D2E/DX2                !
 ! D12   D(17,2,10,16)         126.4299         estimate D2E/DX2                !
 ! D13   D(2,3,4,5)           -168.8307         estimate D2E/DX2                !
 ! D14   D(2,3,4,9)             12.7791         estimate D2E/DX2                !
 ! D15   D(18,3,4,5)           -39.4449         estimate D2E/DX2                !
 ! D16   D(18,3,4,9)           142.1649         estimate D2E/DX2                !
 ! D17   D(3,4,5,6)           -178.3826         estimate D2E/DX2                !
 ! D18   D(3,4,5,19)             1.2187         estimate D2E/DX2                !
 ! D19   D(9,4,5,6)              0.1            estimate D2E/DX2                !
 ! D20   D(9,4,5,19)           179.7014         estimate D2E/DX2                !
 ! D21   D(3,4,9,8)            178.2242         estimate D2E/DX2                !
 ! D22   D(3,4,9,23)            -3.6251         estimate D2E/DX2                !
 ! D23   D(5,4,9,8)             -0.1881         estimate D2E/DX2                !
 ! D24   D(5,4,9,23)           177.9625         estimate D2E/DX2                !
 ! D25   D(4,5,6,7)              0.0785         estimate D2E/DX2                !
 ! D26   D(4,5,6,20)          -179.9313         estimate D2E/DX2                !
 ! D27   D(19,5,6,7)          -179.5159         estimate D2E/DX2                !
 ! D28   D(19,5,6,20)            0.4743         estimate D2E/DX2                !
 ! D29   D(5,6,7,8)             -0.1737         estimate D2E/DX2                !
 ! D30   D(5,6,7,21)          -179.8938         estimate D2E/DX2                !
 ! D31   D(20,6,7,8)           179.836          estimate D2E/DX2                !
 ! D32   D(20,6,7,21)            0.116          estimate D2E/DX2                !
 ! D33   D(6,7,8,9)              0.0865         estimate D2E/DX2                !
 ! D34   D(6,7,8,22)          -179.4146         estimate D2E/DX2                !
 ! D35   D(21,7,8,9)           179.8066         estimate D2E/DX2                !
 ! D36   D(21,7,8,22)            0.3056         estimate D2E/DX2                !
 ! D37   D(7,8,9,4)              0.0974         estimate D2E/DX2                !
 ! D38   D(7,8,9,23)          -178.0281         estimate D2E/DX2                !
 ! D39   D(22,8,9,4)           179.5987         estimate D2E/DX2                !
 ! D40   D(22,8,9,23)            1.4732         estimate D2E/DX2                !
 ! D41   D(2,10,11,12)        -179.5812         estimate D2E/DX2                !
 ! D42   D(2,10,11,24)           0.3185         estimate D2E/DX2                !
 ! D43   D(16,10,11,12)          0.0083         estimate D2E/DX2                !
 ! D44   D(16,10,11,24)        179.9081         estimate D2E/DX2                !
 ! D45   D(2,10,16,15)         179.6017         estimate D2E/DX2                !
 ! D46   D(2,10,16,30)          -0.5264         estimate D2E/DX2                !
 ! D47   D(11,10,16,15)          0.0211         estimate D2E/DX2                !
 ! D48   D(11,10,16,30)        179.893          estimate D2E/DX2                !
 ! D49   D(10,11,12,13)         -0.3325         estimate D2E/DX2                !
 ! D50   D(10,11,12,25)        179.5212         estimate D2E/DX2                !
 ! D51   D(24,11,12,13)        179.7694         estimate D2E/DX2                !
 ! D52   D(24,11,12,25)         -0.3769         estimate D2E/DX2                !
 ! D53   D(11,12,13,14)        178.7748         estimate D2E/DX2                !
 ! D54   D(11,12,13,15)          0.6151         estimate D2E/DX2                !
 ! D55   D(25,12,13,14)         -1.0799         estimate D2E/DX2                !
 ! D56   D(25,12,13,15)       -179.2395         estimate D2E/DX2                !
 ! D57   D(12,13,14,26)        -94.5011         estimate D2E/DX2                !
 ! D58   D(12,13,14,27)         25.5725         estimate D2E/DX2                !
 ! D59   D(12,13,14,28)        145.4439         estimate D2E/DX2                !
 ! D60   D(15,13,14,26)         83.624          estimate D2E/DX2                !
 ! D61   D(15,13,14,27)       -156.3024         estimate D2E/DX2                !
 ! D62   D(15,13,14,28)        -36.431          estimate D2E/DX2                !
 ! D63   D(12,13,15,16)         -0.585          estimate D2E/DX2                !
 ! D64   D(12,13,15,29)        179.3699         estimate D2E/DX2                !
 ! D65   D(14,13,15,16)       -178.7482         estimate D2E/DX2                !
 ! D66   D(14,13,15,29)          1.2068         estimate D2E/DX2                !
 ! D67   D(13,15,16,10)          0.2731         estimate D2E/DX2                !
 ! D68   D(13,15,16,30)       -179.5968         estimate D2E/DX2                !
 ! D69   D(29,15,16,10)       -179.6814         estimate D2E/DX2                !
 ! D70   D(29,15,16,30)          0.4486         estimate D2E/DX2                !
 --------------------------------------------------------------------------------
 Trust Radius=3.00D-01 FncErr=1.00D-07 GrdErr=1.00D-06 EigMax=2.50D+02 EigMin=1.00D-04
 Number of steps in this run=    162 maximum allowed number of steps=    180.
 GradGradGradGradGradGradGradGradGradGradGradGradGradGradGradGradGradGrad

                          Input orientation:                          
 ---------------------------------------------------------------------
 Center     Atomic      Atomic             Coordinates (Angstroms)
 Number     Number       Type             X           Y           Z
 ---------------------------------------------------------------------
      1          8           0        0.423530    1.924030    0.999880
      2         16           0        0.035490    1.450090   -0.369920
      3          7           0        1.057650    0.268440   -1.063490
      4          6           0        2.142880   -0.275090   -0.376270
      5          6           0        3.069960   -1.054650   -1.077300
      6          6           0        4.136610   -1.637330   -0.433950
      7          6           0        4.309040   -1.461630    0.924600
      8          6           0        3.409330   -0.695490    1.637930
      9          6           0        2.343190   -0.110060    0.998630
     10          6           0       -1.432920    0.444910   -0.124200
     11          6           0       -2.632950    1.071340    0.110290
     12          6           0       -3.774120    0.321050    0.310860
     13          6           0       -3.724360   -1.065130    0.271430
     14          6           0       -4.947260   -1.877250    0.514030
     15          6           0       -2.503150   -1.681200    0.039410
     16          6           0       -1.364900   -0.927250   -0.159930
     17          8           0       -0.271910    2.423460   -1.470260
     18          1           0        1.239480    0.617750   -1.982660
     19          1           0        2.928950   -1.196340   -2.134330
     20          1           0        4.840230   -2.233180   -0.991690
     21          1           0        5.146480   -1.917710    1.426310
     22          1           0        3.547320   -0.549300    2.696680
     23          1           0        1.661350    0.511810    1.548290
     24          1           0       -2.667730    2.148490    0.136400
     25          1           0       -4.713670    0.810050    0.502350
     26          1           0       -5.011450   -2.175890    1.560710
     27          1           0       -5.848940   -1.315520    0.268430
     28          1           0       -4.944670   -2.781370   -0.095450
     29          1           0       -2.450750   -2.756040    0.016850
     30          1           0       -0.417000   -1.401330   -0.346590
 ---------------------------------------------------------------------
                    Distance matrix (angstroms):
                    1          2          3          4          5
     1  O    0.000000
     2  S    1.500515   0.000000
     3  N    2.720401   1.709429   0.000000
     4  C    3.112247   2.723487   1.394783   0.000000
     5  C    4.493418   3.997764   2.408350   1.399512   0.000000
     6  C    5.340985   5.133756   3.675360   2.415364   1.375194
     7  C    5.154178   5.330772   4.185353   2.791485   2.389258
     8  C    4.022934   4.474122   3.709074   2.416119   2.759826
     9  C    2.796894   3.103623   2.459312   1.399182   2.393727
    10  C    2.626358   1.796383   2.667648   3.656267   4.840765
    11  C    3.295530   2.737631   3.955115   4.985796   6.201079
    12  C    4.545829   4.031293   5.023705   5.986520   7.117652
    13  C    5.164369   4.568822   5.140821   5.955517   6.926902
    14  C    6.597815   6.056431   6.568980   7.323226   8.214914
    15  C    4.741903   4.051817   4.206754   4.871912   5.718318
    16  C    3.559977   2.767116   2.848656   3.574442   4.530539
    17  O    2.614318   1.500897   2.564625   3.782882   4.839397
    18  H    3.356738   2.177915   0.999977   2.047873   2.639556
    19  H    5.083022   4.299866   2.606538   2.134803   1.075766
    20  H    6.384041   6.085935   4.535545   3.389477   2.128407
    21  H    6.103037   6.378929   5.262783   3.868993   3.365245
    22  H    4.330653   5.072923   4.583234   3.389788   3.837470
    23  H    1.956353   2.683900   2.691668   2.134248   3.366259
    24  H    3.217432   2.837520   4.341979   5.410965   6.682384
    25  H    5.280086   4.870834   6.004443   6.997269   8.158266
    26  H    6.831023   6.507432   7.049479   7.651756   8.574699
    27  H    7.097435   6.533193   7.209988   8.085006   9.023626
    28  H    7.222057   6.540839   6.801933   7.522876   8.257111
    29  H    5.579506   4.901276   4.756415   5.235560   5.879637
    30  H    3.684765   2.887194   2.340229   2.796834   3.579527
                    6          7          8          9         10
     6  C    0.000000
     7  C    1.380674   0.000000
     8  C    2.389286   1.380322   0.000000
     9  C    2.757026   2.386795   1.374077   0.000000
    10  C    5.954102   6.140438   5.277594   3.978410   0.000000
    11  C    7.311637   7.434397   6.478003   5.191033   1.373853
    12  C    8.183498   8.300127   7.375393   6.170929   2.384499
    13  C    7.913269   8.069657   7.272791   6.185155   2.772624
    14  C    9.136352   9.274718   8.514241   7.517211   4.260323
    15  C    6.656757   6.872969   6.203572   5.184168   2.385897
    16  C    5.553910   5.801324   5.106788   3.969886   1.374309
    17  O    6.082681   6.466404   5.739357   4.399192   2.659790
    18  H    3.984627   4.711495   4.420579   3.261284   3.259673
    19  H    2.131715   3.366315   3.835565   3.367277   5.075454
    20  H    1.077586   2.132984   3.365541   3.834608   6.875836
    21  H    2.135186   1.077510   2.134548   3.362877   7.160626
    22  H    3.366291   2.133736   1.077666   2.127495   5.809355
    23  H    3.830795   3.360613   2.126274   1.074130   3.517983
    24  H    7.807482   7.894906   6.875571   5.563615   2.120107
    25  H    9.230048   9.313867   8.339024   7.133875   3.359942
    26  H    9.378471   9.369436   8.550268   7.659916   4.744828
    27  H   10.015394  10.180200   9.379527   8.312480   4.770168
    28  H    9.159315   9.402838   8.783212   7.838738   4.768868
    29  H    6.696868   6.942209   6.419837   5.562999   3.361838
    30  H    4.560558   4.894386   4.367760   3.331012   2.118998
                   11         12         13         14         15
    11  C    0.000000
    12  C    1.380374   0.000000
    13  C    2.404505   1.387633   0.000000
    14  C    3.770042   2.500012   1.487911   0.000000
    15  C    2.756510   2.387060   1.387346   2.497473   0.000000
    16  C    2.382295   2.753949   2.402527   3.766965   1.379779
    17  O    3.146566   4.456231   5.207990   6.655254   4.909763
    18  H    4.425144   5.521272   5.705499   7.122797   4.835413
    19  H    6.412131   7.294695   7.076117   8.337394   5.870941
    20  H    8.245158   9.078973   8.735675   9.909028   7.435932
    21  H    8.437171   9.264631   8.986236  10.134963   7.777935
    22  H    6.892868   7.749395   7.682789   8.870474   6.704511
    23  H    4.563105   5.577809   5.755257   7.102889   4.942577
    24  H    1.078028   2.143379   3.385565   4.641707   3.834452
    25  H    2.133396   1.076357   2.132688   2.697458   3.362594
    26  H    4.278491   3.054148   2.133690   1.090342   2.975003
    27  H    4.008079   2.642923   2.139286   1.090361   3.373497
    28  H    4.497750   3.340701   2.137577   1.090369   2.681339
    29  H    3.832853   3.362474   2.132152   2.692958   1.076353
    30  H    3.351607   3.830025   3.381362   4.635776   2.139940
                   16         17         18         19         20
    16  C    0.000000
    17  O    3.760166   0.000000
    18  H    3.534426   2.409864   0.000000
    19  H    4.733689   4.877443   2.483593   0.000000
    20  H    6.395382   6.931616   4.698428   2.456350   0.000000
    21  H    6.774602   7.522953   5.771853   4.256286   2.457648
    22  H    5.694995   6.386486   5.346434   4.913217   4.255719
    23  H    3.761263   4.062455   3.557640   4.252796   4.908334
    24  H    3.353409   2.897744   4.701050   6.904124   8.765905
    25  H    3.830285   5.120890   6.453855   8.329905  10.137574
    26  H    4.221022   7.266639   7.709346   8.812649  10.177113
    27  H    4.521157   6.935869   7.684441   9.101583  10.802239
    28  H    4.031956   7.128467   7.304744   8.286329   9.841139
    29  H    2.134196   5.812578   5.385007   6.000118   7.378951
    30  H    1.076154   3.989073   3.081775   3.799134   5.361585
                   21         22         23         24         25
    21  H    0.000000
    22  H    2.458393   0.000000
    23  H    4.250127   2.449824   0.000000
    24  H    8.902793   7.242924   4.838707   0.000000
    25  H   10.272144   8.654876   6.467134   2.472086   0.000000
    26  H   10.162099   8.785714   7.193757   5.120737   3.181923
    27  H   11.072605   9.735152   7.834643   4.704986   2.421075
    28  H   10.241727   9.213687   7.562170   5.435230   3.648153
    29  H    7.772212   6.930226   5.471153   4.910783   4.251296
    30  H    5.861922   5.069840   3.401502   4.230873   4.906350
                   26         27         28         29         30
    26  H    0.000000
    27  H    1.763977   0.000000
    28  H    1.764634   1.760349   0.000000
    29  H    3.045860   3.699471   2.496576   0.000000
    30  H    5.034551   5.467320   4.739977   2.470520   0.000000
 Stoichiometry    C13H13NO2S
 Framework group  C1[X(C13H13NO2S)]
 Deg. of freedom    84
 Full point group                 C1      NOp   1
 Largest Abelian subgroup         C1      NOp   1
 Largest concise Abelian subgroup C1      NOp   1
                         Standard orientation:                         
 ---------------------------------------------------------------------
 Center     Atomic      Atomic             Coordinates (Angstroms)
 Number     Number       Type             X           Y           Z
 ---------------------------------------------------------------------
      1          8           0        0.391395    1.714280    1.404732
      2         16           0        0.015254    1.544856   -0.037960
      3          7           0        1.071215    0.577553   -0.971458
      4          6           0        2.173575   -0.072421   -0.416700
      5          6           0        3.122389   -0.649017   -1.268712
      6          6           0        4.207274   -1.327963   -0.765508
      7          6           0        4.376854   -1.453122    0.598984
      8          6           0        3.455825   -0.891520    1.460144
      9          6           0        2.371374   -0.210778    0.961502
     10          6           0       -1.421794    0.466989   -0.028575
     11          6           0       -2.639691    0.989773    0.333223
     12          6           0       -3.757399    0.180077    0.356739
     13          6           0       -3.666033   -1.160669    0.010940
     14          6           0       -4.863497   -2.042384    0.061319
     15          6           0       -2.427273   -1.673274   -0.346048
     16          6           0       -1.312591   -0.860371   -0.367566
     17          8           0       -0.323325    2.728581   -0.896360
     18          1           0        1.240753    1.127408   -1.789303
     19          1           0        2.983749   -0.556699   -2.331505
     20          1           0        4.927468   -1.763964   -1.438127
     21          1           0        5.228563   -1.984063    0.991057
     22          1           0        3.591313   -0.979925    2.525598
     23          1           0        1.672152    0.253023    1.632123
     24          1           0       -2.706811    2.032739    0.597533
     25          1           0       -4.710879    0.586212    0.647383
     26          1           0       -4.916736   -2.567657    1.015310
     27          1           0       -5.782121   -1.467229   -0.057901
     28          1           0       -4.834836   -2.788195   -0.733572
     29          1           0       -2.342603   -2.714253   -0.606298
     30          1           0       -0.351205   -1.252789   -0.650150
 ---------------------------------------------------------------------
 Rotational constants (GHZ):           0.8040195           0.2510329           0.2171292
 Standard basis: def2SVP (5D, 7F)
 There are   324 symmetry adapted cartesian basis functions of A   symmetry.
 There are   307 symmetry adapted basis functions of A   symmetry.
   307 basis functions,   528 primitive gaussians,   324 cartesian basis functions
    65 alpha electrons       65 beta electrons
       nuclear repulsion energy      1303.7973831923 Hartrees.
 NAtoms=   30 NActive=   30 NUniq=   30 SFac= 1.00D+00 NAtFMM=   60 NAOKFM=F Big=F
 Integral buffers will be    131072 words long.
 Raffenetti 2 integral format.
 Two-electron integral symmetry is turned on.
 Nuclear repulsion after empirical dispersion term =     1303.7786042617 Hartrees.
 One-electron integrals computed using PRISM.
   1 Symmetry operations used in ECPInt.
 ECPInt:  NShTT=   10296 NPrTT=   38220 LenC2=    9315 LenP2D=   24489.
 LDataN:  DoStor=T MaxTD1= 4 Len=   56
 NBasis=   307 RedAO= T EigKep=  2.41D-04  NBF=   307
 NBsUse=   307 1.00D-06 EigRej= -1.00D+00 NBFU=   307
 ExpMin= 1.22D-01 ExpMax= 9.18D+03 ExpMxC= 1.38D+03 IAcc=3 IRadAn=         5 AccDes= 0.00D+00
 Harris functional with IExCor= 4639 and IRadAn=       5 diagonalized for initial guess.
 HarFok:  IExCor= 4639 AccDes= 0.00D+00 IRadAn=         5 IDoV= 1 UseB2=F ITyADJ=14
 ICtDFT=  3500011 ScaDFX=  1.000000  1.000000  1.000000  1.000000
 FoFCou: FMM=F IPFlag=           0 FMFlag=      100000 FMFlg1=           0
         NFxFlg=           0 DoJE=T BraDBF=F KetDBF=T FulRan=T
         wScrn=  0.000000 ICntrl=       500 IOpCl=  0 I1Cent=   200000004 NGrid=           0
         NMat0=    1 NMatS0=      1 NMatT0=    0 NMatD0=    1 NMtDS0=    0 NMtDT0=    0
 Petite list used in FoFCou.
 Requested convergence on RMS density matrix=1.00D-08 within 128 cycles.
 Requested convergence on MAX density matrix=1.00D-06.
 Requested convergence on             energy=1.00D-06.
 No special actions if energy rises.
 Integral accuracy reduced to 1.0D-05 until final iterations.
 Initial convergence to 1.0D-05 achieved.  Increase integral accuracy.
 SCF Done:  E(RwB97XD) =  -1105.64021975     A.U. after   16 cycles
            NFock= 16  Conv=0.34D-08     -V/T= 2.0071

 **********************************************************************

            Population analysis using the SCF Density.

 **********************************************************************

 Orbital symmetries:
       Occupied  (A) (A) (A) (A) (A) (A) (A) (A) (A) (A) (A) (A)
                 (A) (A) (A) (A) (A) (A) (A) (A) (A) (A) (A) (A)
                 (A) (A) (A) (A) (A) (A) (A) (A) (A) (A) (A) (A)
                 (A) (A) (A) (A) (A) (A) (A) (A) (A) (A) (A) (A)
                 (A) (A) (A) (A) (A) (A) (A) (A) (A) (A) (A) (A)
                 (A) (A) (A) (A) (A)
       Virtual   (A) (A) (A) (A) (A) (A) (A) (A) (A) (A) (A) (A)
                 (A) (A) (A) (A) (A) (A) (A) (A) (A) (A) (A) (A)
                 (A) (A) (A) (A) (A) (A) (A) (A) (A) (A) (A) (A)
                 (A) (A) (A) (A) (A) (A) (A) (A) (A) (A) (A) (A)
                 (A) (A) (A) (A) (A) (A) (A) (A) (A) (A) (A) (A)
                 (A) (A) (A) (A) (A) (A) (A) (A) (A) (A) (A) (A)
                 (A) (A) (A) (A) (A) (A) (A) (A) (A) (A) (A) (A)
                 (A) (A) (A) (A) (A) (A) (A) (A) (A) (A) (A) (A)
                 (A) (A) (A) (A) (A) (A) (A) (A) (A) (A) (A) (A)
                 (A) (A) (A) (A) (A) (A) (A) (A) (A) (A) (A) (A)
                 (A) (A) (A) (A) (A) (A) (A) (A) (A) (A) (A) (A)
                 (A) (A) (A) (A) (A) (A) (A) (A) (A) (A) (A) (A)
                 (A) (A) (A) (A) (A) (A) (A) (A) (A) (A) (A) (A)
                 (A) (A) (A) (A) (A) (A) (A) (A) (A) (A) (A) (A)
                 (A) (A) (A) (A) (A) (A) (A) (A) (A) (A) (A) (A)
                 (A) (A) (A) (A) (A) (A) (A) (A) (A) (A) (A) (A)
                 (A) (A) (A) (A) (A) (A) (A) (A) (A) (A) (A) (A)
                 (A) (A) (A) (A) (A) (A) (A) (A) (A) (A) (A) (A)
                 (A) (A) (A) (A) (A) (A) (A) (A) (A) (A) (A) (A)
                 (A) (A) (A) (A) (A) (A) (A) (A) (A) (A) (A) (A)
                 (A) (A)
 The electronic state is 1-A.
 Alpha  occ. eigenvalues --  -89.25765 -19.26001 -19.25579 -14.50301 -10.35749
 Alpha  occ. eigenvalues --  -10.33357 -10.32442 -10.32180 -10.32067 -10.31364
 Alpha  occ. eigenvalues --  -10.31320 -10.30728 -10.30669 -10.30533 -10.30145
 Alpha  occ. eigenvalues --  -10.29704 -10.29417  -8.27523  -6.22973  -6.22845
 Alpha  occ. eigenvalues --   -6.22711  -1.20280  -1.08731  -1.05607  -0.98570
 Alpha  occ. eigenvalues --   -0.95518  -0.90180  -0.86361  -0.85210  -0.84824
 Alpha  occ. eigenvalues --   -0.81360  -0.75974  -0.72631  -0.71733  -0.70820
 Alpha  occ. eigenvalues --   -0.68160  -0.64696  -0.63718  -0.60386  -0.58992
 Alpha  occ. eigenvalues --   -0.57573  -0.56562  -0.54947  -0.54013  -0.53778
 Alpha  occ. eigenvalues --   -0.52990  -0.52883  -0.52656  -0.51518  -0.49442
 Alpha  occ. eigenvalues --   -0.48466  -0.47601  -0.46530  -0.46151  -0.44241
 Alpha  occ. eigenvalues --   -0.44196  -0.43031  -0.41231  -0.40994  -0.39076
 Alpha  occ. eigenvalues --   -0.38242  -0.35302  -0.34086  -0.33925  -0.30985
 Alpha virt. eigenvalues --    0.03217   0.04380   0.05864   0.06116   0.10836
 Alpha virt. eigenvalues --    0.12997   0.13646   0.13988   0.15270   0.15883
 Alpha virt. eigenvalues --    0.17039   0.17510   0.18757   0.19323   0.20648
 Alpha virt. eigenvalues --    0.20927   0.21304   0.22604   0.23659   0.24054
 Alpha virt. eigenvalues --    0.24330   0.25399   0.27963   0.29639   0.33867
 Alpha virt. eigenvalues --    0.35659   0.36232   0.37151   0.37206   0.37867
 Alpha virt. eigenvalues --    0.39146   0.39701   0.39952   0.41299   0.43755
 Alpha virt. eigenvalues --    0.46511   0.46867   0.47755   0.48326   0.48862
 Alpha virt. eigenvalues --    0.49073   0.51399   0.51787   0.51963   0.54028
 Alpha virt. eigenvalues --    0.54928   0.55065   0.56208   0.56463   0.56963
 Alpha virt. eigenvalues --    0.57664   0.59096   0.59932   0.60456   0.61782
 Alpha virt. eigenvalues --    0.62666   0.63752   0.64275   0.65097   0.65462
 Alpha virt. eigenvalues --    0.69288   0.69472   0.70442   0.71101   0.71909
 Alpha virt. eigenvalues --    0.72490   0.72951   0.73216   0.74230   0.74353
 Alpha virt. eigenvalues --    0.74581   0.75172   0.76368   0.76819   0.77038
 Alpha virt. eigenvalues --    0.77519   0.78530   0.79176   0.79454   0.80612
 Alpha virt. eigenvalues --    0.80708   0.81543   0.82825   0.83405   0.84157
 Alpha virt. eigenvalues --    0.84389   0.86889   0.88270   0.89123   0.90027
 Alpha virt. eigenvalues --    0.91617   0.92789   0.93338   0.94717   0.97323
 Alpha virt. eigenvalues --    0.98346   0.98804   1.01697   1.02927   1.05677
 Alpha virt. eigenvalues --    1.07573   1.10351   1.11893   1.13088   1.13627
 Alpha virt. eigenvalues --    1.14699   1.15529   1.18230   1.20992   1.23322
 Alpha virt. eigenvalues --    1.24879   1.26333   1.27279   1.27943   1.28794
 Alpha virt. eigenvalues --    1.30063   1.31693   1.31903   1.32542   1.32871
 Alpha virt. eigenvalues --    1.34969   1.35343   1.36106   1.37610   1.38164
 Alpha virt. eigenvalues --    1.39342   1.41759   1.42379   1.43814   1.49929
 Alpha virt. eigenvalues --    1.54893   1.56698   1.58608   1.60796   1.62535
 Alpha virt. eigenvalues --    1.63922   1.64858   1.71739   1.74522   1.75707
 Alpha virt. eigenvalues --    1.76603   1.77120   1.78274   1.80177   1.81369
 Alpha virt. eigenvalues --    1.82097   1.82926   1.83101   1.83350   1.84060
 Alpha virt. eigenvalues --    1.84719   1.85736   1.86402   1.87034   1.87808
 Alpha virt. eigenvalues --    1.87993   1.89211   1.90327   1.91868   1.93110
 Alpha virt. eigenvalues --    1.93490   1.94028   1.96217   2.00504   2.02647
 Alpha virt. eigenvalues --    2.04121   2.04683   2.06373   2.06842   2.08401
 Alpha virt. eigenvalues --    2.10283   2.10801   2.13290   2.14529   2.16823
 Alpha virt. eigenvalues --    2.17762   2.19954   2.20814   2.21600   2.22747
 Alpha virt. eigenvalues --    2.24573   2.25063   2.29475   2.31111   2.31602
 Alpha virt. eigenvalues --    2.33267   2.35157   2.35982   2.38646   2.38692
 Alpha virt. eigenvalues --    2.40541   2.42653   2.43806   2.44278   2.45820
 Alpha virt. eigenvalues --    2.46647   2.51863   2.55154   2.56110   2.57630
 Alpha virt. eigenvalues --    2.59699   2.61575   2.68562   2.70417   2.71591
 Alpha virt. eigenvalues --    2.72335   2.72433   2.72909   2.73498   2.74123
 Alpha virt. eigenvalues --    2.74554   2.75294   2.77096   2.78595   2.81818
 Alpha virt. eigenvalues --    2.83130   2.83172   2.84351   2.85219   2.85978
 Alpha virt. eigenvalues --    2.90616   2.94452   2.95385   2.96188   2.99608
 Alpha virt. eigenvalues --    3.00919   3.01432   3.03148   3.03718   3.04244
 Alpha virt. eigenvalues --    3.07317   3.09208   3.22829   3.23716   3.25445
 Alpha virt. eigenvalues --    3.31318   3.33738   3.34995   3.45443   3.47061
 Alpha virt. eigenvalues --    3.69699   3.78516
          Condensed to atoms (all electrons):
               1          2          3          4          5          6
     1  O    8.176725   0.378968  -0.035237  -0.000415   0.000251  -0.000004
     2  S    0.378968  13.962270   0.194706  -0.028745   0.000701  -0.000159
     3  N   -0.035237   0.194706   6.874207   0.247045  -0.072653   0.007065
     4  C   -0.000415  -0.028745   0.247045   5.211632   0.256235   0.109600
     5  C    0.000251   0.000701  -0.072653   0.256235   5.150627   0.307927
     6  C   -0.000004  -0.000159   0.007065   0.109600   0.307927   5.009688
     7  C   -0.000031   0.000045  -0.000411  -0.163530   0.085850   0.285224
     8  C    0.001587  -0.001028   0.007532   0.106016  -0.146347   0.096539
     9  C   -0.022505  -0.000329  -0.080665   0.261171   0.073213  -0.146106
    10  C   -0.043286   0.244949  -0.075792   0.003124  -0.000730   0.000007
    11  C   -0.003105  -0.027180   0.007659  -0.000424   0.000004   0.000000
    12  C   -0.000001  -0.000764   0.000006  -0.000000   0.000000  -0.000000
    13  C   -0.000025   0.001068  -0.000081   0.000005  -0.000000   0.000000
    14  C   -0.000000   0.000009   0.000000  -0.000000   0.000000   0.000000
    15  C   -0.000067   0.002145   0.000136  -0.000115  -0.000010   0.000000
    16  C   -0.002911  -0.042538  -0.017834  -0.000003  -0.000056  -0.000034
    17  O   -0.027756   0.410167  -0.042201   0.000545  -0.000129   0.000000
    18  H    0.001524  -0.009070   0.325095   0.000303  -0.014512   0.000267
    19  H    0.000011  -0.000105  -0.009664  -0.081976   0.452253  -0.059544
    20  H   -0.000000   0.000003  -0.000120   0.015616  -0.068612   0.453307
    21  H    0.000000   0.000000   0.000011  -0.001444   0.014476  -0.070342
    22  H    0.000020  -0.000006  -0.000112   0.015232  -0.001917   0.014057
    23  H    0.036564  -0.006136  -0.011525  -0.070431   0.013501  -0.002239
    24  H    0.001385  -0.005995   0.000543  -0.000035   0.000000   0.000000
    25  H    0.000002  -0.000185   0.000001  -0.000000  -0.000000   0.000000
    26  H   -0.000000   0.000000   0.000000   0.000000  -0.000000  -0.000000
    27  H    0.000000  -0.000000   0.000000  -0.000000   0.000000  -0.000000
    28  H    0.000000  -0.000000   0.000000  -0.000000  -0.000000   0.000000
    29  H    0.000002  -0.000148   0.000001   0.000009   0.000000  -0.000000
    30  H    0.000424  -0.018778   0.010834  -0.001111  -0.000606   0.000117
               7          8          9         10         11         12
     1  O   -0.000031   0.001587  -0.022505  -0.043286  -0.003105  -0.000001
     2  S    0.000045  -0.001028  -0.000329   0.244949  -0.027180  -0.000764
     3  N   -0.000411   0.007532  -0.080665  -0.075792   0.007659   0.000006
     4  C   -0.163530   0.106016   0.261171   0.003124  -0.000424  -0.000000
     5  C    0.085850  -0.146347   0.073213  -0.000730   0.000004   0.000000
     6  C    0.285224   0.096539  -0.146106   0.000007   0.000000  -0.000000
     7  C    5.108284   0.271471   0.087413  -0.000004   0.000000   0.000000
     8  C    0.271471   5.053705   0.263722  -0.000121  -0.000004   0.000000
     9  C    0.087413   0.263722   5.205939  -0.002073  -0.000003   0.000005
    10  C   -0.000004  -0.000121  -0.002073   5.632299   0.174496   0.102341
    11  C    0.000000  -0.000004  -0.000003   0.174496   5.051381   0.320276
    12  C    0.000000   0.000000   0.000005   0.102341   0.320276   5.044639
    13  C   -0.000000  -0.000000  -0.000003  -0.190184   0.098607   0.294035
    14  C   -0.000000  -0.000000  -0.000000   0.000583   0.010522  -0.076883
    15  C    0.000001  -0.000002  -0.000115   0.094433  -0.127228   0.053675
    16  C    0.000006  -0.000042   0.001454   0.292262   0.066528  -0.124080
    17  O   -0.000000   0.000006   0.000187  -0.051218   0.002607   0.000601
    18  H   -0.000002  -0.000251   0.004159   0.004928  -0.000554  -0.000019
    19  H    0.014749  -0.002153   0.016680  -0.000015   0.000000   0.000000
    20  H   -0.069218   0.013763  -0.001868  -0.000000   0.000000   0.000000
    21  H    0.451674  -0.067658   0.014728   0.000000  -0.000000   0.000000
    22  H   -0.074340   0.457046  -0.066314   0.000002  -0.000000  -0.000000
    23  H    0.013593  -0.049842   0.445136  -0.000901  -0.000016   0.000000
    24  H   -0.000000   0.000000   0.000009  -0.077294   0.449396  -0.048864
    25  H   -0.000000   0.000000   0.000000   0.016716  -0.067806   0.459919
    26  H    0.000000  -0.000000  -0.000000   0.000100  -0.000396  -0.002399
    27  H   -0.000000   0.000000   0.000000  -0.000008   0.000883  -0.009458
    28  H   -0.000000   0.000000  -0.000000   0.000030  -0.000540   0.006639
    29  H   -0.000000   0.000000   0.000007   0.017079  -0.002154   0.014580
    30  H   -0.000013   0.000162  -0.000747  -0.065599   0.013897  -0.001786
              13         14         15         16         17         18
     1  O   -0.000025  -0.000000  -0.000067  -0.002911  -0.027756   0.001524
     2  S    0.001068   0.000009   0.002145  -0.042538   0.410167  -0.009070
     3  N   -0.000081   0.000000   0.000136  -0.017834  -0.042201   0.325095
     4  C    0.000005  -0.000000  -0.000115  -0.000003   0.000545   0.000303
     5  C   -0.000000   0.000000  -0.000010  -0.000056  -0.000129  -0.014512
     6  C    0.000000   0.000000   0.000000  -0.000034   0.000000   0.000267
     7  C   -0.000000  -0.000000   0.000001   0.000006  -0.000000  -0.000002
     8  C   -0.000000  -0.000000  -0.000002  -0.000042   0.000006  -0.000251
     9  C   -0.000003  -0.000000  -0.000115   0.001454   0.000187   0.004159
    10  C   -0.190184   0.000583   0.094433   0.292262  -0.051218   0.004928
    11  C    0.098607   0.010522  -0.127228   0.066528   0.002607  -0.000554
    12  C    0.294035  -0.076883   0.053675  -0.124080   0.000601  -0.000019
    13  C    5.256802   0.408167   0.287934   0.093289  -0.000033   0.000011
    14  C    0.408167   4.549368  -0.077509   0.009474  -0.000000  -0.000000
    15  C    0.287934  -0.077509   5.054880   0.329803  -0.000033  -0.000015
    16  C    0.093289   0.009474   0.329803   4.973269  -0.000547   0.000901
    17  O   -0.000033  -0.000000  -0.000033  -0.000547   8.176724   0.014313
    18  H    0.000011  -0.000000  -0.000015   0.000901   0.014313   0.499644
    19  H   -0.000000   0.000000  -0.000000   0.000006  -0.000029   0.003104
    20  H   -0.000000  -0.000000  -0.000000   0.000000  -0.000000  -0.000023
    21  H    0.000000   0.000000   0.000000   0.000000   0.000000  -0.000001
    22  H    0.000000   0.000000  -0.000000  -0.000001  -0.000000   0.000011
    23  H   -0.000001  -0.000000  -0.000010   0.000212   0.000440  -0.000556
    24  H    0.014031  -0.000242  -0.001583   0.012031   0.006247  -0.000062
    25  H   -0.074421  -0.014336   0.014440  -0.001824  -0.000001  -0.000000
    26  H   -0.012191   0.389696  -0.003971  -0.000249   0.000000  -0.000000
    27  H   -0.018541   0.392344   0.007792  -0.000519   0.000000  -0.000000
    28  H   -0.019192   0.391908  -0.008079   0.000937  -0.000000   0.000000
    29  H   -0.079012  -0.012988   0.460084  -0.064661   0.000001  -0.000003
    30  H    0.014716  -0.000221  -0.064915   0.459019   0.000167   0.000129
              19         20         21         22         23         24
     1  O    0.000011  -0.000000   0.000000   0.000020   0.036564   0.001385
     2  S   -0.000105   0.000003   0.000000  -0.000006  -0.006136  -0.005995
     3  N   -0.009664  -0.000120   0.000011  -0.000112  -0.011525   0.000543
     4  C   -0.081976   0.015616  -0.001444   0.015232  -0.070431  -0.000035
     5  C    0.452253  -0.068612   0.014476  -0.001917   0.013501   0.000000
     6  C   -0.059544   0.453307  -0.070342   0.014057  -0.002239   0.000000
     7  C    0.014749  -0.069218   0.451674  -0.074340   0.013593  -0.000000
     8  C   -0.002153   0.013763  -0.067658   0.457046  -0.049842   0.000000
     9  C    0.016680  -0.001868   0.014728  -0.066314   0.445136   0.000009
    10  C   -0.000015  -0.000000   0.000000   0.000002  -0.000901  -0.077294
    11  C    0.000000   0.000000  -0.000000  -0.000000  -0.000016   0.449396
    12  C    0.000000   0.000000   0.000000  -0.000000   0.000000  -0.048864
    13  C   -0.000000  -0.000000   0.000000   0.000000  -0.000001   0.014031
    14  C    0.000000  -0.000000   0.000000   0.000000  -0.000000  -0.000242
    15  C   -0.000000  -0.000000   0.000000  -0.000000  -0.000010  -0.001583
    16  C    0.000006   0.000000   0.000000  -0.000001   0.000212   0.012031
    17  O   -0.000029  -0.000000   0.000000  -0.000000   0.000440   0.006247
    18  H    0.003104  -0.000023  -0.000001   0.000011  -0.000556  -0.000062
    19  H    0.686797  -0.013022  -0.000230   0.000024  -0.000094   0.000000
    20  H   -0.013022   0.667199  -0.012299  -0.000254   0.000014   0.000000
    21  H   -0.000230  -0.012299   0.671711  -0.011953  -0.000193  -0.000000
    22  H    0.000024  -0.000254  -0.011953   0.663921  -0.012706  -0.000000
    23  H   -0.000094   0.000014  -0.000193  -0.012706   0.610438   0.000001
    24  H    0.000000   0.000000  -0.000000  -0.000000   0.000001   0.632670
    25  H    0.000000   0.000000   0.000000   0.000000  -0.000000  -0.011471
    26  H    0.000000   0.000000   0.000000  -0.000000   0.000000   0.000004
    27  H   -0.000000   0.000000  -0.000000  -0.000000  -0.000000   0.000001
    28  H   -0.000000  -0.000000  -0.000000   0.000000  -0.000000   0.000008
    29  H    0.000000   0.000000  -0.000000  -0.000000  -0.000001   0.000024
    30  H   -0.000069  -0.000003  -0.000000  -0.000003  -0.000243  -0.000192
              25         26         27         28         29         30
     1  O    0.000002  -0.000000   0.000000   0.000000   0.000002   0.000424
     2  S   -0.000185   0.000000  -0.000000  -0.000000  -0.000148  -0.018778
     3  N    0.000001   0.000000   0.000000   0.000000   0.000001   0.010834
     4  C   -0.000000   0.000000  -0.000000  -0.000000   0.000009  -0.001111
     5  C   -0.000000  -0.000000   0.000000  -0.000000   0.000000  -0.000606
     6  C    0.000000  -0.000000  -0.000000   0.000000  -0.000000   0.000117
     7  C   -0.000000   0.000000  -0.000000  -0.000000  -0.000000  -0.000013
     8  C    0.000000  -0.000000   0.000000   0.000000   0.000000   0.000162
     9  C    0.000000  -0.000000   0.000000  -0.000000   0.000007  -0.000747
    10  C    0.016716   0.000100  -0.000008   0.000030   0.017079  -0.065599
    11  C   -0.067806  -0.000396   0.000883  -0.000540  -0.002154   0.013897
    12  C    0.459919  -0.002399  -0.009458   0.006639   0.014580  -0.001786
    13  C   -0.074421  -0.012191  -0.018541  -0.019192  -0.079012   0.014716
    14  C   -0.014336   0.389696   0.392344   0.391908  -0.012988  -0.000221
    15  C    0.014440  -0.003971   0.007792  -0.008079   0.460084  -0.064915
    16  C   -0.001824  -0.000249  -0.000519   0.000937  -0.064661   0.459019
    17  O   -0.000001   0.000000   0.000000  -0.000000   0.000001   0.000167
    18  H   -0.000000  -0.000000  -0.000000   0.000000  -0.000003   0.000129
    19  H    0.000000   0.000000  -0.000000  -0.000000   0.000000  -0.000069
    20  H    0.000000   0.000000   0.000000  -0.000000   0.000000  -0.000003
    21  H    0.000000   0.000000  -0.000000  -0.000000  -0.000000  -0.000000
    22  H    0.000000  -0.000000  -0.000000   0.000000  -0.000000  -0.000003
    23  H   -0.000000   0.000000  -0.000000  -0.000000  -0.000001  -0.000243
    24  H   -0.011471   0.000004   0.000001   0.000008   0.000024  -0.000192
    25  H    0.665026   0.000617   0.004842   0.000183  -0.000222   0.000022
    26  H    0.000617   0.598364  -0.017378  -0.017248   0.000876   0.000003
    27  H    0.004842  -0.017378   0.621939  -0.022196   0.000132   0.000008
    28  H    0.000183  -0.017248  -0.022196   0.619116   0.004107  -0.000009
    29  H   -0.000222   0.000876   0.000132   0.004107   0.669828  -0.012322
    30  H    0.000022   0.000003   0.000008  -0.000009  -0.012322   0.640181
 Mulliken charges:
               1
     1  O   -0.462119
     2  S    0.946133
     3  N   -0.328545
     4  C    0.121700
     5  C   -0.049467
     6  C   -0.005368
     7  C   -0.010763
     8  C   -0.004103
     9  C   -0.053094
    10  C   -0.076125
    11  C    0.033154
    12  C   -0.032463
    13  C   -0.074980
    14  C    0.030107
    15  C   -0.021667
    16  C    0.016108
    17  O   -0.490059
    18  H    0.170678
    19  H   -0.006722
    20  H    0.015518
    21  H    0.011519
    22  H    0.017294
    23  H    0.034996
    24  H    0.029387
    25  H    0.008497
    26  H    0.064170
    27  H    0.040157
    28  H    0.044337
    29  H    0.004781
    30  H    0.026939
 Sum of Mulliken charges =  -0.00000
 Mulliken charges with hydrogens summed into heavy atoms:
               1
     1  O   -0.462119
     2  S    0.946133
     3  N   -0.157868
     4  C    0.121700
     5  C   -0.056189
     6  C    0.010150
     7  C    0.000756
     8  C    0.013191
     9  C   -0.018098
    10  C   -0.076125
    11  C    0.062541
    12  C   -0.023966
    13  C   -0.074980
    14  C    0.178771
    15  C   -0.016886
    16  C    0.043047
    17  O   -0.490059
 Electronic spatial extent (au):  <R**2>=           5120.3698
 Charge=             -0.0000 electrons
 Dipole moment (field-independent basis, Debye):
    X=             -1.2738    Y=             -3.8194    Z=             -1.3359  Tot=              4.2421
 Quadrupole moment (field-independent basis, Debye-Ang):
   XX=            -87.6843   YY=           -112.1962   ZZ=           -104.8550
   XY=              0.7460   XZ=             -4.9244   YZ=              0.0669
 Traceless Quadrupole moment (field-independent basis, Debye-Ang):
   XX=             13.8942   YY=            -10.6177   ZZ=             -3.2765
   XY=              0.7460   XZ=             -4.9244   YZ=              0.0669
 Octapole moment (field-independent basis, Debye-Ang**2):
  XXX=            -44.6222  YYY=            -14.8177  ZZZ=             -7.6293  XYY=            -12.3841
  XXY=            -22.8889  XXZ=              6.6895  XZZ=             20.6208  YZZ=             -1.7313
  YYZ=              2.5335  XYZ=            -10.2789
 Hexadecapole moment (field-independent basis, Debye-Ang**3):
 XXXX=          -4753.9431 YYYY=          -1353.8272 ZZZZ=           -490.0810 XXXY=            -73.6309
 XXXZ=            -42.7257 YYYX=             46.4387 YYYZ=             31.3020 ZZZX=             -5.6006
 ZZZY=            -20.0994 XXYY=           -995.9595 XXZZ=           -909.5804 YYZZ=           -312.8795
 XXYZ=              3.3596 YYXZ=            -14.4838 ZZXY=             -7.8229
 N-N= 1.303778604262D+03 E-N=-5.196288518194D+03  KE= 1.097888615623D+03
   1 Symmetry operations used in ECPInt.
 ECPInt:  NShTT=   10296 NPrTT=   38220 LenC2=    9315 LenP2D=   24489.
 LDataN:  DoStor=T MaxTD1= 5 Len=  102
 Calling FoFJK, ICntrl=      2127 FMM=F ISym2X=0 I1Cent= 0 IOpClX= 0 NMat=1 NMatS=1 NMatT=0.
 ***** Axes restored to original set *****
 -------------------------------------------------------------------
 Center     Atomic                   Forces (Hartrees/Bohr)
 Number     Number              X              Y              Z
 -------------------------------------------------------------------
      1        8          -0.007484642   -0.008490157   -0.054047178
      2       16          -0.029451366    0.031213365    0.005000398
      3        7          -0.011060115    0.026166031    0.018699018
      4        6           0.022813547   -0.011154168    0.012155485
      5        6          -0.013112322    0.007605067   -0.003800278
      6        6           0.003060702   -0.001238017    0.001848339
      7        6           0.005931052   -0.003150979    0.004136044
      8        6           0.005287554   -0.004785405   -0.002495205
      9        6          -0.012321605    0.003333471   -0.004579891
     10        6           0.014292848    0.006006926   -0.004001581
     11        6          -0.004800789    0.012276142    0.002215417
     12        6           0.003226372   -0.000039564   -0.000576294
     13        6          -0.003298068   -0.002691126    0.002140227
     14        6          -0.004144315   -0.001146718   -0.003377068
     15        6          -0.001086272    0.003219390    0.000503335
     16        6           0.006576112   -0.009408998   -0.000108583
     17        8           0.018585902   -0.033059780    0.039069114
     18        1           0.005321668    0.001064365   -0.018308286
     19        1          -0.000773423   -0.002332482   -0.012889167
     20        1           0.006196320   -0.005556037   -0.006264295
     21        1           0.008359538   -0.004671096    0.004597837
     22        1           0.000159197    0.002089437    0.009953728
     23        1          -0.003215023    0.002012681    0.007091238
     24        1          -0.002263040    0.010453927    0.000000333
     25        1          -0.009651931    0.006432061    0.001320930
     26        1          -0.000894424   -0.002541239    0.007140831
     27        1          -0.005424343    0.002720249   -0.000205032
     28        1          -0.000221589   -0.005980641   -0.002251805
     29        1           0.001911052   -0.011553335   -0.000929371
     30        1           0.007481403   -0.006793373   -0.002038239
 -------------------------------------------------------------------
 Cartesian Forces:  Max     0.054047178 RMS     0.011827871

 GradGradGradGradGradGradGradGradGradGradGradGradGradGradGradGradGradGrad
 Berny optimization.
 FormGI is forming the generalized inverse of G from B-inverse, IUseBI=4.
 Internal  Forces:  Max     0.053957119 RMS     0.010305409
 Search for a local minimum.
 Step number   1 out of a maximum of  162
 All quantities printed in internal units (Hartrees-Bohrs-Radians)
 Mixed Optimization -- RFO/linear search
 Second derivative matrix not updated -- first step.
 ITU=  0
     Eigenvalues ---    0.00418   0.00926   0.01171   0.01604   0.01744
     Eigenvalues ---    0.01761   0.02005   0.02140   0.02245   0.02269
     Eigenvalues ---    0.02275   0.02300   0.02310   0.02340   0.02347
     Eigenvalues ---    0.02348   0.02369   0.02384   0.02386   0.02393
     Eigenvalues ---    0.02395   0.02420   0.02630   0.07312   0.07341
     Eigenvalues ---    0.09951   0.11445   0.12081   0.13475   0.15992
     Eigenvalues ---    0.15999   0.16000   0.16000   0.16000   0.16000
     Eigenvalues ---    0.16000   0.16000   0.16000   0.16000   0.16000
     Eigenvalues ---    0.16000   0.17897   0.22000   0.22000   0.22000
     Eigenvalues ---    0.22943   0.22976   0.23458   0.23997   0.24986
     Eigenvalues ---    0.24990   0.24999   0.25000   0.26404   0.33679
     Eigenvalues ---    0.34770   0.34771   0.34773   0.34779   0.36234
     Eigenvalues ---    0.36278   0.36288   0.36297   0.36438   0.36439
     Eigenvalues ---    0.36463   0.36511   0.36713   0.42623   0.43490
     Eigenvalues ---    0.44022   0.44274   0.46496   0.47105   0.47692
     Eigenvalues ---    0.47819   0.48068   0.49089   0.49229   0.49283
     Eigenvalues ---    0.50028   0.50102   0.76380   0.76506
 RFO step:  Lambda=-4.11929261D-02 EMin= 4.18143064D-03
 Linear search not attempted -- first point.
 Maximum step size (   0.300) exceeded in Quadratic search.
    -- Step size scaled by   0.937
 Iteration  1 RMS(Cart)=  0.19272879 RMS(Int)=  0.00763129
 Iteration  2 RMS(Cart)=  0.03432230 RMS(Int)=  0.00074247
 Iteration  3 RMS(Cart)=  0.00052532 RMS(Int)=  0.00071900
 Iteration  4 RMS(Cart)=  0.00000057 RMS(Int)=  0.00071900
 Variable       Old X    -DE/DX   Delta X   Delta X   Delta X     New X
                                 (Linear)    (Quad)   (Total)
    R1        2.83556  -0.05396   0.00000  -0.06268  -0.06268   2.77289
    R2        3.23035  -0.00065   0.00000  -0.00155  -0.00155   3.22880
    R3        3.39467  -0.00195   0.00000  -0.00600  -0.00600   3.38868
    R4        2.83628  -0.05389   0.00000  -0.06269  -0.06269   2.77359
    R5        2.63576   0.02919   0.00000   0.05400   0.05400   2.68976
    R6        1.88968   0.01817   0.00000   0.03284   0.03284   1.92252
    R7        2.64469   0.00525   0.00000   0.00920   0.00920   2.65389
    R8        2.64407   0.00728   0.00000   0.01337   0.01338   2.65745
    R9        2.59874   0.01574   0.00000   0.02691   0.02690   2.62563
   R10        2.03290   0.01307   0.00000   0.03013   0.03013   2.06304
   R11        2.60910   0.01105   0.00000   0.01978   0.01977   2.62886
   R12        2.03634   0.01036   0.00000   0.02401   0.02401   2.06036
   R13        2.60843   0.01245   0.00000   0.02256   0.02256   2.63099
   R14        2.03620   0.01062   0.00000   0.02460   0.02460   2.06080
   R15        2.59663   0.01962   0.00000   0.03415   0.03416   2.63079
   R16        2.03649   0.01008   0.00000   0.02338   0.02338   2.05987
   R17        2.02981   0.00683   0.00000   0.01568   0.01568   2.04549
   R18        2.59621   0.01988   0.00000   0.03486   0.03486   2.63107
   R19        2.59707   0.01994   0.00000   0.03515   0.03516   2.63223
   R20        2.60853   0.01047   0.00000   0.01832   0.01831   2.62684
   R21        2.03718   0.01052   0.00000   0.02441   0.02441   2.06159
   R22        2.62225   0.01421   0.00000   0.02490   0.02489   2.64713
   R23        2.03402   0.01158   0.00000   0.02675   0.02675   2.06076
   R24        2.81174   0.01279   0.00000   0.03168   0.03168   2.84342
   R25        2.62170   0.01413   0.00000   0.02485   0.02484   2.64655
   R26        2.06045   0.00760   0.00000   0.01831   0.01831   2.07876
   R27        2.06048   0.00593   0.00000   0.01429   0.01429   2.07477
   R28        2.06050   0.00622   0.00000   0.01497   0.01497   2.07547
   R29        2.60740   0.01255   0.00000   0.02219   0.02220   2.62960
   R30        2.03401   0.01165   0.00000   0.02690   0.02690   2.06091
   R31        2.03364   0.00994   0.00000   0.02293   0.02293   2.05657
    A1        2.01982  -0.00412   0.00000  -0.01565  -0.01964   2.00018
    A2        1.83719   0.00202   0.00000   0.03598   0.03559   1.87278
    A3        2.11459  -0.00331   0.00000  -0.04034  -0.04322   2.07136
    A4        1.72894   0.02026   0.00000   0.08626   0.08547   1.81441
    A5        1.84763  -0.01093   0.00000  -0.05532  -0.05781   1.78982
    A6        1.87104   0.00259   0.00000   0.02498   0.02643   1.89747
    A7        2.13496   0.04722   0.00000   0.17005   0.16830   2.30326
    A8        1.81337  -0.01486   0.00000  -0.03220  -0.03402   1.77935
    A9        2.03481  -0.01681   0.00000  -0.04938  -0.05248   1.98233
   A10        2.07793  -0.02363   0.00000  -0.07538  -0.07544   2.00249
   A11        2.15266   0.02120   0.00000   0.06883   0.06864   2.22130
   A12        2.05227   0.00238   0.00000   0.00589   0.00579   2.05806
   A13        2.11237   0.00219   0.00000   0.00604   0.00603   2.11839
   A14        2.06999   0.00005   0.00000   0.00231   0.00231   2.07231
   A15        2.10080  -0.00224   0.00000  -0.00833  -0.00832   2.09248
   A16        2.09818   0.00037   0.00000   0.00138   0.00137   2.09955
   A17        2.09279  -0.00128   0.00000  -0.00580  -0.00580   2.08699
   A18        2.09221   0.00091   0.00000   0.00442   0.00442   2.09664
   A19        2.09178  -0.00502   0.00000  -0.01596  -0.01597   2.07581
   A20        2.09596   0.00210   0.00000   0.00610   0.00609   2.10206
   A21        2.09543   0.00292   0.00000   0.00989   0.00989   2.10532
   A22        2.09645   0.00472   0.00000   0.01902   0.01904   2.11549
   A23        2.09387  -0.00099   0.00000  -0.00312  -0.00313   2.09074
   A24        2.09283  -0.00373   0.00000  -0.01589  -0.01590   2.07693
   A25        2.11532  -0.00464   0.00000  -0.01634  -0.01633   2.09899
   A26        2.07174   0.00630   0.00000   0.02683   0.02680   2.09854
   A27        2.09567  -0.00164   0.00000  -0.01018  -0.01021   2.08547
   A28        2.07397  -0.01013   0.00000  -0.03390  -0.03391   2.04006
   A29        2.11142   0.00874   0.00000   0.02682   0.02680   2.13822
   A30        2.09777   0.00139   0.00000   0.00702   0.00703   2.10480
   A31        2.09333  -0.00235   0.00000  -0.00735  -0.00735   2.08598
   A32        2.08049   0.00305   0.00000   0.01242   0.01242   2.09291
   A33        2.10936  -0.00070   0.00000  -0.00507  -0.00507   2.10429
   A34        2.10505   0.00256   0.00000   0.00740   0.00739   2.11244
   A35        2.09503  -0.00260   0.00000  -0.00985  -0.00984   2.08519
   A36        2.08311   0.00004   0.00000   0.00245   0.00246   2.08556
   A37        2.10730   0.00053   0.00000   0.00301   0.00301   2.11032
   A38        2.07136  -0.00087   0.00000  -0.00529  -0.00531   2.06605
   A39        2.10408   0.00034   0.00000   0.00241   0.00241   2.10649
   A40        1.93307   0.00009   0.00000  -0.00108  -0.00107   1.93199
   A41        1.94094   0.00112   0.00000   0.00614   0.00612   1.94706
   A42        1.93852   0.00112   0.00000   0.00578   0.00576   1.94427
   A43        1.88457  -0.00103   0.00000  -0.00590  -0.00590   1.87867
   A44        1.88558  -0.00126   0.00000  -0.00761  -0.00761   1.87797
   A45        1.87889  -0.00016   0.00000   0.00206   0.00202   1.88090
   A46        2.10328   0.00335   0.00000   0.01102   0.01102   2.11430
   A47        2.08265  -0.00020   0.00000   0.00134   0.00134   2.08399
   A48        2.09725  -0.00315   0.00000  -0.01236  -0.01236   2.08489
   A49        2.09554  -0.00408   0.00000  -0.01277  -0.01275   2.08279
   A50        2.08053   0.00478   0.00000   0.01917   0.01916   2.09969
   A51        2.10711  -0.00071   0.00000  -0.00640  -0.00641   2.10070
    D1        0.05712   0.01422   0.00000   0.12951   0.12901   0.18613
    D2       -2.29211   0.01091   0.00000   0.07638   0.07399  -2.21812
    D3       -1.89566   0.00156   0.00000   0.04286   0.04325  -1.85241
    D4        2.03830  -0.00176   0.00000  -0.01027  -0.01177   2.02653
    D5        2.45205  -0.00558   0.00000  -0.00007   0.00287   2.45491
    D6        0.10282  -0.00889   0.00000  -0.05321  -0.05215   0.05067
    D7        1.33080  -0.00175   0.00000  -0.01038  -0.01159   1.31921
    D8       -1.80357  -0.00122   0.00000  -0.00169  -0.00292  -1.80649
    D9       -2.85895   0.00268   0.00000   0.01991   0.02053  -2.83842
   D10        0.28986   0.00321   0.00000   0.02861   0.02920   0.31906
   D11       -0.94220  -0.00061   0.00000   0.00031   0.00094  -0.94125
   D12        2.20662  -0.00008   0.00000   0.00901   0.00961   2.21623
   D13       -2.94665  -0.00193   0.00000   0.00506   0.00571  -2.94094
   D14        0.22304  -0.00007   0.00000   0.03396   0.03461   0.25765
   D15       -0.68844   0.00781   0.00000   0.08928   0.08863  -0.59981
   D16        2.48125   0.00967   0.00000   0.11818   0.11753   2.59878
   D17       -3.11336   0.00041   0.00000   0.01054   0.00938  -3.10399
   D18        0.02127   0.00079   0.00000   0.01548   0.01451   0.03578
   D19        0.00175  -0.00101   0.00000  -0.01558  -0.01546  -0.01372
   D20        3.13638  -0.00063   0.00000  -0.01064  -0.01033   3.12605
   D21        3.11060  -0.00141   0.00000  -0.01768  -0.01880   3.09180
   D22       -0.06327  -0.00066   0.00000  -0.00667  -0.00742  -0.07069
   D23       -0.00328   0.00082   0.00000   0.01207   0.01208   0.00880
   D24        3.10603   0.00157   0.00000   0.02309   0.02345   3.12949
   D25        0.00137   0.00054   0.00000   0.00871   0.00842   0.00979
   D26       -3.14039   0.00036   0.00000   0.00522   0.00518  -3.13521
   D27       -3.13314   0.00015   0.00000   0.00363   0.00319  -3.12996
   D28        0.00828  -0.00004   0.00000   0.00015  -0.00005   0.00823
   D29       -0.00303   0.00018   0.00000   0.00232   0.00239  -0.00064
   D30       -3.13974  -0.00021   0.00000  -0.00343  -0.00330   3.14015
   D31        3.13873   0.00037   0.00000   0.00580   0.00565  -3.13881
   D32        0.00202  -0.00002   0.00000   0.00005  -0.00004   0.00199
   D33        0.00151  -0.00037   0.00000  -0.00585  -0.00569  -0.00418
   D34       -3.13137  -0.00060   0.00000  -0.00846  -0.00849  -3.13986
   D35        3.13822   0.00001   0.00000  -0.00012  -0.00000   3.13821
   D36        0.00533  -0.00021   0.00000  -0.00273  -0.00280   0.00253
   D37        0.00170  -0.00014   0.00000  -0.00157  -0.00173  -0.00003
   D38       -3.10718  -0.00105   0.00000  -0.01341  -0.01369  -3.12087
   D39        3.13459   0.00009   0.00000   0.00110   0.00111   3.13570
   D40        0.02571  -0.00081   0.00000  -0.01074  -0.01086   0.01485
   D41       -3.13428   0.00045   0.00000   0.00728   0.00715  -3.12713
   D42        0.00556   0.00078   0.00000   0.01219   0.01210   0.01766
   D43        0.00015  -0.00005   0.00000  -0.00126  -0.00125  -0.00111
   D44        3.13999   0.00028   0.00000   0.00365   0.00370  -3.13949
   D45        3.13464  -0.00068   0.00000  -0.00983  -0.00996   3.12468
   D46       -0.00919  -0.00075   0.00000  -0.01105  -0.01117  -0.02036
   D47        0.00037  -0.00009   0.00000  -0.00085  -0.00082  -0.00045
   D48        3.13972  -0.00016   0.00000  -0.00206  -0.00202   3.13770
   D49       -0.00580   0.00026   0.00000   0.00410   0.00408  -0.00172
   D50        3.13324   0.00043   0.00000   0.00641   0.00640   3.13963
   D51        3.13757  -0.00009   0.00000  -0.00090  -0.00092   3.13665
   D52       -0.00658   0.00008   0.00000   0.00140   0.00139  -0.00518
   D53        3.12021  -0.00001   0.00000  -0.00009  -0.00008   3.12013
   D54        0.01074  -0.00032   0.00000  -0.00480  -0.00478   0.00596
   D55       -0.01885  -0.00018   0.00000  -0.00236  -0.00238  -0.02123
   D56       -3.12832  -0.00049   0.00000  -0.00707  -0.00708  -3.13540
   D57       -1.64936  -0.00023   0.00000  -0.00290  -0.00290  -1.65226
   D58        0.44632  -0.00073   0.00000  -0.00699  -0.00701   0.43931
   D59        2.53848   0.00056   0.00000   0.00358   0.00360   2.54207
   D60        1.45951   0.00006   0.00000   0.00176   0.00176   1.46128
   D61       -2.72799  -0.00044   0.00000  -0.00233  -0.00235  -2.73034
   D62       -0.63584   0.00085   0.00000   0.00824   0.00826  -0.62758
   D63       -0.01021   0.00018   0.00000   0.00266   0.00265  -0.00756
   D64        3.13060   0.00039   0.00000   0.00565   0.00563   3.13623
   D65       -3.11974  -0.00013   0.00000  -0.00205  -0.00204  -3.12179
   D66        0.02106   0.00008   0.00000   0.00094   0.00093   0.02199
   D67        0.00477   0.00003   0.00000   0.00014   0.00011   0.00488
   D68       -3.13456   0.00010   0.00000   0.00134   0.00128  -3.13327
   D69       -3.13603  -0.00018   0.00000  -0.00287  -0.00287  -3.13891
   D70        0.00783  -0.00012   0.00000  -0.00168  -0.00170   0.00613
         Item               Value     Threshold  Converged?
 Maximum Force            0.053957     0.000450     NO 
 RMS     Force            0.010305     0.000300     NO 
 Maximum Displacement     0.623479     0.001800     NO 
 RMS     Displacement     0.220382     0.001200     NO 
 Predicted change in Energy=-2.343647D-02
 GradGradGradGradGradGradGradGradGradGradGradGradGradGradGradGradGradGrad

                          Input orientation:                          
 ---------------------------------------------------------------------
 Center     Atomic      Atomic             Coordinates (Angstroms)
 Number     Number       Type             X           Y           Z
 ---------------------------------------------------------------------
      1          8           0        0.219266    2.094163    0.908914
      2         16           0       -0.065602    1.436650   -0.371571
      3          7           0        1.132714    0.332928   -0.886521
      4          6           0        2.263969   -0.221406   -0.224004
      5          6           0        3.159494   -0.904879   -1.062563
      6          6           0        4.287317   -1.537341   -0.554122
      7          6           0        4.548216   -1.515425    0.812152
      8          6           0        3.662986   -0.850572    1.656387
      9          6           0        2.533264   -0.209002    1.156177
     10          6           0       -1.520804    0.415890   -0.134850
     11          6           0       -2.747319    1.072107   -0.075331
     12          6           0       -3.909186    0.335512    0.124083
     13          6           0       -3.865956   -1.057597    0.264169
     14          6           0       -5.122140   -1.849386    0.507304
     15          6           0       -2.619803   -1.694056    0.205836
     16          6           0       -1.449742   -0.968186    0.004793
     17          8           0       -0.264050    2.270686   -1.562876
     18          1           0        1.333862    0.664112   -1.827195
     19          1           0        2.955370   -0.935493   -2.134584
     20          1           0        4.966169   -2.054510   -1.232676
     21          1           0        5.432000   -2.012194    1.213892
     22          1           0        3.854740   -0.823278    2.729077
     23          1           0        1.874006    0.315941    1.835484
     24          1           0       -2.790299    2.156361   -0.188068
     25          1           0       -4.869253    0.850436    0.172419
     26          1           0       -5.272619   -2.018862    1.583734
     27          1           0       -6.008874   -1.326410    0.125684
     28          1           0       -5.076961   -2.832360    0.019488
     29          1           0       -2.566179   -2.777540    0.317942
     30          1           0       -0.488876   -1.476628   -0.046133
 ---------------------------------------------------------------------
                    Distance matrix (angstroms):
                    1          2          3          4          5
     1  O    0.000000
     2  S    1.467349   0.000000
     3  N    2.675803   1.708607   0.000000
     4  C    3.290315   2.863184   1.423359   0.000000
     5  C    4.639603   4.044932   2.381385   1.404380   0.000000
     6  C    5.646002   5.275021   3.682379   2.436104   1.389426
     7  C    5.637224   5.603861   4.238815   2.822391   2.411611
     8  C    4.592319   4.821448   3.777476   2.426720   2.765708
     9  C    3.274186   3.434572   2.535319   1.406262   2.408156
    10  C    2.633227   1.793210   2.759175   3.839088   4.950784
    11  C    3.288459   2.722546   4.032254   5.177672   6.306627
    12  C    4.555538   4.028811   5.142187   6.207992   7.274128
    13  C    5.199839   4.590003   5.314541   6.205924   7.151257
    14  C    6.651578   6.094180   6.769671   7.598667   8.481865
    15  C    4.785941   4.081502   4.402646   5.119051   5.969247
    16  C    3.602916   2.800131   3.025958   3.794954   4.731629
    17  O    2.524777   1.467721   2.482602   3.793940   4.696294
    18  H    3.282325   2.161980   1.017355   2.054133   2.525733
    19  H    5.091951   4.226293   2.547279   2.153665   1.091711
    20  H    6.658152   6.184531   4.529355   3.417540   2.148177
    21  H    6.642875   6.680707   5.328714   3.912913   3.401864
    22  H    5.004112   5.485470   4.671059   3.407858   3.855718
    23  H    2.599764   3.144703   2.821190   2.163863   3.397287
    24  H    3.203859   2.824116   4.382097   5.585757   6.748034
    25  H    5.289830   4.869768   6.116599   7.224185   8.310661
    26  H    6.894429   6.548038   7.256815   7.956061   8.907545
    27  H    7.148671   6.572994   7.401368   8.353636   9.254652
    28  H    7.287779   6.594777   7.028510   7.795230   8.527907
    29  H    5.642822   4.948506   4.980718   5.491616   6.180289
    30  H    3.763526   2.961800   2.571050   3.030738   3.830226
                    6          7          8          9         10
     6  C    0.000000
     7  C    1.391134   0.000000
     8  C    2.397455   1.392262   0.000000
     9  C    2.786810   2.425928   1.392155   0.000000
    10  C    6.142081   6.438927   5.628866   4.300314   0.000000
    11  C    7.518282   7.791520   6.912854   5.571571   1.392302
    12  C    8.435058   8.684876   7.816172   6.547280   2.403722
    13  C    8.208264   8.444417   7.659379   6.516579   2.798235
    14  C    9.474275   9.680922   8.916079   7.856023   4.302727
    15  C    6.950568   7.195834   6.502999   5.446340   2.403276
    16  C    5.792251   6.076743   5.374159   4.215018   1.392916
    17  O    6.019435   6.567594   5.960496   4.622452   2.656870
    18  H    3.897436   4.695594   4.455831   3.331876   3.327877
    19  H    2.152711   3.399519   3.857382   3.396332   5.085401
    20  H    1.090293   2.155602   3.390345   3.877054   7.027724
    21  H    2.159088   1.090527   2.162077   3.414309   7.487067
    22  H    3.387685   2.152808   1.090037   2.144214   6.215632
    23  H    3.868972   3.398898   2.143194   1.082425   3.926440
    24  H    7.991875   8.266574   7.354491   5.978482   2.154922
    25  H    9.490633   9.731150   8.825797   7.542377   3.390481
    26  H    9.807888   9.863954   9.011948   8.024350   4.791415
    27  H   10.320764  10.581074   9.803793   8.676326   4.821438
    28  H    9.470787   9.747136   9.110082   8.129550   4.818838
    29  H    7.019187   7.242361   6.656360   5.770991   3.390549
    30  H    4.803515   5.109839   4.530836   3.490810   2.157398
                   11         12         13         14         15
    11  C    0.000000
    12  C    1.390062   0.000000
    13  C    2.429454   1.400803   0.000000
    14  C    3.809771   2.528220   1.504674   0.000000
    15  C    2.783338   2.405897   1.400492   2.525214   0.000000
    16  C    2.419281   2.786167   2.431739   3.809926   1.391527
    17  O    3.133051   4.458446   5.233477   6.697886   4.939341
    18  H    4.459992   5.604018   5.863121   7.310781   5.032458
    19  H    6.386834   7.337518   7.231833   8.547570   6.093894
    20  H    8.403159   9.291121   9.013368  10.239316   7.729567
    21  H    8.836078   9.693151   9.394957  10.579020   8.120894
    22  H    7.419190   8.270873   8.108010   9.304491   7.003193
    23  H    5.057632   6.031135   6.107601   7.443034   5.185572
    24  H    1.090946   2.159824   3.419223   4.686900   3.874266
    25  H    2.147818   1.090510   2.157688   2.732241   3.396408
    26  H    4.322467   3.087491   2.154990   1.100030   3.006914
    27  H    4.053521   2.677812   2.164149   1.097923   3.409896
    28  H    4.547645   3.377876   2.162449   1.098291   2.714422
    29  H    3.873920   3.395931   2.156505   2.725852   1.090587
    30  H    3.405505   3.874448   3.417095   4.681066   2.156760
                   16         17         18         19         20
    16  C    0.000000
    17  O    3.788633   0.000000
    18  H    3.710664   2.281286   0.000000
    19  H    4.897246   4.579421   2.298372   0.000000
    20  H    6.623847   6.794964   4.575807   2.471629   0.000000
    21  H    7.064719   7.648430   5.762426   4.301776   2.490881
    22  H    5.964919   6.705066   5.415420   4.947390   4.294962
    23  H    4.005960   4.465553   3.718628   4.300800   4.959246
    24  H    3.405449   2.878385   4.682120   6.808906   8.887375
    25  H    3.876666   5.122134   6.520108   8.350841  10.351258
    26  H    4.267477   7.306649   7.904326   9.093920  10.619144
    27  H    4.574781   6.985222   7.854406   9.253070  11.082727
    28  H    4.078244   7.190901   7.532211   8.529741  10.150735
    29  H    2.149012   5.858485   5.626446   6.316290   7.724212
[...]
     5  C    0.035579  -0.098015   0.057859  -0.000165  -0.014261  -0.000559
     6  C    0.439084   0.022556  -0.090399  -0.001763   0.001202   0.002006
     7  C    4.963734   0.413189   0.048681  -0.000158  -0.000707  -0.000194
     8  C    0.413189   4.971001   0.385913  -0.000068  -0.001263   0.000433
     9  C    0.048681   0.385913   5.133530   0.003463   0.000863  -0.002489
    10  C   -0.000158  -0.000068   0.003463   5.294043   0.316189   0.049835
    11  C   -0.000707  -0.001263   0.000863   0.316189   5.142152   0.357332
    12  C   -0.000194   0.000433  -0.002489   0.049835   0.357332   5.100268
    13  C    0.000042  -0.000039   0.000218  -0.090542   0.033052   0.412525
    14  C   -0.000001  -0.000001   0.000006  -0.004307   0.013802  -0.073669
    15  C    0.000020  -0.000008   0.000048   0.015634  -0.050413  -0.014070
    16  C   -0.000059   0.000171   0.000326   0.368123  -0.069572  -0.046401
    17  O   -0.000003  -0.000000  -0.000743  -0.096283   0.008737  -0.000586
    18  H    0.000136  -0.000720   0.004523  -0.000735   0.000707  -0.000043
    19  H    0.010391  -0.003894   0.012039   0.000787  -0.000270  -0.000258
    20  H   -0.057144   0.010719  -0.003858   0.000005   0.000029   0.000022
    21  H    0.443935  -0.056275   0.011297   0.000004  -0.000018  -0.000002
    22  H   -0.058354   0.446326  -0.057682  -0.000016  -0.000004   0.000008
    23  H    0.010216  -0.048922   0.434641   0.001828  -0.000442  -0.000158
    24  H    0.000104   0.000352   0.000009  -0.046344   0.436261  -0.049475
    25  H    0.000008   0.000057  -0.000101   0.010712  -0.048549   0.444514
    26  H   -0.000000   0.000000   0.000000   0.000055   0.001935  -0.006657
    27  H    0.000000   0.000000  -0.000000   0.000161  -0.000731  -0.004878
    28  H    0.000000  -0.000000   0.000000   0.000065  -0.000710   0.007943
    29  H   -0.000000   0.000000  -0.000002   0.011284  -0.003858   0.012871
    30  H   -0.000003   0.000007  -0.000018  -0.045622   0.008282  -0.002426
              13         14         15         16         17         18
     1  O   -0.000113  -0.000000  -0.000265   0.006937  -0.043929   0.002676
     2  S   -0.000535   0.000005   0.005742  -0.039190   0.584234  -0.016602
     3  N    0.000226  -0.000004  -0.001190   0.000035  -0.048055   0.365622
     4  C   -0.000717   0.000007   0.000251   0.001021   0.001634  -0.051469
     5  C   -0.000463   0.000008   0.000795  -0.001915  -0.000524   0.008837
     6  C    0.000056  -0.000016  -0.000051  -0.000680  -0.000001   0.001087
     7  C    0.000042  -0.000001   0.000020  -0.000059  -0.000003   0.000136
     8  C   -0.000039  -0.000001  -0.000008   0.000171  -0.000000  -0.000720
     9  C    0.000218   0.000006   0.000048   0.000326  -0.000743   0.004523
    10  C   -0.090542  -0.004307   0.015634   0.368123  -0.096283  -0.000735
    11  C    0.033052   0.013802  -0.050413  -0.069572   0.008737   0.000707
    12  C    0.412525  -0.073669  -0.014070  -0.046401  -0.000586  -0.000043
    13  C    4.972719   0.297553   0.432290   0.016224   0.000166   0.000064
    14  C    0.297553   4.958419  -0.073387   0.013149   0.000001   0.000000
    15  C    0.432290  -0.073387   5.062934   0.404469   0.002760  -0.000166
    16  C    0.016224   0.013149   0.404469   5.106072   0.026776   0.000144
    17  O    0.000166   0.000001   0.002760   0.026776   8.022373   0.004370
    18  H    0.000064   0.000000  -0.000166   0.000144   0.004370   0.429410
    19  H   -0.000009  -0.000000   0.000310   0.000379  -0.000176   0.003563
    20  H   -0.000005   0.000000  -0.000003  -0.000001  -0.000000  -0.000040
    21  H   -0.000001   0.000000   0.000000  -0.000000   0.000000  -0.000002
    22  H   -0.000000  -0.000000  -0.000000   0.000001  -0.000000   0.000013
    23  H    0.000015   0.000000   0.000007  -0.000172  -0.000134  -0.000050
    24  H    0.008918  -0.000031  -0.002426   0.008178   0.000384  -0.000098
    25  H   -0.063184  -0.006642   0.012779  -0.003657   0.000003   0.000000
    26  H   -0.053279   0.427611   0.006950  -0.000639   0.000000  -0.000000
    27  H   -0.017374   0.390167  -0.004583  -0.000662  -0.000000  -0.000000
    28  H   -0.054899   0.427650  -0.006512   0.001946   0.000000   0.000000
    29  H   -0.062066  -0.006796   0.443201  -0.048871  -0.000028  -0.000009
    30  H    0.008424  -0.000057  -0.048539   0.432618   0.013554   0.000364
              19         20         21         22         23         24
     1  O   -0.000017  -0.000000   0.000001  -0.000038   0.008972   0.008184
     2  S   -0.000121  -0.000007   0.000003  -0.000003  -0.002920  -0.004117
     3  N    0.002897  -0.000360   0.000008  -0.000119  -0.001405   0.000355
     4  C   -0.080505   0.015211  -0.003964   0.013945  -0.044803   0.000132
     5  C    0.439958  -0.053930   0.012198  -0.003504   0.011287  -0.001672
     6  C   -0.031470   0.438887  -0.056088   0.010553  -0.004443   0.000169
     7  C    0.010391  -0.057144   0.443935  -0.058354   0.010216   0.000104
     8  C   -0.003894   0.010719  -0.056275   0.446326  -0.048922   0.000352
     9  C    0.012039  -0.003858   0.011297  -0.057682   0.434641   0.000009
    10  C    0.000787   0.000005   0.000004  -0.000016   0.001828  -0.046344
    11  C   -0.000270   0.000029  -0.000018  -0.000004  -0.000442   0.436261
    12  C   -0.000258   0.000022  -0.000002   0.000008  -0.000158  -0.049475
    13  C   -0.000009  -0.000005  -0.000001  -0.000000   0.000015   0.008918
    14  C   -0.000000   0.000000   0.000000  -0.000000   0.000000  -0.000031
    15  C    0.000310  -0.000003   0.000000  -0.000000   0.000007  -0.002426
    16  C    0.000379  -0.000001  -0.000000   0.000001  -0.000172   0.008178
    17  O   -0.000176  -0.000000   0.000000  -0.000000  -0.000134   0.000384
    18  H    0.003563  -0.000040  -0.000002   0.000013  -0.000050  -0.000098
    19  H    0.538595  -0.007507  -0.000098   0.000028   0.000012  -0.000054
    20  H   -0.007507   0.541628  -0.006650  -0.000125   0.000015   0.000004
    21  H   -0.000098  -0.006650   0.538790  -0.006847  -0.000017  -0.000005
    22  H    0.000028  -0.000125  -0.006847   0.534758  -0.006494  -0.000017
    23  H    0.000012   0.000015  -0.000017  -0.006494   0.476184  -0.000092
    24  H   -0.000054   0.000004  -0.000005  -0.000017  -0.000092   0.481736
    25  H   -0.000002  -0.000000  -0.000000   0.000001  -0.000007  -0.005596
    26  H   -0.000000   0.000000  -0.000000   0.000000  -0.000000  -0.000022
    27  H    0.000000  -0.000000  -0.000000   0.000000   0.000000   0.000008
    28  H    0.000000  -0.000000   0.000000  -0.000000  -0.000000   0.000002
    29  H   -0.000003   0.000000   0.000000   0.000000  -0.000000   0.000026
    30  H   -0.000067   0.000000  -0.000000   0.000000  -0.000005  -0.000066
              25         26         27         28         29         30
     1  O   -0.000011   0.000000  -0.000000   0.000000   0.000004   0.000543
     2  S   -0.000100   0.000001  -0.000001   0.000001  -0.000114  -0.004416
     3  N    0.000031  -0.000000   0.000000  -0.000000   0.000017   0.000276
     4  C    0.000037   0.000003  -0.000000  -0.000001  -0.000007  -0.000183
     5  C   -0.000080  -0.000002   0.000000   0.000001  -0.000002  -0.000132
     6  C    0.000072   0.000001   0.000000  -0.000001   0.000003   0.000006
     7  C    0.000008  -0.000000   0.000000   0.000000  -0.000000  -0.000003
     8  C    0.000057   0.000000   0.000000  -0.000000   0.000000   0.000007
     9  C   -0.000101   0.000000  -0.000000   0.000000  -0.000002  -0.000018
    10  C    0.010712   0.000055   0.000161   0.000065   0.011284  -0.045622
    11  C   -0.048549   0.001935  -0.000731  -0.000710  -0.003858   0.008282
    12  C    0.444514  -0.006657  -0.004878   0.007943   0.012871  -0.002426
    13  C   -0.063184  -0.053279  -0.017374  -0.054899  -0.062066   0.008424
    14  C   -0.006642   0.427611   0.390167   0.427650  -0.006796  -0.000057
    15  C    0.012779   0.006950  -0.004583  -0.006512   0.443201  -0.048539
    16  C   -0.003657  -0.000639  -0.000662   0.001946  -0.048871   0.432618
    17  O    0.000003   0.000000  -0.000000   0.000000  -0.000028   0.013554
    18  H    0.000000  -0.000000  -0.000000   0.000000  -0.000009   0.000364
    19  H   -0.000002  -0.000000   0.000000   0.000000  -0.000003  -0.000067
    20  H   -0.000000   0.000000  -0.000000  -0.000000   0.000000   0.000000
    21  H   -0.000000  -0.000000  -0.000000   0.000000   0.000000  -0.000000
    22  H    0.000001   0.000000   0.000000  -0.000000   0.000000   0.000000
    23  H   -0.000007  -0.000000   0.000000  -0.000000  -0.000000  -0.000005
    24  H   -0.005596  -0.000022   0.000008   0.000002   0.000026  -0.000066
    25  H    0.533619   0.000876   0.000256   0.000074  -0.000049   0.000031
    26  H    0.000876   0.540735  -0.024253  -0.023656   0.000057   0.000003
    27  H    0.000256  -0.024253   0.544765  -0.023391   0.000224   0.000007
    28  H    0.000074  -0.023656  -0.023391   0.542008   0.001099  -0.000019
    29  H   -0.000049   0.000057   0.000224   0.001099   0.533415  -0.005563
    30  H    0.000031   0.000003   0.000007  -0.000019  -0.005563   0.477696
 Mulliken charges:
               1
     1  O   -0.461030
     2  S    0.856457
     3  N   -0.316455
     4  C    0.199896
     5  C   -0.217389
     6  C   -0.096912
     7  C   -0.137593
     8  C   -0.072237
     9  C   -0.270563
    10  C    0.000949
    11  C   -0.135607
    12  C   -0.195659
    13  C    0.160735
    14  C   -0.363466
    15  C   -0.186578
    16  C   -0.174749
    17  O   -0.474531
    18  H    0.248418
    19  H    0.115490
    20  H    0.123108
    21  H    0.123730
    22  H    0.127570
    23  H    0.166885
    24  H    0.165191
    25  H    0.124908
    26  H    0.130281
    27  H    0.140285
    28  H    0.128399
    29  H    0.125165
    30  H    0.165302
 Sum of Mulliken charges =  -0.00000
 Mulliken charges with hydrogens summed into heavy atoms:
               1
     1  O   -0.461030
     2  S    0.856457
     3  N   -0.068038
     4  C    0.199896
     5  C   -0.101899
     6  C    0.026197
     7  C   -0.013863
     8  C    0.055333
     9  C   -0.103678
    10  C    0.000949
    11  C    0.029584
    12  C   -0.070751
    13  C    0.160735
    14  C    0.035500
    15  C   -0.061414
    16  C   -0.009448
    17  O   -0.474531
 Electronic spatial extent (au):  <R**2>=           4366.6131
 Charge=              0.0000 electrons
 Dipole moment (field-independent basis, Debye):
    X=             -1.8221    Y=             -5.3822    Z=             -1.7647  Tot=              5.9500
 Quadrupole moment (field-independent basis, Debye-Ang):
   XX=            -96.8160   YY=           -114.0107   ZZ=           -101.0998
   XY=              0.2821   XZ=              2.6680   YZ=             -4.5447
 Traceless Quadrupole moment (field-independent basis, Debye-Ang):
   XX=              7.1595   YY=            -10.0352   ZZ=              2.8757
   XY=              0.2821   XZ=              2.6680   YZ=             -4.5447
 Octapole moment (field-independent basis, Debye-Ang**2):
  XXX=            -41.9486  YYY=            -42.3698  ZZZ=            -11.7713  XYY=              3.5010
  XXY=            -16.3252  XXZ=              7.5893  XZZ=              2.8446  YZZ=             -0.3979
  YYZ=             -0.7598  XYZ=             -0.8824
 Hexadecapole moment (field-independent basis, Debye-Ang**3):
 XXXX=          -3343.4786 YYYY=          -1978.1375 ZZZZ=           -577.6489 XXXY=             53.2973
 XXXZ=            112.8099 YYYX=            -18.4067 YYYZ=             17.6604 ZZZX=             13.6176
 ZZZY=            -24.0077 XXYY=           -821.9537 XXZZ=           -639.5153 YYZZ=           -410.8642
 XXYZ=            -31.6048 YYXZ=            -12.7855 ZZXY=             -2.1733
 N-N= 1.331933124570D+03 E-N=-5.259238183091D+03  KE= 1.102023916267D+03
 Breneman (CHELPG) radii used.
 Read replacement radii for each type of atom:
 Atom Element Radius
    1     8    1.70
    2    16    2.00
    3     7    1.70
    4     6    1.50
    5     6    1.50
    6     6    1.50
    7     6    1.50
    8     6    1.50
    9     6    1.50
   10     6    1.50
   11     6    1.50
   12     6    1.50
   13     6    1.50
   14     6    1.50
   15     6    1.50
   16     6    1.50
   17     8    1.70
   18     1    1.45
   19     1    1.45
   20     1    1.45
   21     1    1.45
   22     1    1.45
   23     1    1.45
   24     1    1.45
   25     1    1.45
   26     1    1.45
   27     1    1.45
   28     1    1.45
   29     1    1.45
   30     1    1.45
 Generate Potential Derived Charges using the Breneman model, NDens= 1.
 Grid spacing= 0.300 Box extension= 2.800
 NStep X,Y,Z=   49     42     34   Total possible points=       69972
 Number of Points to Fit=   18716

 **********************************************************************

            Electrostatic Properties Using The SCF Density.

 **********************************************************************

       Atomic Center    1 is at   0.759977  2.052973  1.477368
       Atomic Center    2 is at   0.211222  1.955896  0.139113
       Atomic Center    3 is at   1.389674  1.267734 -0.841739
       Atomic Center    4 is at   1.950905  0.004464 -0.532418
       Atomic Center    5 is at   1.772224 -1.075486 -1.403370
       Atomic Center    6 is at   2.334406 -2.314399 -1.105030
       Atomic Center    7 is at   3.052810 -2.491880  0.076094
       Atomic Center    8 is at   3.219400 -1.416510  0.949100
       Atomic Center    9 is at   2.685414 -0.166881  0.646305
       Atomic Center   10 is at  -1.098966  0.752205  0.173461
       Atomic Center   11 is at  -1.042838 -0.301699  1.084450
       Atomic Center   12 is at  -2.036072 -1.275108  1.051221
       Atomic Center   13 is at  -3.088725 -1.207281  0.129543
       Atomic Center   14 is at  -4.177602 -2.246604  0.128530
       Atomic Center   15 is at  -3.122272 -0.132060 -0.767913
       Atomic Center   16 is at  -2.134467  0.847690 -0.754067
       Atomic Center   17 is at  -0.244848  3.115709 -0.602827
       Atomic Center   18 is at   1.147040  1.412219 -1.818028
       Atomic Center   19 is at   1.185283 -0.942277 -2.315704
       Atomic Center   20 is at   2.196996 -3.149029 -1.795764
       Atomic Center   21 is at   3.485473 -3.465519  0.314540
       Atomic Center   22 is at   3.787539 -1.545616  1.872866
       Atomic Center   23 is at   2.821053  0.683476  1.314545
       Atomic Center   24 is at  -0.230553 -0.351406  1.811266
       Atomic Center   25 is at  -1.993478 -2.105585  1.760209
       Atomic Center   26 is at  -3.797023 -3.227698  0.445831
       Atomic Center   27 is at  -4.981438 -1.962814  0.826911
       Atomic Center   28 is at  -4.629255 -2.356389 -0.867335
       Atomic Center   29 is at  -3.939664 -0.058187 -1.489634
       Atomic Center   30 is at  -2.165593  1.692195 -1.445084
   18716 points will be used for fitting atomic charges
 Fitting point charges to electrostatic potential
 Charges from ESP fit, RMS=   0.00359 RRMS=   0.21954:
 ESP charges:
               1
     1  O   -0.469732
     2  S    0.934998
     3  N   -0.647577
     4  C    0.411728
     5  C   -0.271223
     6  C   -0.053618
     7  C   -0.144624
     8  C   -0.057027
     9  C   -0.219367
    10  C   -0.065095
    11  C   -0.036429
    12  C   -0.230855
    13  C    0.239443
    14  C   -0.271781
    15  C   -0.212048
    16  C   -0.067835
    17  O   -0.485451
    18  H    0.354963
    19  H    0.111466
    20  H    0.103904
    21  H    0.103770
    22  H    0.097511
    23  H    0.160409
    24  H    0.099603
    25  H    0.129028
    26  H    0.078777
    27  H    0.090198
    28  H    0.077345
    29  H    0.126854
    30  H    0.112666
 Sum of ESP charges =   0.00000
 ESP charges with hydrogens summed into heavy atoms:
               1
     1  O   -0.469732
     2  S    0.934998
     3  N   -0.292614
     4  C    0.411728
     5  C   -0.159756
     6  C    0.050286
     7  C   -0.040855
     8  C    0.040484
     9  C   -0.058958
    10  C   -0.065095
    11  C    0.063174
    12  C   -0.101827
    13  C    0.239443
    14  C   -0.025461
    15  C   -0.085194
    16  C    0.044831
    17  O   -0.485451
 Charge=   0.00000 Dipole=    -1.7023    -5.2541    -1.7357 Tot=     5.7893
 -----------------------------------------------------------------

              Electrostatic Properties (Atomic Units)

 -----------------------------------------------------------------
    Center     Electric         -------- Electric Field --------
               Potential          X             Y             Z
 -----------------------------------------------------------------
    1 Atom    -22.373377
    2 Atom    -59.026799
    3 Atom    -18.345602
    4 Atom    -14.712677
    5 Atom    -14.755803
    6 Atom    -14.756711
    7 Atom    -14.761226
    8 Atom    -14.758980
    9 Atom    -14.763164
   10 Atom    -14.732023
   11 Atom    -14.745692
   12 Atom    -14.752981
   13 Atom    -14.736846
   14 Atom    -14.755044
   15 Atom    -14.752124
   16 Atom    -14.744874
   17 Atom    -22.373238
   18 Atom     -1.001975
   19 Atom     -1.087786
   20 Atom     -1.096082
   21 Atom     -1.099250
   22 Atom     -1.099705
   23 Atom     -1.101926
   24 Atom     -1.088677
   25 Atom     -1.091440
   26 Atom     -1.100254
   27 Atom     -1.097640
   28 Atom     -1.100364
   29 Atom     -1.090247
   30 Atom     -1.086168
 -----------------------------------------------------------------
 Unable to Open any file for archive entry.
 1\1\GINC-NOTCH225\SP\RwB97XD\def2TZVP\C13H13N1O2S1\U1366379\17-Feb-202
 6\0\\#N Guess=Read Geom=Check Integral(Ultrafine) Density Pop=(ChelpG,
 ReadRadii) NMR wB97XD def2TZVP\\prod_5l_29\\0,1\O,0,0.1814503288,2.670
 2360429,-0.2205345466\S,0,-0.0519587098,1.6944364796,-1.2668709719\N,0
 ,1.3664192031,0.8146074755,-1.4630597892\C,0,1.9526207783,0.1221081534
 ,-0.3752534547\C,0,2.0611503266,-1.2721620605,-0.4070316997\C,0,2.6485
 881351,-1.9519024667,0.6573139926\C,0,3.1046652661,-1.249389592,1.7713
 725876\C,0,2.9843243242,0.14007931,1.8061242193\C,0,2.424353974,0.8312
 411595,0.7350836806\C,0,-1.2302707954,0.5099701052,-0.6542812592\C,0,-
 1.2842105104,0.234587167,0.7113761428\C,0,-2.1593408163,-0.7459349791,
 1.1673001829\C,0,-2.9875619167,-1.4483432166,0.2825168333\C,0,-3.95706
 33601,-2.4806352607,0.7927012029\C,0,-2.9164427085,-1.1437655036,-1.08
 30698826\C,0,-2.042906409,-0.1708122258,-1.5586298548\O,0,-0.432752720
 4,2.0719477688,-2.6145061514\H,0,1.3310418288,0.3028142489,-2.34038744
 01\H,0,1.6780611319,-1.824278974,-1.2690100534\H,0,2.7369697796,-3.039
 713736,0.6191329483\H,0,3.5565609257,-1.7830724365,2.6098230244\H,0,3.
 3462912169,0.6983681471,2.6721994785\H,0,2.3378092689,1.9177232917,0.7
 458542039\H,0,-0.6487359379,0.7878642609,1.4046252914\H,0,-2.201501009
 2,-0.9685000703,2.2363450545\H,0,-3.5723584436,-2.9840987287,1.6908064
 752\H,0,-4.9150793284,-2.0083350246,1.0639269729\H,0,-4.1696370051,-3.
 2448435001,0.0320521004\H,0,-3.560060472,-1.676166923,-1.7878914505\H,
 0,-1.9947163452,0.0756310877,-2.6209878374\\Version=ES64L-G16RevC.01\S
 tate=1-A\HF=-1106.6304772\RMSD=3.936e-09\Dipole=-0.3645028,-2.2096374,
 0.6815601\Quadrupole=4.0762769,-6.1838955,2.1076186,3.2176483,0.953952
 7,4.332184\PG=C01 [X(C13H13N1O2S1)]\\@
 The archive entry for this job was punched.


 ON INDUCTION, OR "WHY DO YOU BELIEVE THE SUN WILL RISE TOMORROW?":

 ... THE FARMER WHO HAS FED THE CHICKEN EVERY DAY THROUGHOUT ITS
 LIFE AT LAST WRINGS ITS NECK INSTEAD, SHOWING THAT MORE REFINED VIEWS
 AS TO THE UNIFORMITY OF NATURE WOULD HAVE BEEN USEFUL TO THE CHICKEN.

                               -- BERTRAND RUSSELL
 Job cpu time:       0 days  1 hours 36 minutes 34.1 seconds.
 Elapsed time:       0 days  0 hours 12 minutes 27.9 seconds.
 File lengths (MBytes):  RWF=    226 Int=      0 D2E=      0 Chk=     34 Scr=      2
 Normal termination of Gaussian 16 at Tue Feb 17 18:14:46 2026.
