 Entering Gaussian System, Link 0=g16
 Input=prod_3a_1.com
 Output=prod_3a_1.log
 Initial command:
 /uufs/chpc.utah.edu/sys/installdir/gaussian16/C01/AVX/g16/l1.exe "/scratch/general/vast/u1366379/GAUSSSCRDIR/11028598-notchpeak.peaks/Gau-958927.inp" -scrdir="/scratch/general/vast/u1366379/GAUSSSCRDIR/11028598-notchpeak.peaks/"
 Entering Link 1 = /uufs/chpc.utah.edu/sys/installdir/gaussian16/C01/AVX/g16/l1.exe PID=    958928.
  
 Copyright (c) 1988-2019, Gaussian, Inc.  All Rights Reserved.
  
 This is part of the Gaussian(R) 16 program.  It is based on
 the Gaussian(R) 09 system (copyright 2009, Gaussian, Inc.),
 the Gaussian(R) 03 system (copyright 2003, Gaussian, Inc.),
 the Gaussian(R) 98 system (copyright 1998, Gaussian, Inc.),
 the Gaussian(R) 94 system (copyright 1995, Gaussian, Inc.),
 the Gaussian 92(TM) system (copyright 1992, Gaussian, Inc.),
 the Gaussian 90(TM) system (copyright 1990, Gaussian, Inc.),
 the Gaussian 88(TM) system (copyright 1988, Gaussian, Inc.),
 the Gaussian 86(TM) system (copyright 1986, Carnegie Mellon
 University), and the Gaussian 82(TM) system (copyright 1983,
 Carnegie Mellon University). Gaussian is a federally registered
 trademark of Gaussian, Inc.
  
 This software contains proprietary and confidential information,
 including trade secrets, belonging to Gaussian, Inc.
  
 This software is provided under written license and may be
 used, copied, transmitted, or stored only in accord with that
 written license.
  
 The following legend is applicable only to US Government
 contracts under FAR:
  
                    RESTRICTED RIGHTS LEGEND
  
 Use, reproduction and disclosure by the US Government is
 subject to restrictions as set forth in subparagraphs (a)
 and (c) of the Commercial Computer Software - Restricted
 Rights clause in FAR 52.227-19.
  
 Gaussian, Inc.
 340 Quinnipiac St., Bldg. 40, Wallingford CT 06492
  
  
 ---------------------------------------------------------------
 Warning -- This program may not be used in any manner that
 competes with the business of Gaussian, Inc. or will provide
 assistance to any competitor of Gaussian, Inc.  The licensee
 of this program is prohibited from giving any competitor of
 Gaussian, Inc. access to this program.  By using this program,
 the user acknowledges that Gaussian, Inc. is engaged in the
 business of creating and licensing software in the field of
 computational chemistry and represents and warrants to the
 licensee that it is not a competitor of Gaussian, Inc. and that
 it will not use this program in any manner prohibited above.
 ---------------------------------------------------------------
  

 Cite this work as:
 Gaussian 16, Revision C.01,
 M. J. Frisch, G. W. Trucks, H. B. Schlegel, G. E. Scuseria, 
 M. A. Robb, J. R. Cheeseman, G. Scalmani, V. Barone, 
 G. A. Petersson, H. Nakatsuji, X. Li, M. Caricato, A. V. Marenich, 
 J. Bloino, B. G. Janesko, R. Gomperts, B. Mennucci, H. P. Hratchian, 
 J. V. Ortiz, A. F. Izmaylov, J. L. Sonnenberg, D. Williams-Young, 
 F. Ding, F. Lipparini, F. Egidi, J. Goings, B. Peng, A. Petrone, 
 T. Henderson, D. Ranasinghe, V. G. Zakrzewski, J. Gao, N. Rega, 
 G. Zheng, W. Liang, M. Hada, M. Ehara, K. Toyota, R. Fukuda, 
 J. Hasegawa, M. Ishida, T. Nakajima, Y. Honda, O. Kitao, H. Nakai, 
 T. Vreven, K. Throssell, J. A. Montgomery, Jr., J. E. Peralta, 
 F. Ogliaro, M. J. Bearpark, J. J. Heyd, E. N. Brothers, K. N. Kudin, 
 V. N. Staroverov, T. A. Keith, R. Kobayashi, J. Normand, 
 K. Raghavachari, A. P. Rendell, J. C. Burant, S. S. Iyengar, 
 J. Tomasi, M. Cossi, J. M. Millam, M. Klene, C. Adamo, R. Cammi, 
 J. W. Ochterski, R. L. Martin, K. Morokuma, O. Farkas, 
 J. B. Foresman, and D. J. Fox, Gaussian, Inc., Wallingford CT, 2019.
 
 ******************************************
 Gaussian 16:  ES64L-G16RevC.01  3-Jul-2019
                17-Feb-2026 
 ******************************************
 %NProcShared=8
 Will use up to    8 processors via shared memory.
 %Mem=8GB
 %chk=prod_3a_1.chk
 ------------------------------------------------------
 #N OPT FREQ=NORAMAN Integral(Ultrafine) wB97XD def2SVP
 ------------------------------------------------------
 1/18=20,19=15,26=4,38=1/1,3;
 2/9=110,12=2,17=6,18=5,40=1/2;
 3/5=43,7=101,11=2,25=1,30=1,71=1,74=-58,75=-5/1,2,3;
 4//1;
 5/5=2,38=5/2;
 6/7=2,8=2,9=2,10=2,28=1/1;
 7//1,2,3,16;
 1/18=20,19=15,26=4/3(2);
 2/9=110/2;
 99//99;
 2/9=110/2;
 3/5=43,7=101,11=2,25=1,30=1,71=1,74=-58,75=-5/1,2,3;
 4/5=5,16=3,69=1/1;
 5/5=2,38=5/2;
 7//1,2,3,16;
 1/18=20,19=15,26=4/3(-5);
 2/9=110/2;
 6/7=2,8=2,9=2,10=2,19=2,28=1/1;
 99/9=1/99;
 ---------
 prod_3a_1
 ---------
 Symbolic Z-matrix:
 Charge =  0 Multiplicity = 1
 C                    -1.2714    0.48258  -0.02209 
 N                     0.00014   1.09986  -0.00202 
 C                     1.27162   0.48277   0.02106 
 C                     2.39184   1.1794   -0.43219 
 C                     3.64044   0.59975  -0.40292 
 C                     3.79877  -0.68185   0.08817 
 C                     2.70251  -1.37983   0.55685 
 C                     1.45227  -0.80387   0.52751 
 C                    -1.45315  -0.80373  -0.52902 
 C                    -2.70365  -1.37918  -0.55718 
 C                    -3.79904  -0.68114  -0.08656 
 C                    -3.63958   0.60001   0.40535 
 C                    -2.39075   1.17921   0.43333 
 H                     0.00018   2.11723  -0.00319 
 H                     2.26401   2.17651  -0.8162 
 H                     4.49622   1.14692  -0.76349 
 H                     4.77681  -1.13416   0.11117 
 H                     2.82731  -2.37493   0.95183 
 H                     0.60547  -1.33124   0.92943 
 H                    -0.60706  -1.33109  -0.93244 
 H                    -2.82931  -2.37398  -0.95266 
 H                    -4.77728  -1.13306  -0.10857 
 H                    -4.49469   1.14724   0.76743 
 H                    -2.26212   2.1762    0.81739 
 

 GradGradGradGradGradGradGradGradGradGradGradGradGradGradGradGradGradGrad
 Berny optimization.
 Initialization pass.
                           ----------------------------
                           !    Initial Parameters    !
                           ! (Angstroms and Degrees)  !
 --------------------------                            --------------------------
 ! Name  Definition              Value          Derivative Info.                !
 --------------------------------------------------------------------------------
 ! R1    R(1,2)                  1.4136         estimate D2E/DX2                !
 ! R2    R(1,9)                  1.3945         estimate D2E/DX2                !
 ! R3    R(1,13)                 1.3949         estimate D2E/DX2                !
 ! R4    R(2,3)                  1.4135         estimate D2E/DX2                !
 ! R5    R(2,14)                 1.0174         estimate D2E/DX2                !
 ! R6    R(3,4)                  1.3949         estimate D2E/DX2                !
 ! R7    R(3,8)                  1.3945         estimate D2E/DX2                !
 ! R8    R(4,5)                  1.3769         estimate D2E/DX2                !
 ! R9    R(4,15)                 1.0761         estimate D2E/DX2                !
 ! R10   R(5,6)                  1.3816         estimate D2E/DX2                !
 ! R11   R(5,16)                 1.0779         estimate D2E/DX2                !
 ! R12   R(6,7)                  1.3815         estimate D2E/DX2                !
 ! R13   R(6,17)                 1.0778         estimate D2E/DX2                !
 ! R14   R(7,8)                  1.3768         estimate D2E/DX2                !
 ! R15   R(7,18)                 1.0779         estimate D2E/DX2                !
 ! R16   R(8,19)                 1.0755         estimate D2E/DX2                !
 ! R17   R(9,10)                 1.3768         estimate D2E/DX2                !
 ! R18   R(9,20)                 1.0755         estimate D2E/DX2                !
 ! R19   R(10,11)                1.3815         estimate D2E/DX2                !
 ! R20   R(10,21)                1.0779         estimate D2E/DX2                !
 ! R21   R(11,12)                1.3816         estimate D2E/DX2                !
 ! R22   R(11,22)                1.0778         estimate D2E/DX2                !
 ! R23   R(12,13)                1.3769         estimate D2E/DX2                !
 ! R24   R(12,23)                1.0779         estimate D2E/DX2                !
 ! R25   R(13,24)                1.0761         estimate D2E/DX2                !
 ! A1    A(2,1,9)              121.6814         estimate D2E/DX2                !
 ! A2    A(2,1,13)             119.9415         estimate D2E/DX2                !
 ! A3    A(9,1,13)             118.345          estimate D2E/DX2                !
 ! A4    A(1,2,3)              128.2229         estimate D2E/DX2                !
 ! A5    A(1,2,14)             115.893          estimate D2E/DX2                !
 ! A6    A(3,2,14)             115.884          estimate D2E/DX2                !
 ! A7    A(2,3,4)              119.9388         estimate D2E/DX2                !
 ! A8    A(2,3,8)              121.6862         estimate D2E/DX2                !
 ! A9    A(4,3,8)              118.345          estimate D2E/DX2                !
 ! A10   A(3,4,5)              120.7382         estimate D2E/DX2                !
 ! A11   A(3,4,15)             118.9022         estimate D2E/DX2                !
 ! A12   A(5,4,15)             120.3565         estimate D2E/DX2                !
 ! A13   A(4,5,6)              120.1323         estimate D2E/DX2                !
 ! A14   A(4,5,16)             119.9447         estimate D2E/DX2                !
 ! A15   A(6,5,16)             119.923          estimate D2E/DX2                !
 ! A16   A(5,6,7)              119.8886         estimate D2E/DX2                !
 ! A17   A(5,6,17)             120.0575         estimate D2E/DX2                !
 ! A18   A(7,6,17)             120.0529         estimate D2E/DX2                !
 ! A19   A(6,7,8)              120.1307         estimate D2E/DX2                !
 ! A20   A(6,7,18)             119.9249         estimate D2E/DX2                !
 ! A21   A(8,7,18)             119.9433         estimate D2E/DX2                !
 ! A22   A(3,8,7)              120.7534         estimate D2E/DX2                !
 ! A23   A(3,8,19)             119.0876         estimate D2E/DX2                !
 ! A24   A(7,8,19)             120.1235         estimate D2E/DX2                !
 ! A25   A(1,9,10)             120.7529         estimate D2E/DX2                !
 ! A26   A(1,9,20)             119.0858         estimate D2E/DX2                !
 ! A27   A(10,9,20)            120.1253         estimate D2E/DX2                !
 ! A28   A(9,10,11)            120.1313         estimate D2E/DX2                !
 ! A29   A(9,10,21)            119.942          estimate D2E/DX2                !
 ! A30   A(11,10,21)           119.9256         estimate D2E/DX2                !
 ! A31   A(10,11,12)           119.8886         estimate D2E/DX2                !
 ! A32   A(10,11,22)           120.0545         estimate D2E/DX2                !
 ! A33   A(12,11,22)           120.0559         estimate D2E/DX2                !
 ! A34   A(11,12,13)           120.1324         estimate D2E/DX2                !
 ! A35   A(11,12,23)           119.9231         estimate D2E/DX2                !
 ! A36   A(13,12,23)           119.9445         estimate D2E/DX2                !
 ! A37   A(1,13,12)            120.7385         estimate D2E/DX2                !
 ! A38   A(1,13,24)            118.9014         estimate D2E/DX2                !
 ! A39   A(12,13,24)           120.3573         estimate D2E/DX2                !
 ! D1    D(9,1,2,3)            -25.2877         estimate D2E/DX2                !
 ! D2    D(9,1,2,14)           154.7944         estimate D2E/DX2                !
 ! D3    D(13,1,2,3)           156.8059         estimate D2E/DX2                !
 ! D4    D(13,1,2,14)          -23.112          estimate D2E/DX2                !
 ! D5    D(2,1,9,10)          -179.0447         estimate D2E/DX2                !
 ! D6    D(2,1,9,20)            -1.2231         estimate D2E/DX2                !
 ! D7    D(13,1,9,10)           -1.106          estimate D2E/DX2                !
 ! D8    D(13,1,9,20)          176.7156         estimate D2E/DX2                !
 ! D9    D(2,1,13,12)          179.1694         estimate D2E/DX2                !
 ! D10   D(2,1,13,24)           -1.4306         estimate D2E/DX2                !
 ! D11   D(9,1,13,12)            1.1937         estimate D2E/DX2                !
 ! D12   D(9,1,13,24)         -179.4063         estimate D2E/DX2                !
 ! D13   D(1,2,3,4)            157.0925         estimate D2E/DX2                !
 ! D14   D(1,2,3,8)            -24.9301         estimate D2E/DX2                !
 ! D15   D(14,2,3,4)           -22.9896         estimate D2E/DX2                !
 ! D16   D(14,2,3,8)           154.9878         estimate D2E/DX2                !
 ! D17   D(2,3,4,5)            179.2554         estimate D2E/DX2                !
 ! D18   D(2,3,4,15)            -1.3841         estimate D2E/DX2                !
 ! D19   D(8,3,4,5)              1.211          estimate D2E/DX2                !
 ! D20   D(8,3,4,15)          -179.4286         estimate D2E/DX2                !
 ! D21   D(2,3,8,7)           -179.1382         estimate D2E/DX2                !
 ! D22   D(2,3,8,19)            -1.3018         estimate D2E/DX2                !
 ! D23   D(4,3,8,7)             -1.1297         estimate D2E/DX2                !
 ! D24   D(4,3,8,19)           176.7067         estimate D2E/DX2                !
 ! D25   D(3,4,5,6)             -0.4965         estimate D2E/DX2                !
 ! D26   D(3,4,5,16)           179.5253         estimate D2E/DX2                !
 ! D27   D(15,4,5,6)          -179.8476         estimate D2E/DX2                !
 ! D28   D(15,4,5,16)            0.1742         estimate D2E/DX2                !
 ! D29   D(4,5,6,7)             -0.3281         estimate D2E/DX2                !
 ! D30   D(4,5,6,17)          -179.9565         estimate D2E/DX2                !
 ! D31   D(16,5,6,7)           179.6501         estimate D2E/DX2                !
 ! D32   D(16,5,6,17)            0.0217         estimate D2E/DX2                !
 ! D33   D(5,6,7,8)              0.4092         estimate D2E/DX2                !
 ! D34   D(5,6,7,18)          -179.2142         estimate D2E/DX2                !
 ! D35   D(17,6,7,8)          -179.9624         estimate D2E/DX2                !
 ! D36   D(17,6,7,18)            0.4143         estimate D2E/DX2                !
 ! D37   D(6,7,8,3)              0.3337         estimate D2E/DX2                !
 ! D38   D(6,7,8,19)          -177.4804         estimate D2E/DX2                !
 ! D39   D(18,7,8,3)           179.957          estimate D2E/DX2                !
 ! D40   D(18,7,8,19)            2.1429         estimate D2E/DX2                !
 ! D41   D(1,9,10,11)            0.3197         estimate D2E/DX2                !
 ! D42   D(1,9,10,21)          179.9496         estimate D2E/DX2                !
 ! D43   D(20,9,10,11)        -177.4792         estimate D2E/DX2                !
 ! D44   D(20,9,10,21)           2.1506         estimate D2E/DX2                !
 ! D45   D(9,10,11,12)           0.4065         estimate D2E/DX2                !
 ! D46   D(9,10,11,22)        -179.9583         estimate D2E/DX2                !
 ! D47   D(21,10,11,12)       -179.2234         estimate D2E/DX2                !
 ! D48   D(21,10,11,22)          0.4118         estimate D2E/DX2                !
 ! D49   D(10,11,12,13)         -0.319          estimate D2E/DX2                !
 ! D50   D(10,11,12,23)        179.6495         estimate D2E/DX2                !
 ! D51   D(22,11,12,13)       -179.9542         estimate D2E/DX2                !
 ! D52   D(22,11,12,23)          0.0143         estimate D2E/DX2                !
 ! D53   D(11,12,13,1)          -0.4953         estimate D2E/DX2                !
 ! D54   D(11,12,13,24)       -179.8866         estimate D2E/DX2                !
 ! D55   D(23,12,13,1)         179.5361         estimate D2E/DX2                !
 ! D56   D(23,12,13,24)          0.1449         estimate D2E/DX2                !
 --------------------------------------------------------------------------------
 Trust Radius=3.00D-01 FncErr=1.00D-07 GrdErr=1.00D-06 EigMax=2.50D+02 EigMin=1.00D-04
 Number of steps in this run=    130 maximum allowed number of steps=    144.
 GradGradGradGradGradGradGradGradGradGradGradGradGradGradGradGradGradGrad

                          Input orientation:                          
 ---------------------------------------------------------------------
 Center     Atomic      Atomic             Coordinates (Angstroms)
 Number     Number       Type             X           Y           Z
 ---------------------------------------------------------------------
      1          6           0       -1.271400    0.482580   -0.022090
      2          7           0        0.000140    1.099860   -0.002020
      3          6           0        1.271620    0.482770    0.021060
      4          6           0        2.391840    1.179400   -0.432190
      5          6           0        3.640440    0.599750   -0.402920
      6          6           0        3.798770   -0.681850    0.088170
      7          6           0        2.702510   -1.379830    0.556850
      8          6           0        1.452270   -0.803870    0.527510
      9          6           0       -1.453150   -0.803730   -0.529020
     10          6           0       -2.703650   -1.379180   -0.557180
     11          6           0       -3.799040   -0.681140   -0.086560
     12          6           0       -3.639580    0.600010    0.405350
     13          6           0       -2.390750    1.179210    0.433330
     14          1           0        0.000180    2.117230   -0.003190
     15          1           0        2.264010    2.176510   -0.816200
     16          1           0        4.496220    1.146920   -0.763490
     17          1           0        4.776810   -1.134160    0.111170
     18          1           0        2.827310   -2.374930    0.951830
     19          1           0        0.605470   -1.331240    0.929430
     20          1           0       -0.607060   -1.331090   -0.932440
     21          1           0       -2.829310   -2.373980   -0.952660
     22          1           0       -4.777280   -1.133060   -0.108570
     23          1           0       -4.494690    1.147240    0.767430
     24          1           0       -2.262120    2.176200    0.817390
 ---------------------------------------------------------------------
                    Distance matrix (angstroms):
                    1          2          3          4          5
     1  C    0.000000
     2  N    1.413595   0.000000
     3  C    2.543386   1.413504   0.000000
     4  C    3.751409   2.431379   1.394855   0.000000
     5  C    4.927974   3.696297   2.409305   1.376900   0.000000
     6  C    5.203333   4.196691   2.783403   2.390497   1.381570
     7  C    4.426703   3.709987   2.409107   2.761227   2.391570
     8  C    3.061926   2.452197   1.394478   2.395240   2.761148
     9  C    1.394491   2.452231   3.063012   4.327370   5.284914
    10  C    2.409110   3.710030   4.427639   5.703155   6.647363
    11  C    2.783409   4.196770   5.203639   6.473644   7.555569
    12  C    2.409309   3.696399   4.927607   6.116796   7.324752
    13  C    1.394864   2.431498   3.750726   4.860277   6.116399
    14  H    2.071075   1.017371   2.070895   2.604535   3.964092
    15  H    3.999892   2.635749   2.134150   1.076119   2.133432
    16  H    5.852902   4.560349   3.384473   2.130547   1.077852
    17  H    6.261985   5.274489   3.861210   3.366880   2.135900
    18  H    5.090511   4.580053   3.384221   3.839063   3.368271
    19  H    2.778124   2.672877   2.135304   3.368745   3.836003
    20  H    2.135295   2.672806   2.780052   3.942868   4.695720
    21  H    3.384225   4.580073   5.091834   6.337019   7.141635
    22  H    3.861213   5.274564   6.262340   7.539793   8.599261
    23  H    3.384481   4.560460   5.852258   6.990309   8.237099
    24  H    2.134151   2.635861   3.998645   4.920813   6.230134
                    6          7          8          9         10
     6  C    0.000000
     7  C    1.381529   0.000000
     8  C    2.390391   1.376841   0.000000
     9  C    5.289465   4.333649   3.091556   0.000000
    10  C    6.571470   5.519749   4.333498   1.376839   0.000000
    11  C    7.599819   6.570563   5.288516   2.390397   1.381529
    12  C    7.554655   6.645662   5.283251   2.761161   2.391573
    13  C    6.472468   5.701337   4.325538   2.395258   2.761227
    14  H    4.719373   4.454847   3.305001   3.304644   4.454490
    15  H    3.368025   3.837330   3.368552   4.773005   6.114546
    16  H    2.134517   3.368258   3.838997   6.265382   7.632947
    17  H    1.077811   2.135815   3.366749   6.271477   7.514254
    18  H    2.134517   1.077872   2.130496   4.794155   5.818947
    19  H    3.365500   2.130435   1.075513   2.577452   3.628027
    20  H    4.568861   3.629547   2.578809   1.075511   2.130451
    21  H    6.919398   5.819621   4.794588   2.130486   1.077878
    22  H    8.590165   7.513384   6.270587   3.366761   2.135829
    23  H    8.519885   7.630866   6.263444   3.839014   3.368266
    24  H    6.740519   6.112347   4.770906   3.368566   3.837332
                   11         12         13         14         15
    11  C    0.000000
    12  C    1.381575   0.000000
    13  C    2.390495   1.376892   0.000000
    14  H    4.719311   3.964431   2.605183   0.000000
    15  H    6.742337   6.231365   4.921659   2.406123   0.000000
    16  H    8.521231   8.237508   6.990263   4.661967   2.458779
    17  H    8.590083   8.598227   7.538527   5.779343   4.258487
    18  H    6.917781   7.139298   6.334738   5.392980   4.915165
    19  H    4.566681   4.693063   3.940280   3.623272   4.254678
    20  H    3.365514   3.836014   3.368751   3.622590   4.534293
    21  H    2.134529   3.368285   3.839071   5.392446   6.831361
    22  H    1.077808   2.135885   3.366864   5.779240   7.812411
    23  H    2.134526   1.077857   2.130542   4.662466   7.017643
    24  H    3.368032   2.133436   1.076121   2.407245   4.811909
                   16         17         18         19         20
    16  H    0.000000
    17  H    2.459083   0.000000
    18  H    4.258052   2.459018   0.000000
    19  H    4.913776   4.255404   2.454865   0.000000
    20  H    5.675610   5.487619   4.054007   2.221889   0.000000
    21  H    8.129939   7.779585   5.968621   4.053058   2.454877
    22  H    9.572096   9.556617   7.777948   5.485501   4.255433
    23  H    9.120317   9.570589   8.127199   5.672807   4.913791
    24  H    7.016677   7.810491   6.828847   4.531861   4.254669
                   21         22         23         24
    21  H    0.000000
    22  H    2.459056   0.000000
    23  H    4.258074   2.459065   0.000000
    24  H    4.915172   4.258478   2.458785   0.000000
 Stoichiometry    C12H11N
 Framework group  C1[X(C12H11N)]
 Deg. of freedom    66
 Full point group                 C1      NOp   1
 Largest Abelian subgroup         C1      NOp   1
 Largest concise Abelian subgroup C1      NOp   1
                         Standard orientation:                         
 ---------------------------------------------------------------------
 Center     Atomic      Atomic             Coordinates (Angstroms)
 Number     Number       Type             X           Y           Z
 ---------------------------------------------------------------------
      1          6           0        1.271339   -0.487593   -0.025126
      2          7           0       -0.000153   -1.104867   -0.002039
      3          6           0       -1.271571   -0.487771    0.024075
      4          6           0       -2.392870   -1.184389   -0.426517
      5          6           0       -3.641394   -0.604733   -0.394268
      6          6           0       -3.798548    0.676861    0.097214
      7          6           0       -2.701173    1.374829    0.563293
      8          6           0       -1.451009    0.798864    0.530970
      9          6           0        1.451889    0.798723   -0.532471
     10          6           0        2.702321    1.374167   -0.563599
     11          6           0        3.798824    0.676115   -0.095596
     12          6           0        3.640529   -0.605040    0.396675
     13          6           0        2.391766   -1.184234    0.427620
     14          1           0       -0.000200   -2.122237   -0.003222
     15          1           0       -2.265959   -2.181495   -0.810843
     16          1           0       -4.498032   -1.151895   -0.752808
     17          1           0       -4.776528    1.129176    0.122547
     18          1           0       -2.825027    2.369925    0.958581
     19          1           0       -0.603252    1.326224    0.930881
     20          1           0        0.604844    1.326092   -0.933869
     21          1           0        2.827045    2.368971   -0.959364
     22          1           0        4.777012    1.128031   -0.119928
     23          1           0        4.496495   -1.152279    0.756712
     24          1           0        2.264046   -2.181229    0.811972
 ---------------------------------------------------------------------
 Rotational constants (GHZ):           2.5269937           0.4179453           0.3739571
 Standard basis: def2SVP (5D, 7F)
 There are   250 symmetry adapted cartesian basis functions of A   symmetry.
 There are   237 symmetry adapted basis functions of A   symmetry.
   237 basis functions,   402 primitive gaussians,   250 cartesian basis functions
    45 alpha electrons       45 beta electrons
       nuclear repulsion energy       697.8162929675 Hartrees.
 NAtoms=   24 NActive=   24 NUniq=   24 SFac= 1.00D+00 NAtFMM=   60 NAOKFM=F Big=F
 Integral buffers will be    131072 words long.
 Raffenetti 2 integral format.
 Two-electron integral symmetry is turned on.
 Nuclear repulsion after empirical dispersion term =      697.8027017368 Hartrees.
 One-electron integrals computed using PRISM.
   1 Symmetry operations used in ECPInt.
 ECPInt:  NShTT=    6216 NPrTT=   22568 LenC2=    5892 LenP2D=   15940.
 LDataN:  DoStor=T MaxTD1= 4 Len=   56
 NBasis=   237 RedAO= T EigKep=  2.49D-04  NBF=   237
 NBsUse=   237 1.00D-06 EigRej= -1.00D+00 NBFU=   237
 ExpMin= 1.22D-01 ExpMax= 1.71D+03 ExpMxC= 2.58D+02 IAcc=3 IRadAn=         5 AccDes= 0.00D+00
 Harris functional with IExCor= 4639 and IRadAn=       5 diagonalized for initial guess.
 HarFok:  IExCor= 4639 AccDes= 0.00D+00 IRadAn=         5 IDoV= 1 UseB2=F ITyADJ=14
 ICtDFT=  3500011 ScaDFX=  1.000000  1.000000  1.000000  1.000000
 FoFCou: FMM=F IPFlag=           0 FMFlag=      100000 FMFlg1=           0
         NFxFlg=           0 DoJE=T BraDBF=F KetDBF=T FulRan=T
         wScrn=  0.000000 ICntrl=       500 IOpCl=  0 I1Cent=   200000004 NGrid=           0
         NMat0=    1 NMatS0=      1 NMatT0=    0 NMatD0=    1 NMtDS0=    0 NMtDT0=    0
 Petite list used in FoFCou.
 Requested convergence on RMS density matrix=1.00D-08 within 128 cycles.
 Requested convergence on MAX density matrix=1.00D-06.
 Requested convergence on             energy=1.00D-06.
 No special actions if energy rises.
 Integral accuracy reduced to 1.0D-05 until final iterations.
 Initial convergence to 1.0D-05 achieved.  Increase integral accuracy.
 SCF Done:  E(RwB97XD) =  -518.107378701     A.U. after   15 cycles
            NFock= 15  Conv=0.38D-08     -V/T= 2.0105

 **********************************************************************

            Population analysis using the SCF Density.

 **********************************************************************

 Orbital symmetries:
       Occupied  (A) (A) (A) (A) (A) (A) (A) (A) (A) (A) (A) (A)
                 (A) (A) (A) (A) (A) (A) (A) (A) (A) (A) (A) (A)
                 (A) (A) (A) (A) (A) (A) (A) (A) (A) (A) (A) (A)
                 (A) (A) (A) (A) (A) (A) (A) (A) (A)
       Virtual   (A) (A) (A) (A) (A) (A) (A) (A) (A) (A) (A) (A)
                 (A) (A) (A) (A) (A) (A) (A) (A) (A) (A) (A) (A)
                 (A) (A) (A) (A) (A) (A) (A) (A) (A) (A) (A) (A)
                 (A) (A) (A) (A) (A) (A) (A) (A) (A) (A) (A) (A)
                 (A) (A) (A) (A) (A) (A) (A) (A) (A) (A) (A) (A)
                 (A) (A) (A) (A) (A) (A) (A) (A) (A) (A) (A) (A)
                 (A) (A) (A) (A) (A) (A) (A) (A) (A) (A) (A) (A)
                 (A) (A) (A) (A) (A) (A) (A) (A) (A) (A) (A) (A)
                 (A) (A) (A) (A) (A) (A) (A) (A) (A) (A) (A) (A)
                 (A) (A) (A) (A) (A) (A) (A) (A) (A) (A) (A) (A)
                 (A) (A) (A) (A) (A) (A) (A) (A) (A) (A) (A) (A)
                 (A) (A) (A) (A) (A) (A) (A) (A) (A) (A) (A) (A)
                 (A) (A) (A) (A) (A) (A) (A) (A) (A) (A) (A) (A)
                 (A) (A) (A) (A) (A) (A) (A) (A) (A) (A) (A) (A)
                 (A) (A) (A) (A) (A) (A) (A) (A) (A) (A) (A) (A)
                 (A) (A) (A) (A) (A) (A) (A) (A) (A) (A) (A) (A)
 The electronic state is 1-A.
 Alpha  occ. eigenvalues --  -14.46894 -10.34506 -10.34501 -10.29873 -10.29869
 Alpha  occ. eigenvalues --  -10.29775 -10.29770 -10.29592 -10.29586 -10.29262
 Alpha  occ. eigenvalues --  -10.29254 -10.28935 -10.28927  -1.03875  -0.95840
 Alpha  occ. eigenvalues --   -0.93738  -0.85252  -0.84636  -0.83948  -0.80887
 Alpha  occ. eigenvalues --   -0.71705  -0.71291  -0.69193  -0.67440  -0.62826
 Alpha  occ. eigenvalues --   -0.61906  -0.58589  -0.56288  -0.54346  -0.53744
 Alpha  occ. eigenvalues --   -0.52040  -0.51726  -0.51164  -0.50909  -0.48447
 Alpha  occ. eigenvalues --   -0.46390  -0.45025  -0.43875  -0.42685  -0.42651
 Alpha  occ. eigenvalues --   -0.40623  -0.33613  -0.33544  -0.33358  -0.26641
 Alpha virt. eigenvalues --    0.05410   0.06184   0.06598   0.09619   0.14018
 Alpha virt. eigenvalues --    0.15066   0.15209   0.18795   0.19090   0.20470
 Alpha virt. eigenvalues --    0.20669   0.22823   0.23517   0.24150   0.24171
 Alpha virt. eigenvalues --    0.25317   0.26460   0.29943   0.34084   0.35668
 Alpha virt. eigenvalues --    0.37219   0.37753   0.38440   0.38978   0.39451
 Alpha virt. eigenvalues --    0.40031   0.41193   0.44707   0.44720   0.47420
 Alpha virt. eigenvalues --    0.48554   0.49435   0.50279   0.50927   0.52593
 Alpha virt. eigenvalues --    0.53642   0.55052   0.56511   0.56684   0.57969
 Alpha virt. eigenvalues --    0.58228   0.58929   0.58961   0.61189   0.61378
 Alpha virt. eigenvalues --    0.62815   0.63909   0.64793   0.65419   0.66624
 Alpha virt. eigenvalues --    0.68793   0.69652   0.71607   0.72235   0.73821
 Alpha virt. eigenvalues --    0.74169   0.75265   0.75308   0.76966   0.77106
 Alpha virt. eigenvalues --    0.78354   0.78520   0.79985   0.80241   0.81387
 Alpha virt. eigenvalues --    0.81755   0.82698   0.84068   0.84144   0.85117
 Alpha virt. eigenvalues --    0.86190   0.86678   0.89158   0.92303   0.92700
 Alpha virt. eigenvalues --    0.92912   0.95077   0.95877   1.01894   1.02642
 Alpha virt. eigenvalues --    1.04152   1.06395   1.15425   1.15469   1.18168
 Alpha virt. eigenvalues --    1.21380   1.24482   1.26846   1.28694   1.30444
 Alpha virt. eigenvalues --    1.31264   1.33225   1.33788   1.34387   1.35773
 Alpha virt. eigenvalues --    1.37407   1.38418   1.38589   1.39069   1.40954
 Alpha virt. eigenvalues --    1.42209   1.45154   1.54294   1.59384   1.60460
 Alpha virt. eigenvalues --    1.69166   1.73264   1.74407   1.76525   1.77221
 Alpha virt. eigenvalues --    1.77533   1.79316   1.82168   1.82624   1.82888
 Alpha virt. eigenvalues --    1.83753   1.84331   1.85663   1.85929   1.86443
 Alpha virt. eigenvalues --    1.86765   1.87135   1.88796   1.90058   1.90286
 Alpha virt. eigenvalues --    1.91856   1.94214   1.95657   1.96305   2.00466
 Alpha virt. eigenvalues --    2.01213   2.04319   2.04734   2.08046   2.08524
 Alpha virt. eigenvalues --    2.09694   2.10996   2.11408   2.14896   2.18237
 Alpha virt. eigenvalues --    2.19837   2.20400   2.21909   2.23603   2.23758
 Alpha virt. eigenvalues --    2.23781   2.26870   2.27709   2.29012   2.30696
 Alpha virt. eigenvalues --    2.35423   2.38247   2.39137   2.40860   2.41222
 Alpha virt. eigenvalues --    2.41254   2.44080   2.45519   2.45799   2.48360
 Alpha virt. eigenvalues --    2.49601   2.57901   2.60238   2.68187   2.68743
 Alpha virt. eigenvalues --    2.70344   2.72007   2.73616   2.75122   2.78255
 Alpha virt. eigenvalues --    2.78660   2.83505   2.84669   2.84833   2.85419
 Alpha virt. eigenvalues --    2.86059   2.91988   2.97897   2.99602   3.00777
 Alpha virt. eigenvalues --    3.00936   3.07661   3.08419   3.19241   3.23515
 Alpha virt. eigenvalues --    3.24808   3.28809   3.31136   3.41744   3.57156
 Alpha virt. eigenvalues --    3.80091   3.80633
          Condensed to atoms (all electrons):
               1          2          3          4          5          6
     1  C    5.077589   0.351956  -0.036510   0.007456  -0.000298   0.000046
     2  N    0.351956   6.458346   0.352360  -0.083910   0.007639  -0.000305
     3  C   -0.036510   0.352360   5.077051   0.275051   0.113640  -0.160750
     4  C    0.007456  -0.083910   0.275051   5.174200   0.297320   0.079974
     5  C   -0.000298   0.007639   0.113640   0.297320   5.018225   0.289388
     6  C    0.000046  -0.000305  -0.160750   0.079974   0.289388   5.100240
     7  C    0.000246   0.007237   0.116235  -0.145504   0.094230   0.287881
     8  C   -0.010587  -0.077982   0.250962   0.056933  -0.144716   0.079638
     9  C    0.251077  -0.077833  -0.010632  -0.000042   0.000067  -0.000044
    10  C    0.116183   0.007236   0.000247   0.000003   0.000000   0.000001
    11  C   -0.160766  -0.000305   0.000046   0.000000  -0.000000  -0.000000
    12  C    0.113577   0.007655  -0.000298  -0.000006   0.000000  -0.000000
    13  C    0.275204  -0.083807   0.007443  -0.000120  -0.000006   0.000000
    14  H   -0.020181   0.361908  -0.020047  -0.016644   0.000439  -0.000040
    15  H   -0.000052  -0.010032  -0.079766   0.450725  -0.061777   0.015210
    16  H    0.000005  -0.000116   0.015199  -0.067209   0.451162  -0.069487
    17  H    0.000000   0.000009  -0.001642   0.014622  -0.070333   0.452999
    18  H   -0.000018  -0.000113   0.015214  -0.001942   0.014177  -0.071474
    19  H    0.003957  -0.011192  -0.073060   0.015106  -0.002304   0.014595
    20  H   -0.073067  -0.011161   0.003923  -0.000668   0.000040  -0.000133
    21  H    0.015213  -0.000113  -0.000018   0.000000  -0.000000   0.000000
    22  H   -0.001643   0.000009   0.000000   0.000000  -0.000000   0.000000
    23  H    0.015201  -0.000116   0.000005  -0.000000   0.000000   0.000000
    24  H   -0.079780  -0.009999  -0.000051  -0.000022  -0.000001   0.000000
               7          8          9         10         11         12
     1  C    0.000246  -0.010587   0.251077   0.116183  -0.160766   0.113577
     2  N    0.007237  -0.077982  -0.077833   0.007236  -0.000305   0.007655
     3  C    0.116235   0.250962  -0.010632   0.000247   0.000046  -0.000298
     4  C   -0.145504   0.056933  -0.000042   0.000003   0.000000  -0.000006
     5  C    0.094230  -0.144716   0.000067   0.000000  -0.000000   0.000000
     6  C    0.287881   0.079638  -0.000044   0.000001  -0.000000  -0.000000
     7  C    5.021877   0.294266  -0.000375  -0.000012   0.000001   0.000000
     8  C    0.294266   5.197650  -0.004911  -0.000382  -0.000044   0.000068
     9  C   -0.000375  -0.004911   5.196921   0.294315   0.079662  -0.144705
    10  C   -0.000012  -0.000382   0.294315   5.021996   0.287816   0.094229
    11  C    0.000001  -0.000044   0.079662   0.287816   5.100218   0.289339
    12  C    0.000000   0.000068  -0.144705   0.094229   0.289339   5.018699
    13  C    0.000003  -0.000034   0.057016  -0.145501   0.080019   0.296960
    14  H   -0.000147   0.008543   0.008514  -0.000147  -0.000039   0.000441
    15  H   -0.002542   0.017113  -0.000009   0.000000   0.000000  -0.000001
    16  H    0.013981  -0.001923  -0.000000  -0.000000   0.000000   0.000000
    17  H   -0.069601   0.014969   0.000000  -0.000000   0.000000  -0.000000
    18  H    0.453612  -0.068064   0.000037  -0.000002   0.000000  -0.000000
    19  H   -0.063962   0.459618   0.002613   0.001053  -0.000134   0.000040
    20  H    0.001049   0.002618   0.459619  -0.063944   0.014593  -0.002304
    21  H   -0.000002   0.000037  -0.068051   0.453609  -0.071479   0.014176
    22  H   -0.000000   0.000000   0.014966  -0.069597   0.453001  -0.070321
    23  H   -0.000000  -0.000000  -0.001926   0.013981  -0.069491   0.451152
    24  H    0.000000  -0.000009   0.017109  -0.002543   0.015211  -0.061789
              13         14         15         16         17         18
     1  C    0.275204  -0.020181  -0.000052   0.000005   0.000000  -0.000018
     2  N   -0.083807   0.361908  -0.010032  -0.000116   0.000009  -0.000113
     3  C    0.007443  -0.020047  -0.079766   0.015199  -0.001642   0.015214
     4  C   -0.000120  -0.016644   0.450725  -0.067209   0.014622  -0.001942
     5  C   -0.000006   0.000439  -0.061777   0.451162  -0.070333   0.014177
     6  C    0.000000  -0.000040   0.015210  -0.069487   0.452999  -0.071474
     7  C    0.000003  -0.000147  -0.002542   0.013981  -0.069601   0.453612
     8  C   -0.000034   0.008543   0.017113  -0.001923   0.014969  -0.068064
     9  C    0.057016   0.008514  -0.000009  -0.000000   0.000000   0.000037
    10  C   -0.145501  -0.000147   0.000000  -0.000000  -0.000000  -0.000002
    11  C    0.080019  -0.000039   0.000000   0.000000   0.000000   0.000000
    12  C    0.296960   0.000441  -0.000001   0.000000  -0.000000  -0.000000
    13  C    5.173977  -0.016570  -0.000021  -0.000000   0.000000   0.000000
    14  H   -0.016570   0.547178   0.005457  -0.000016  -0.000001   0.000010
    15  H   -0.000021   0.005457   0.692513  -0.013246  -0.000240   0.000025
    16  H   -0.000000  -0.000016  -0.013246   0.672284  -0.012409  -0.000266
    17  H    0.000000  -0.000001  -0.000240  -0.012409   0.676630  -0.012368
    18  H    0.000000   0.000010   0.000025  -0.000266  -0.012368   0.672087
    19  H   -0.000667  -0.000191  -0.000200   0.000021  -0.000230  -0.012923
    20  H    0.015102  -0.000191  -0.000015  -0.000001  -0.000001   0.000059
    21  H   -0.001943   0.000010  -0.000000   0.000000   0.000000  -0.000000
    22  H    0.014619  -0.000001   0.000000   0.000000  -0.000000   0.000000
    23  H   -0.067187  -0.000016   0.000000  -0.000000   0.000000   0.000000
    24  H    0.450761   0.005441  -0.000017   0.000000   0.000000  -0.000000
              19         20         21         22         23         24
     1  C    0.003957  -0.073067   0.015213  -0.001643   0.015201  -0.079780
     2  N   -0.011192  -0.011161  -0.000113   0.000009  -0.000116  -0.009999
     3  C   -0.073060   0.003923  -0.000018   0.000000   0.000005  -0.000051
     4  C    0.015106  -0.000668   0.000000   0.000000  -0.000000  -0.000022
     5  C   -0.002304   0.000040  -0.000000  -0.000000   0.000000  -0.000001
     6  C    0.014595  -0.000133   0.000000   0.000000   0.000000   0.000000
     7  C   -0.063962   0.001049  -0.000002  -0.000000  -0.000000   0.000000
     8  C    0.459618   0.002618   0.000037   0.000000  -0.000000  -0.000009
     9  C    0.002613   0.459619  -0.068051   0.014966  -0.001926   0.017109
    10  C    0.001053  -0.063944   0.453609  -0.069597   0.013981  -0.002543
    11  C   -0.000134   0.014593  -0.071479   0.453001  -0.069491   0.015211
    12  C    0.000040  -0.002304   0.014176  -0.070321   0.451152  -0.061789
    13  C   -0.000667   0.015102  -0.001943   0.014619  -0.067187   0.450761
    14  H   -0.000191  -0.000191   0.000010  -0.000001  -0.000016   0.005441
    15  H   -0.000200  -0.000015  -0.000000   0.000000   0.000000  -0.000017
    16  H    0.000021  -0.000001   0.000000   0.000000  -0.000000   0.000000
    17  H   -0.000230  -0.000001   0.000000  -0.000000   0.000000   0.000000
    18  H   -0.012923   0.000059  -0.000000   0.000000   0.000000  -0.000000
    19  H    0.658271  -0.004108   0.000059  -0.000001  -0.000001  -0.000016
    20  H   -0.004108   0.658203  -0.012919  -0.000230   0.000021  -0.000200
    21  H    0.000059  -0.012919   0.672043  -0.012366  -0.000266   0.000025
    22  H   -0.000001  -0.000230  -0.012366   0.676570  -0.012408  -0.000240
    23  H   -0.000001   0.000021  -0.000266  -0.012408   0.672250  -0.013247
    24  H   -0.000016  -0.000200   0.000025  -0.000240  -0.013247   0.692429
 Mulliken charges:
               1
     1  C    0.155190
     2  N   -0.187374
     3  C    0.155398
     4  C   -0.055324
     5  C   -0.006891
     6  C   -0.017740
     7  C   -0.008472
     8  C   -0.073764
     9  C   -0.073391
    10  C   -0.008541
    11  C   -0.017649
    12  C   -0.006913
    13  C   -0.055246
    14  H    0.136289
    15  H   -0.013126
    16  H    0.012022
    17  H    0.007596
    18  H    0.011949
    19  H    0.013659
    20  H    0.013717
    21  H    0.011983
    22  H    0.007641
    23  H    0.012049
    24  H   -0.013063
 Sum of Mulliken charges =  -0.00000
 Mulliken charges with hydrogens summed into heavy atoms:
               1
     1  C    0.155190
     2  N   -0.051084
     3  C    0.155398
     4  C   -0.068450
     5  C    0.005131
     6  C   -0.010144
     7  C    0.003476
     8  C   -0.060105
     9  C   -0.059674
    10  C    0.003443
    11  C   -0.010009
    12  C    0.005137
    13  C   -0.068309
 Electronic spatial extent (au):  <R**2>=           2898.0083
 Charge=             -0.0000 electrons
 Dipole moment (field-independent basis, Debye):
    X=              0.0049    Y=             -0.8260    Z=             -0.0013  Tot=              0.8260
 Quadrupole moment (field-independent basis, Debye-Ang):
   XX=            -70.8013   YY=            -66.9800   ZZ=            -80.4110
   XY=              0.0042   XZ=              1.8205   YZ=              0.0013
 Traceless Quadrupole moment (field-independent basis, Debye-Ang):
   XX=              1.9294   YY=              5.7508   ZZ=             -7.6803
   XY=              0.0042   XZ=              1.8205   YZ=              0.0013
 Octapole moment (field-independent basis, Debye-Ang**2):
  XXX=              0.0449  YYY=            -10.0126  ZZZ=             -0.0097  XYY=              0.0033
  XXY=              1.8389  XXZ=              0.0302  XZZ=              0.0212  YZZ=              0.0764
  YYZ=             -0.0169  XYZ=            -12.8714
 Hexadecapole moment (field-independent basis, Debye-Ang**3):
 XXXX=          -3046.7089 YYYY=           -513.0796 ZZZZ=           -178.5608 XXXY=              0.1197
 XXXZ=             51.3669 YYYX=              0.0018 YYYZ=              0.0419 ZZZX=              2.5884
 ZZZY=             -0.0141 XXYY=           -602.7852 XXZZ=           -621.6281 YYZZ=           -119.8482
 XXYZ=             -0.0242 YYXZ=             -2.8378 ZZXY=             -0.0118
 N-N= 6.978027017368D+02 E-N=-2.594941948960D+03  KE= 5.127265130803D+02
   1 Symmetry operations used in ECPInt.
 ECPInt:  NShTT=    6216 NPrTT=   22568 LenC2=    5892 LenP2D=   15940.
 LDataN:  DoStor=T MaxTD1= 5 Len=  102
 Calling FoFJK, ICntrl=      2127 FMM=F ISym2X=0 I1Cent= 0 IOpClX= 0 NMat=1 NMatS=1 NMatT=0.
 ***** Axes restored to original set *****
 -------------------------------------------------------------------
 Center     Atomic                   Forces (Hartrees/Bohr)
 Number     Number              X              Y              Z
 -------------------------------------------------------------------
      1        6           0.019770398    0.006713625   -0.000787553
      2        7           0.000022830   -0.002889159    0.000063266
      3        6          -0.019825698    0.006661570    0.000669677
      4        6          -0.008116001    0.002346790   -0.000913400
      5        6           0.001758328   -0.000833339    0.001805776
      6        6           0.007208840   -0.003540757   -0.000357292
      7        6           0.002409000    0.000503833   -0.001423503
      8        6          -0.006236075    0.002155581    0.002029503
      9        6           0.006236129    0.002175227   -0.002017740
     10        6          -0.002394490    0.000466737    0.001452905
     11        6          -0.007194838   -0.003519564    0.000384250
     12        6          -0.001789706   -0.000839979   -0.001805446
     13        6           0.008156142    0.002350335    0.000870205
     14        1          -0.000013165   -0.006361499    0.000024883
     15        1          -0.000904517    0.011482376   -0.005049863
     16        1           0.007744133    0.005873964   -0.003516410
     17        1           0.009367584   -0.004311740   -0.000012127
     18        1           0.000415331   -0.009400182    0.004242370
     19        1          -0.007627395   -0.006335881    0.004204679
     20        1           0.007625258   -0.006334115   -0.004230129
     21        1          -0.000426986   -0.009391386   -0.004249314
     22        1          -0.009370352   -0.004310349    0.000016032
     23        1          -0.007735371    0.005869842    0.003531182
     24        1           0.000920618    0.011468072    0.005068050
 -------------------------------------------------------------------
 Cartesian Forces:  Max     0.019825698 RMS     0.005905025

 GradGradGradGradGradGradGradGradGradGradGradGradGradGradGradGradGradGrad
 Berny optimization.
 FormGI is forming the generalized inverse of G from B-inverse, IUseBI=4.
 Internal  Forces:  Max     0.015920104 RMS     0.005755996
 Search for a local minimum.
 Step number   1 out of a maximum of  130
 All quantities printed in internal units (Hartrees-Bohrs-Radians)
 Mixed Optimization -- RFO/linear search
 Second derivative matrix not updated -- first step.
 ITU=  0
     Eigenvalues ---    0.01512   0.01513   0.01513   0.01969   0.01969
     Eigenvalues ---    0.02187   0.02187   0.02266   0.02266   0.02287
     Eigenvalues ---    0.02287   0.02333   0.02333   0.02333   0.02333
     Eigenvalues ---    0.02351   0.02351   0.02365   0.02365   0.02369
     Eigenvalues ---    0.02369   0.15989   0.15989   0.15999   0.15999
     Eigenvalues ---    0.16000   0.16000   0.16000   0.16000   0.16000
     Eigenvalues ---    0.16000   0.16000   0.21999   0.21999   0.22000
     Eigenvalues ---    0.22000   0.22000   0.23464   0.23464   0.24983
     Eigenvalues ---    0.24984   0.36252   0.36253   0.36254   0.36255
     Eigenvalues ---    0.36260   0.36260   0.36467   0.36467   0.36542
     Eigenvalues ---    0.36542   0.43063   0.43064   0.43440   0.43454
     Eigenvalues ---    0.43755   0.43755   0.44760   0.47325   0.47326
     Eigenvalues ---    0.47896   0.47896   0.49031   0.49031   0.49679
     Eigenvalues ---    0.49680
 RFO step:  Lambda=-1.01454357D-02 EMin= 1.51194202D-02
 Linear search not attempted -- first point.
 Iteration  1 RMS(Cart)=  0.08548334 RMS(Int)=  0.00122095
 Iteration  2 RMS(Cart)=  0.00350476 RMS(Int)=  0.00007684
 Iteration  3 RMS(Cart)=  0.00000771 RMS(Int)=  0.00007679
 Iteration  4 RMS(Cart)=  0.00000000 RMS(Int)=  0.00007679
 Variable       Old X    -DE/DX   Delta X   Delta X   Delta X     New X
                                 (Linear)    (Quad)   (Total)
    R1        2.67131  -0.01441   0.00000  -0.03243  -0.03243   2.63888
    R2        2.63521   0.01039   0.00000   0.02152   0.02152   2.65672
    R3        2.63591   0.00847   0.00000   0.01737   0.01736   2.65327
    R4        2.67114  -0.01440   0.00000  -0.03239  -0.03239   2.63875
    R5        1.92255  -0.00636   0.00000  -0.01390  -0.01390   1.90865
    R6        2.63589   0.00850   0.00000   0.01744   0.01743   2.65332
    R7        2.63518   0.01041   0.00000   0.02156   0.02156   2.65674
    R8        2.60196   0.01524   0.00000   0.02994   0.02993   2.63190
    R9        2.03357   0.01255   0.00000   0.03348   0.03348   2.06705
   R10        2.61079   0.01275   0.00000   0.02589   0.02589   2.63668
   R11        2.03685   0.01031   0.00000   0.02766   0.02766   2.06450
   R12        2.61071   0.01327   0.00000   0.02707   0.02708   2.63779
   R13        2.03677   0.01031   0.00000   0.02766   0.02766   2.06443
   R14        2.60185   0.01592   0.00000   0.03153   0.03154   2.63339
   R15        2.03688   0.01028   0.00000   0.02759   0.02759   2.06447
   R16        2.03243   0.01068   0.00000   0.02845   0.02845   2.06087
   R17        2.60185   0.01592   0.00000   0.03152   0.03153   2.63338
   R18        2.03242   0.01069   0.00000   0.02847   0.02847   2.06089
   R19        2.61071   0.01328   0.00000   0.02708   0.02709   2.63780
   R20        2.03690   0.01028   0.00000   0.02758   0.02758   2.06447
   R21        2.61080   0.01274   0.00000   0.02587   0.02588   2.63668
   R22        2.03676   0.01031   0.00000   0.02766   0.02766   2.06443
   R23        2.60195   0.01526   0.00000   0.02998   0.02997   2.63192
   R24        2.03685   0.01030   0.00000   0.02765   0.02765   2.06450
   R25        2.03357   0.01254   0.00000   0.03347   0.03347   2.06704
    A1        2.12374   0.00557   0.00000   0.02195   0.02191   2.14565
    A2        2.09337  -0.00730   0.00000  -0.02753  -0.02755   2.06583
    A3        2.06551   0.00172   0.00000   0.00508   0.00502   2.07053
    A4        2.23791   0.00532   0.00000   0.02311   0.02311   2.26102
    A5        2.02272  -0.00267   0.00000  -0.01162  -0.01162   2.01110
    A6        2.02256  -0.00265   0.00000  -0.01150  -0.01150   2.01106
    A7        2.09333  -0.00731   0.00000  -0.02759  -0.02761   2.06572
    A8        2.12383   0.00560   0.00000   0.02205   0.02201   2.14583
    A9        2.06551   0.00170   0.00000   0.00503   0.00497   2.07048
   A10        2.10728  -0.00013   0.00000  -0.00165  -0.00168   2.10560
   A11        2.07523   0.00074   0.00000   0.00485   0.00486   2.08009
   A12        2.10062  -0.00062   0.00000  -0.00315  -0.00314   2.09747
   A13        2.09670   0.00160   0.00000   0.00747   0.00744   2.10414
   A14        2.09343  -0.00159   0.00000  -0.00836  -0.00837   2.08506
   A15        2.09305  -0.00001   0.00000   0.00090   0.00088   2.09394
   A16        2.09245  -0.00380   0.00000  -0.01475  -0.01475   2.07770
   A17        2.09540   0.00179   0.00000   0.00670   0.00670   2.10210
   A18        2.09532   0.00201   0.00000   0.00802   0.00802   2.10334
   A19        2.09668   0.00256   0.00000   0.01250   0.01249   2.10917
   A20        2.09309  -0.00042   0.00000  -0.00123  -0.00125   2.09183
   A21        2.09341  -0.00214   0.00000  -0.01132  -0.01133   2.08207
   A22        2.10754  -0.00194   0.00000  -0.00865  -0.00866   2.09889
   A23        2.07847   0.00236   0.00000   0.01255   0.01255   2.09102
   A24        2.09655  -0.00042   0.00000  -0.00376  -0.00377   2.09278
   A25        2.10754  -0.00194   0.00000  -0.00865  -0.00865   2.09888
   A26        2.07844   0.00236   0.00000   0.01254   0.01254   2.09098
   A27        2.09658  -0.00042   0.00000  -0.00375  -0.00375   2.09283
   A28        2.09669   0.00255   0.00000   0.01245   0.01244   2.10913
   A29        2.09338  -0.00213   0.00000  -0.01128  -0.01129   2.08209
   A30        2.09310  -0.00042   0.00000  -0.00123  -0.00124   2.09185
   A31        2.09245  -0.00379   0.00000  -0.01470  -0.01470   2.07775
   A32        2.09535   0.00200   0.00000   0.00798   0.00797   2.10332
   A33        2.09537   0.00179   0.00000   0.00670   0.00670   2.10207
   A34        2.09671   0.00159   0.00000   0.00744   0.00740   2.10411
   A35        2.09305  -0.00001   0.00000   0.00090   0.00089   2.09394
   A36        2.09343  -0.00158   0.00000  -0.00833  -0.00834   2.08508
   A37        2.10728  -0.00013   0.00000  -0.00167  -0.00170   2.10558
   A38        2.07522   0.00074   0.00000   0.00484   0.00485   2.08007
   A39        2.10063  -0.00061   0.00000  -0.00313  -0.00311   2.09752
    D1       -0.44135  -0.00148   0.00000  -0.05766  -0.05764  -0.49900
    D2        2.70167  -0.00147   0.00000  -0.05738  -0.05736   2.64431
    D3        2.73678  -0.00102   0.00000  -0.04134  -0.04136   2.69542
    D4       -0.40338  -0.00101   0.00000  -0.04107  -0.04108  -0.44446
    D5       -3.12492   0.00034   0.00000   0.00776   0.00804  -3.11688
    D6       -0.02135   0.00043   0.00000   0.01207   0.01229  -0.00906
    D7       -0.01930  -0.00030   0.00000  -0.00897  -0.00895  -0.02825
    D8        3.08427  -0.00021   0.00000  -0.00466  -0.00470   3.07957
    D9        3.12710  -0.00052   0.00000  -0.01965  -0.01938   3.10771
   D10       -0.02497  -0.00040   0.00000  -0.01566  -0.01543  -0.04040
   D11        0.02083  -0.00016   0.00000  -0.00426  -0.00420   0.01663
   D12       -3.13123  -0.00004   0.00000  -0.00027  -0.00025  -3.13148
   D13        2.74178  -0.00101   0.00000  -0.04088  -0.04089   2.70089
   D14       -0.43511  -0.00150   0.00000  -0.05810  -0.05808  -0.49320
   D15       -0.40124  -0.00101   0.00000  -0.04116  -0.04117  -0.44242
   D16        2.70505  -0.00150   0.00000  -0.05838  -0.05836   2.64669
   D17        3.12860  -0.00055   0.00000  -0.02059  -0.02031   3.10828
   D18       -0.02416  -0.00041   0.00000  -0.01608  -0.01584  -0.04000
   D19        0.02114  -0.00016   0.00000  -0.00432  -0.00426   0.01687
   D20       -3.13162  -0.00003   0.00000   0.00019   0.00021  -3.13141
   D21       -3.12655   0.00037   0.00000   0.00890   0.00919  -3.11736
   D22       -0.02272   0.00046   0.00000   0.01289   0.01312  -0.00960
   D23       -0.01972  -0.00029   0.00000  -0.00870  -0.00868  -0.02840
   D24        3.08411  -0.00020   0.00000  -0.00471  -0.00475   3.07937
   D25       -0.00867   0.00056   0.00000   0.01555   0.01564   0.00697
   D26        3.13331   0.00017   0.00000   0.00456   0.00460   3.13791
   D27       -3.13893   0.00041   0.00000   0.01092   0.01107  -3.12786
   D28        0.00304   0.00002   0.00000  -0.00007   0.00003   0.00307
   D29       -0.00573  -0.00045   0.00000  -0.01355  -0.01357  -0.01930
   D30       -3.14083  -0.00034   0.00000  -0.00953  -0.00958   3.13278
   D31        3.13549  -0.00006   0.00000  -0.00257  -0.00248   3.13301
   D32        0.00038   0.00006   0.00000   0.00145   0.00151   0.00189
   D33        0.00714  -0.00001   0.00000   0.00055   0.00050   0.00764
   D34       -3.12788   0.00032   0.00000   0.01005   0.01008  -3.11780
   D35       -3.14094  -0.00013   0.00000  -0.00348  -0.00350   3.13874
   D36        0.00723   0.00020   0.00000   0.00603   0.00608   0.01331
   D37        0.00582   0.00035   0.00000   0.01056   0.01058   0.01640
   D38       -3.09762   0.00021   0.00000   0.00618   0.00629  -3.09133
   D39        3.14084   0.00003   0.00000   0.00110   0.00109  -3.14125
   D40        0.03740  -0.00011   0.00000  -0.00329  -0.00320   0.03420
   D41        0.00558   0.00036   0.00000   0.01085   0.01086   0.01644
   D42        3.14071   0.00003   0.00000   0.00121   0.00121  -3.14127
   D43       -3.09760   0.00021   0.00000   0.00615   0.00625  -3.09134
   D44        0.03754  -0.00012   0.00000  -0.00349  -0.00340   0.03413
   D45        0.00709  -0.00001   0.00000   0.00046   0.00041   0.00751
   D46       -3.14086  -0.00013   0.00000  -0.00361  -0.00364   3.13868
   D47       -3.12804   0.00033   0.00000   0.01013   0.01016  -3.11788
   D48        0.00719   0.00020   0.00000   0.00606   0.00611   0.01330
   D49       -0.00557  -0.00046   0.00000  -0.01367  -0.01369  -0.01926
   D50        3.13548  -0.00006   0.00000  -0.00241  -0.00232   3.13316
   D51       -3.14079  -0.00034   0.00000  -0.00961  -0.00965   3.13274
   D52        0.00025   0.00007   0.00000   0.00166   0.00172   0.00197
   D53       -0.00865   0.00057   0.00000   0.01568   0.01577   0.00712
   D54       -3.13961   0.00044   0.00000   0.01159   0.01173  -3.12788
   D55        3.13350   0.00016   0.00000   0.00441   0.00445   3.13795
   D56        0.00253   0.00003   0.00000   0.00031   0.00041   0.00294
         Item               Value     Threshold  Converged?
 Maximum Force            0.015920     0.000450     NO 
 RMS     Force            0.005756     0.000300     NO 
 Maximum Displacement     0.232526     0.001800     NO 
 RMS     Displacement     0.088012     0.001200     NO 
 Predicted change in Energy=-5.318316D-03
 GradGradGradGradGradGradGradGradGradGradGradGradGradGradGradGradGradGrad

                          Input orientation:                          
 ---------------------------------------------------------------------
 Center     Atomic      Atomic             Coordinates (Angstroms)
 Number     Number       Type             X           Y           Z
 ---------------------------------------------------------------------
      1          6           0       -1.262769    0.433651   -0.033550
      2          7           0        0.000136    1.028738   -0.002361
      3          6           0        1.262847    0.433546    0.031519
      4          6           0        2.355718    1.159030   -0.469222
      5          6           0        3.642084    0.627228   -0.422604
      6          6           0        3.866568   -0.640406    0.115442
      7          6           0        2.786014   -1.359924    0.628388
      8          6           0        1.497034   -0.831151    0.599165
      9          6           0       -1.498222   -0.830625   -0.601584
     10          6           0       -2.787318   -1.359212   -0.628633
     11          6           0       -3.866748   -0.639836   -0.113107
     12          6           0       -3.641038    0.627358    0.425455
     13          6           0       -2.354476    1.158893    0.469994
     14          1           0        0.000227    2.038754   -0.003082
     15          1           0        2.185075    2.148097   -0.904084
     16          1           0        4.478016    1.206970   -0.820904
     17          1           0        4.875212   -1.059078    0.143561
     18          1           0        2.950029   -2.344248    1.073019
     19          1           0        0.671447   -1.385934    1.046330
     20          1           0       -0.673537   -1.385202   -1.050687
     21          1           0       -2.952357   -2.343209   -1.073610
     22          1           0       -4.875517   -1.058316   -0.139568
     23          1           0       -4.476098    1.206892    0.825881
     24          1           0       -2.182769    2.147605    0.905232
 ---------------------------------------------------------------------
                    Distance matrix (angstroms):
                    1          2          3          4          5
     1  C    0.000000
     2  N    1.396436   0.000000
     3  C    2.526455   1.396367   0.000000
     4  C    3.716106   2.404933   1.404079   0.000000
     5  C    4.924065   3.688034   2.429919   1.392739   0.000000
     6  C    5.242700   4.212981   2.817761   2.421253   1.395272
     7  C    4.477468   3.723528   2.427514   2.781193   2.405455
     8  C    3.101059   2.462056   1.405888   2.416528   2.787852
     9  C    1.405878   2.461987   3.102008   4.339252   5.346038
    10  C    2.427494   3.723496   4.478127   5.728681   6.732429
    11  C    2.817695   4.212980   5.242691   6.487050   7.621272
    12  C    2.429890   3.688127   4.923498   6.086395   7.332330
    13  C    1.404050   2.405049   3.715295   4.802922   6.085896
    14  H    2.042656   1.010016   2.042572   2.557253   3.928298
    15  H    3.947757   2.615344   2.159987   1.093836   2.160495
    16  H    5.845902   4.555567   3.414985   2.151773   1.092487
    17  H    6.319369   5.305340   3.910199   3.412236   2.164434
    18  H    5.166129   4.608182   3.412835   3.873586   3.397867
    19  H    2.866745   2.716809   2.165664   3.407420   3.877534
    20  H    2.165637   2.716602   2.868553   3.998450   4.803014
    21  H    3.412826   4.608125   5.167168   6.388007   7.261815
    22  H    3.910134   5.305338   6.319370   7.570737   8.687387
    23  H    3.414968   4.555699   5.845046   6.953653   8.234051
    24  H    2.159942   2.615466   3.946345   4.843993   6.164706
                    6          7          8          9         10
     6  C    0.000000
     7  C    1.395857   0.000000
     8  C    2.425915   1.393529   0.000000
     9  C    5.415837   4.488615   3.226974   0.000000
    10  C    6.733835   5.713329   4.487985   1.393522   0.000000
    11  C    7.736693   6.732576   5.414249   2.425886   1.395864
    12  C    7.620202   6.730339   5.343894   2.787863   2.405493
    13  C    6.485721   5.726619   4.337175   2.416533   2.781220
    14  H    4.705374   4.439637   3.292338   3.291943   4.439357
    15  H    3.412125   3.875024   3.407209   4.746680   6.091124
    16  H    2.159493   3.398863   3.880308   6.317858   7.707616
    17  H    1.092447   2.165714   3.416375   6.420911   7.707188
    18  H    2.158721   1.092470   2.150627   4.988216   6.064905
    19  H    3.410449   2.155631   1.090566   2.780549   3.843081
    20  H    4.746276   3.845572   2.782151   1.090575   2.155662
    21  H    7.128192   6.065686   4.988144   2.150634   1.092471
    22  H    8.755782   7.705827   6.419247   3.416346   2.165709
    23  H    8.574223   7.704921   6.315324   3.880319   3.398894
    24  H    6.707552   6.088366   4.744219   3.407191   3.875046
                   11         12         13         14         15
    11  C    0.000000
    12  C    1.395269   0.000000
    13  C    2.421239   1.392751   0.000000
    14  H    4.705363   3.928675   2.557847   0.000000
    15  H    6.709901   6.166353   4.845012   2.365866   0.000000
    16  H    8.575941   8.234585   6.953537   4.627234   2.479963
    17  H    8.755770   8.686198   7.569303   5.777850   4.315132
    18  H    7.126035   7.258922   6.385406   5.391664   4.967419
    19  H    4.743013   4.799620   3.995563   3.644214   4.310981
    20  H    3.410458   3.877557   3.407410   3.643475   4.547236
    21  H    2.158739   3.397903   3.873615   5.391232   6.825964
    22  H    1.092447   2.164414   3.412218   5.777832   7.792145
    23  H    2.159493   1.092486   2.151799   4.627813   6.946213
    24  H    3.412129   2.160529   1.093831   2.366929   4.727757
                   16         17         18         19         20
    16  H    0.000000
    17  H    2.494580   0.000000
    18  H    4.304978   2.494371   0.000000
    19  H    4.969878   4.312015   2.472047   0.000000
    20  H    5.771539   5.685174   4.308147   2.491278   0.000000
    21  H    8.238816   8.025045   6.280620   4.306098   2.472109
    22  H    9.648022   9.754839   8.022665   5.681769   4.312033
    23  H    9.104288   9.646097   8.235232   5.767891   4.969902
    24  H    6.944811   7.789612   6.822794   4.544486   4.310930
                   21         22         23         24
    21  H    0.000000
    22  H    2.494379   0.000000
    23  H    4.305005   2.494553   0.000000
    24  H    4.967443   4.315139   2.480039   0.000000
 Stoichiometry    C12H11N
 Framework group  C1[X(C12H11N)]
 Deg. of freedom    66
 Full point group                 C1      NOp   1
 Largest Abelian subgroup         C1      NOp   1
 Largest concise Abelian subgroup C1      NOp   1
                         Standard orientation:                         
 ---------------------------------------------------------------------
 Center     Atomic      Atomic             Coordinates (Angstroms)
 Number     Number       Type             X           Y           Z
 ---------------------------------------------------------------------
      1          6           0        1.262918   -0.444287   -0.026327
      2          7           0       -0.000155   -1.039351   -0.002240
      3          6           0       -1.263026   -0.444135    0.024486
      4          6           0       -2.353067   -1.169622   -0.482384
      5          6           0       -3.639665   -0.637796   -0.443050
      6          6           0       -3.867160    0.629866    0.093664
      7          6           0       -2.789505    1.349387    0.612670
      8          6           0       -1.500391    0.820590    0.590746
      9          6           0        1.501595    0.819959   -0.593078
     10          6           0        2.790833    1.348522   -0.612872
     11          6           0        3.867323    0.629150   -0.091231
     12          6           0        3.638554   -0.638017    0.446104
     13          6           0        2.351751   -1.169527    0.483403
     14          1           0       -0.000259   -2.049368   -0.002918
     15          1           0       -2.179989   -2.158711   -0.916233
     16          1           0       -4.473346   -1.217541   -0.846037
     17          1           0       -4.875940    1.048556    0.116071
     18          1           0       -2.956011    2.333734    1.056325
     19          1           0       -0.677331    1.375378    1.042540
     20          1           0        0.679468    1.374531   -1.046852
     21          1           0        2.958399    2.332497   -1.056954
     22          1           0        4.876232    1.047611   -0.112015
     23          1           0        4.471330   -1.217548    0.851262
     24          1           0        2.177573   -2.158217    0.917708
 ---------------------------------------------------------------------
 Rotational constants (GHZ):           2.5144099           0.4073195           0.3687441
 Standard basis: def2SVP (5D, 7F)
 There are   250 symmetry adapted cartesian basis functions of A   symmetry.
 There are   237 symmetry adapted basis functions of A   symmetry.
   237 basis functions,   402 primitive gaussians,   250 cartesian basis functions
    45 alpha electrons       45 beta electrons
       nuclear repulsion energy       692.2899877518 Hartrees.
 NAtoms=   24 NActive=   24 NUniq=   24 SFac= 1.00D+00 NAtFMM=   60 NAOKFM=F Big=F
 Integral buffers will be    131072 words long.
 Raffenetti 2 integral format.
 Two-electron integral symmetry is turned on.
 Nuclear repulsion after empirical dispersion term =      692.2764892613 Hartrees.
 One-electron integrals computed using PRISM.
   1 Symmetry operations used in ECPInt.
 ECPInt:  NShTT=    6216 NPrTT=   22568 LenC2=    5877 LenP2D=   15867.
 LDataN:  DoStor=T MaxTD1= 4 Len=   56
 NBasis=   237 RedAO= T EigKep=  2.77D-04  NBF=   237
 NBsUse=   237 1.00D-06 EigRej= -1.00D+00 NBFU=   237
 Initial guess from the checkpoint file:  "prod_3a_1.chk"
 B after Tr=     0.000000    0.000000   -0.000000
         Rot=    0.999996    0.000004    0.002803    0.000009 Ang=   0.32 deg.
 ExpMin= 1.22D-01 ExpMax= 1.71D+03 ExpMxC= 2.58D+02 IAcc=3 IRadAn=         5 AccDes= 0.00D+00
 Harris functional with IExCor= 4639 and IRadAn=       5 diagonalized for initial guess.
 HarFok:  IExCor= 4639 AccDes= 0.00D+00 IRadAn=         5 IDoV= 1 UseB2=F ITyADJ=14
 ICtDFT=  3500011 ScaDFX=  1.000000  1.000000  1.000000  1.000000
 FoFCou: FMM=F IPFlag=           0 FMFlag=      100000 FMFlg1=           0
         NFxFlg=           0 DoJE=T BraDBF=F KetDBF=T FulRan=T
         wScrn=  0.000000 ICntrl=       500 IOpCl=  0 I1Cent=   200000004 NGrid=           0
         NMat0=    1 NMatS0=      1 NMatT0=    0 NMatD0=    1 NMtDS0=    0 NMtDT0=    0
 Petite list used in FoFCou.
 Requested convergence on RMS density matrix=1.00D-08 within 128 cycles.
 Requested convergence on MAX density matrix=1.00D-06.
 Requested convergence on             energy=1.00D-06.
 No special actions if energy rises.
 Integral accuracy reduced to 1.0D-05 until final iterations.
 Initial convergence to 1.0D-05 achieved.  Increase integral accuracy.
 SCF Done:  E(RwB97XD) =  -518.111778155     A.U. after   12 cycles
            NFock= 12  Conv=0.83D-08     -V/T= 2.0116
   1 Symmetry operations used in ECPInt.
 ECPInt:  NShTT=    6216 NPrTT=   22568 LenC2=    5877 LenP2D=   15867.
 LDataN:  DoStor=T MaxTD1= 5 Len=  102
 Calling FoFJK, ICntrl=      2127 FMM=F ISym2X=0 I1Cent= 0 IOpClX= 0 NMat=1 NMatS=1 NMatT=0.
 ***** Axes restored to original set *****
 -------------------------------------------------------------------
 Center     Atomic                   Forces (Hartrees/Bohr)
 Number     Number              X              Y              Z
 -------------------------------------------------------------------
      1        6           0.001780504    0.000260683   -0.000538734
      2        7           0.000013746   -0.002024956    0.000009962
      3        6          -0.001797963    0.000257052    0.000523508
      4        6           0.001971499   -0.001026786   -0.000446363
      5        6          -0.000958210   -0.000217438    0.000555741
      6        6          -0.000435942   -0.000103723    0.000292611
      7        6           0.000144155    0.001638453   -0.001195013
      8        6          -0.000255499    0.000885780   -0.000529770
      9        6           0.000247435    0.000878829    0.000535386
     10        6          -0.000136523    0.001627220    0.001195775
     11        6           0.000438484   -0.000094988   -0.000285124
     12        6           0.000947936   -0.000224641   -0.000554811
     13        6          -0.001963283   -0.001018574    0.000430293
     14        1          -0.000000848    0.000509559    0.000009133
     15        1           0.000321367   -0.000540554   -0.000232674
     16        1          -0.000198610    0.000222006    0.000026983
     17        1          -0.000645947    0.000174913   -0.000041969
     18        1          -0.000377934    0.000013751    0.000103834
     19        1          -0.000794980   -0.000544285   -0.000808640
     20        1           0.000802352   -0.000540953    0.000807374
     21        1           0.000375476    0.000014748   -0.000103824
     22        1           0.000645200    0.000173936    0.000040162
     23        1           0.000198178    0.000221981   -0.000029945
     24        1          -0.000320594   -0.000542016    0.000236105
 -------------------------------------------------------------------
 Cartesian Forces:  Max     0.002024956 RMS     0.000751984

 GradGradGradGradGradGradGradGradGradGradGradGradGradGradGradGradGradGrad
 Berny optimization.
 Using GEDIIS/GDIIS optimizer.
 FormGI is forming the generalized inverse of G from B-inverse, IUseBI=4.
 Internal  Forces:  Max     0.005738678 RMS     0.001167273
 Search for a local minimum.
 Step number   2 out of a maximum of  130
 All quantities printed in internal units (Hartrees-Bohrs-Radians)
 Mixed Optimization -- RFO/linear search
 Update second derivatives using D2CorX and points    1    2
 DE= -4.40D-03 DEPred=-5.32D-03 R= 8.27D-01
 TightC=F SS=  1.41D+00  RLast= 2.20D-01 DXNew= 5.0454D-01 6.5988D-01
 Trust test= 8.27D-01 RLast= 2.20D-01 DXMaxT set to 5.05D-01
 ITU=  1  0
 Use linear search instead of GDIIS.
     Eigenvalues ---    0.01513   0.01513   0.01649   0.01973   0.02007
     Eigenvalues ---    0.02177   0.02187   0.02265   0.02266   0.02286
     Eigenvalues ---    0.02286   0.02333   0.02333   0.02334   0.02338
     Eigenvalues ---    0.02351   0.02353   0.02365   0.02365   0.02369
     Eigenvalues ---    0.02369   0.15921   0.15991   0.15998   0.15999
     Eigenvalues ---    0.15999   0.15999   0.15999   0.15999   0.16000
     Eigenvalues ---    0.16000   0.16014   0.21500   0.21999   0.21999
     Eigenvalues ---    0.22000   0.22533   0.23441   0.23465   0.24964
     Eigenvalues ---    0.26319   0.35627   0.36252   0.36254   0.36255
     Eigenvalues ---    0.36260   0.36323   0.36381   0.36467   0.36542
     Eigenvalues ---    0.36679   0.41727   0.43145   0.43153   0.43447
     Eigenvalues ---    0.43802   0.43865   0.44800   0.47222   0.47320
     Eigenvalues ---    0.47908   0.48576   0.49035   0.49035   0.49679
     Eigenvalues ---    0.51920
 RFO step:  Lambda=-8.81782954D-04 EMin= 1.51253949D-02
 Quartic linear search produced a step of -0.10543.
 Iteration  1 RMS(Cart)=  0.07211924 RMS(Int)=  0.00113190
 Iteration  2 RMS(Cart)=  0.00207270 RMS(Int)=  0.00003240
 Iteration  3 RMS(Cart)=  0.00000148 RMS(Int)=  0.00003239
 Iteration  4 RMS(Cart)=  0.00000000 RMS(Int)=  0.00003239
 Variable       Old X    -DE/DX   Delta X   Delta X   Delta X     New X
                                 (Linear)    (Quad)   (Total)
    R1        2.63888  -0.00309   0.00342  -0.01313  -0.00971   2.62917
    R2        2.65672  -0.00229  -0.00227   0.00006  -0.00221   2.65452
    R3        2.65327   0.00040  -0.00183   0.00445   0.00261   2.65588
    R4        2.63875  -0.00310   0.00341  -0.01315  -0.00974   2.62901
    R5        1.90865   0.00051   0.00147  -0.00189  -0.00042   1.90823
    R6        2.65332   0.00040  -0.00184   0.00447   0.00263   2.65595
    R7        2.65674  -0.00229  -0.00227   0.00006  -0.00220   2.65454
    R8        2.63190  -0.00159  -0.00316   0.00349   0.00033   2.63222
    R9        2.06705  -0.00045  -0.00353   0.00590   0.00237   2.06942
   R10        2.63668  -0.00084  -0.00273   0.00392   0.00118   2.63786
   R11        2.06450  -0.00004  -0.00292   0.00566   0.00275   2.06725
   R12        2.63779  -0.00119  -0.00285   0.00343   0.00058   2.63837
   R13        2.06443  -0.00066  -0.00292   0.00414   0.00122   2.06565
   R14        2.63339  -0.00136  -0.00332   0.00406   0.00075   2.63414
   R15        2.06447  -0.00003  -0.00291   0.00569   0.00279   2.06726
   R16        2.06087   0.00055  -0.00300   0.00728   0.00428   2.06515
   R17        2.63338  -0.00136  -0.00332   0.00406   0.00075   2.63412
   R18        2.06089   0.00055  -0.00300   0.00729   0.00429   2.06517
   R19        2.63780  -0.00118  -0.00286   0.00345   0.00059   2.63839
   R20        2.06447  -0.00003  -0.00291   0.00569   0.00278   2.06725
   R21        2.63668  -0.00084  -0.00273   0.00391   0.00117   2.63785
   R22        2.06443  -0.00066  -0.00292   0.00414   0.00122   2.06565
   R23        2.63192  -0.00158  -0.00316   0.00351   0.00034   2.63226
   R24        2.06450  -0.00004  -0.00291   0.00566   0.00275   2.06725
   R25        2.06704  -0.00045  -0.00353   0.00589   0.00237   2.06941
    A1        2.14565  -0.00378  -0.00231  -0.00862  -0.01100   2.13465
    A2        2.06583   0.00356   0.00290   0.00731   0.01015   2.07598
    A3        2.07053   0.00024  -0.00053   0.00224   0.00164   2.07217
    A4        2.26102  -0.00574  -0.00244  -0.01846  -0.02090   2.24013
    A5        2.01110   0.00287   0.00122   0.00921   0.01043   2.02153
    A6        2.01106   0.00287   0.00121   0.00925   0.01047   2.02153
    A7        2.06572   0.00356   0.00291   0.00729   0.01015   2.07586
    A8        2.14583  -0.00378  -0.00232  -0.00861  -0.01100   2.13483
    A9        2.07048   0.00024  -0.00052   0.00223   0.00163   2.07211
   A10        2.10560  -0.00020   0.00018  -0.00085  -0.00070   2.10490
   A11        2.08009   0.00042  -0.00051   0.00307   0.00257   2.08266
   A12        2.09747  -0.00022   0.00033  -0.00219  -0.00185   2.09563
   A13        2.10414  -0.00017  -0.00078   0.00114   0.00032   2.10446
   A14        2.08506  -0.00021   0.00088  -0.00317  -0.00228   2.08278
   A15        2.09394   0.00037  -0.00009   0.00197   0.00189   2.09583
   A16        2.07770  -0.00008   0.00156  -0.00340  -0.00187   2.07583
   A17        2.10210   0.00011  -0.00071   0.00199   0.00128   2.10338
   A18        2.10334  -0.00003  -0.00085   0.00149   0.00064   2.10398
   A19        2.10917   0.00047  -0.00132   0.00420   0.00288   2.11205
   A20        2.09183   0.00017   0.00013   0.00119   0.00133   2.09316
   A21        2.08207  -0.00064   0.00119  -0.00541  -0.00422   2.07786
   A22        2.09889  -0.00025   0.00091  -0.00302  -0.00214   2.09675
   A23        2.09102  -0.00017  -0.00132   0.00177   0.00040   2.09142
   A24        2.09278   0.00044   0.00040   0.00177   0.00212   2.09490
   A25        2.09888  -0.00025   0.00091  -0.00301  -0.00214   2.09675
   A26        2.09098  -0.00018  -0.00132   0.00172   0.00036   2.09134
   A27        2.09283   0.00044   0.00040   0.00181   0.00216   2.09499
   A28        2.10913   0.00047  -0.00131   0.00417   0.00286   2.11198
   A29        2.08209  -0.00064   0.00119  -0.00538  -0.00419   2.07791
   A30        2.09185   0.00017   0.00013   0.00119   0.00132   2.09318
   A31        2.07775  -0.00008   0.00155  -0.00338  -0.00185   2.07590
   A32        2.10332  -0.00003  -0.00084   0.00147   0.00062   2.10394
   A33        2.10207   0.00011  -0.00071   0.00199   0.00128   2.10335
   A34        2.10411  -0.00017  -0.00078   0.00112   0.00031   2.10442
   A35        2.09394   0.00037  -0.00009   0.00197   0.00189   2.09583
   A36        2.08508  -0.00020   0.00088  -0.00316  -0.00227   2.08282
   A37        2.10558  -0.00020   0.00018  -0.00086  -0.00071   2.10487
   A38        2.08007   0.00042  -0.00051   0.00307   0.00257   2.08264
   A39        2.09752  -0.00022   0.00033  -0.00218  -0.00184   2.09568
    D1       -0.49900   0.00122   0.00608   0.05358   0.05965  -0.43935
    D2        2.64431   0.00122   0.00605   0.05349   0.05953   2.70384
    D3        2.69542   0.00065   0.00436   0.03264   0.03701   2.73243
    D4       -0.44446   0.00065   0.00433   0.03255   0.03689  -0.40757
    D5       -3.11688  -0.00029  -0.00085  -0.00709  -0.00784  -3.12472
    D6       -0.00906   0.00020  -0.00130   0.01104   0.00981   0.00075
    D7       -0.02825   0.00037   0.00094   0.01405   0.01500  -0.01325
    D8        3.07957   0.00087   0.00050   0.03218   0.03264   3.11222
    D9        3.10771  -0.00013   0.00204  -0.00403  -0.00188   3.10583
   D10       -0.04040  -0.00000   0.00163   0.00135   0.00307  -0.03734
   D11        0.01663  -0.00054   0.00044  -0.02371  -0.02330  -0.00667
   D12       -3.13148  -0.00042   0.00003  -0.01833  -0.01835   3.13335
   D13        2.70089   0.00064   0.00431   0.03192   0.03624   2.73713
   D14       -0.49320   0.00120   0.00612   0.05257   0.05869  -0.43451
   D15       -0.44242   0.00064   0.00434   0.03201   0.03636  -0.40606
   D16        2.64669   0.00120   0.00615   0.05266   0.05881   2.70549
   D17        3.10828  -0.00014   0.00214  -0.00440  -0.00216   3.10613
   D18       -0.04000  -0.00001   0.00167   0.00122   0.00298  -0.03703
   D19        0.01687  -0.00055   0.00045  -0.02380  -0.02339  -0.00651
   D20       -3.13141  -0.00042  -0.00002  -0.01818  -0.01825   3.13352
   D21       -3.11736  -0.00028  -0.00097  -0.00665  -0.00752  -3.12489
   D22       -0.00960   0.00020  -0.00138   0.01132   0.01001   0.00041
   D23       -0.02840   0.00038   0.00092   0.01420   0.01512  -0.01328
   D24        3.07937   0.00087   0.00050   0.03217   0.03265   3.11202
   D25        0.00697   0.00032  -0.00165   0.01651   0.01486   0.02183
   D26        3.13791   0.00023  -0.00049   0.00971   0.00921  -3.13607
   D27       -3.12786   0.00019  -0.00117   0.01081   0.00967  -3.11819
   D28        0.00307   0.00009  -0.00000   0.00401   0.00402   0.00709
   D29       -0.01930   0.00009   0.00143   0.00095   0.00236  -0.01694
   D30        3.13278  -0.00014   0.00101  -0.00762  -0.00663   3.12615
   D31        3.13301   0.00019   0.00026   0.00782   0.00807   3.14108
   D32        0.00189  -0.00004  -0.00016  -0.00075  -0.00091   0.00098
   D33        0.00764  -0.00026  -0.00005  -0.01061  -0.01067  -0.00303
   D34       -3.11780  -0.00027  -0.00106  -0.00896  -0.01002  -3.12782
   D35        3.13874  -0.00003   0.00037  -0.00203  -0.00168   3.13707
   D36        0.01331  -0.00004  -0.00064  -0.00038  -0.00102   0.01228
   D37        0.01640   0.00003  -0.00112   0.00289   0.00181   0.01821
   D38       -3.09133  -0.00045  -0.00066  -0.01510  -0.01573  -3.10705
   D39       -3.14125   0.00005  -0.00011   0.00132   0.00120  -3.14005
   D40        0.03420  -0.00043   0.00034  -0.01667  -0.01633   0.01787
   D41        0.01644   0.00003  -0.00115   0.00300   0.00188   0.01832
[...]
 Alpha virt. eigenvalues --    2.73912   2.73942   2.74826   2.75988   2.76112
 Alpha virt. eigenvalues --    2.76795   2.77223   2.78504   2.79447   2.79923
 Alpha virt. eigenvalues --    2.82285   2.82630   2.83075   2.84299   2.85473
 Alpha virt. eigenvalues --    2.86041   2.86065   2.86256   2.88194   2.89798
 Alpha virt. eigenvalues --    2.91054   2.91887   2.92155   2.92486   2.93234
 Alpha virt. eigenvalues --    2.94053   2.95435   2.96107   2.97220   2.98696
 Alpha virt. eigenvalues --    3.00096   3.03403   3.03447   3.06156   3.07235
 Alpha virt. eigenvalues --    3.07982   3.11400   3.11831   3.12293   3.18174
 Alpha virt. eigenvalues --    3.19012   3.19046   3.19569   3.20263   3.21355
 Alpha virt. eigenvalues --    3.22325   3.22407   3.22983   3.23468   3.23740
 Alpha virt. eigenvalues --    3.24692   3.25798   3.26947   3.27543   3.28768
 Alpha virt. eigenvalues --    3.29432   3.31929   3.33062   3.34305   3.34818
 Alpha virt. eigenvalues --    3.35444   3.35977   3.36554   3.37298   3.38852
 Alpha virt. eigenvalues --    3.43018   3.43220   3.43436   3.44567   3.45257
 Alpha virt. eigenvalues --    3.46162   3.46903   3.48236   3.48852   3.49501
 Alpha virt. eigenvalues --    3.50082   3.51555   3.52729   3.54994   3.55349
 Alpha virt. eigenvalues --    3.56696   3.57068   3.57091   3.58508   3.60385
 Alpha virt. eigenvalues --    3.61074   3.61464   3.61628   3.62980   3.66484
 Alpha virt. eigenvalues --    3.66852   3.72197   3.73367   3.77369   3.78694
 Alpha virt. eigenvalues --    3.78989   3.80673   3.83780   3.84410   3.85740
 Alpha virt. eigenvalues --    3.86980   3.87858   3.93196   3.99315   3.99881
 Alpha virt. eigenvalues --    4.02043   4.03770   4.07210   4.07690   4.08094
 Alpha virt. eigenvalues --    4.09507   4.11282   4.12376   4.16046   4.16932
 Alpha virt. eigenvalues --    4.17343   4.18481   4.21103   4.24191   4.26125
 Alpha virt. eigenvalues --    4.27796   4.28647   4.28662   4.28755   4.29703
 Alpha virt. eigenvalues --    4.30407   4.31353   4.33606   4.34054   4.36402
 Alpha virt. eigenvalues --    4.36434   4.38357   4.38975   4.40846   4.41282
 Alpha virt. eigenvalues --    4.53781   4.54684   4.61865   4.67840   4.68884
 Alpha virt. eigenvalues --    4.71128   4.71317   4.73603   4.77619   4.78697
 Alpha virt. eigenvalues --    4.81385   4.83204   4.90045   4.92369   4.93694
 Alpha virt. eigenvalues --    4.95826   4.96941   4.97327   5.00297   5.08535
 Alpha virt. eigenvalues --    5.10875   5.15731   5.20807   5.23863   5.24117
 Alpha virt. eigenvalues --    5.27247   5.29959   5.34880   5.37576   5.37871
 Alpha virt. eigenvalues --    5.40819   5.43144   5.50062   5.57219   5.60099
 Alpha virt. eigenvalues --    5.67008   5.71528   5.91410   5.97421   6.14552
 Alpha virt. eigenvalues --    6.23525  22.17817  22.23993  22.68520  22.68550
 Alpha virt. eigenvalues --   22.69141  22.69941  22.81537  22.82749  22.90931
 Alpha virt. eigenvalues --   22.92486  23.31449  23.32145  32.85275
          Condensed to atoms (all electrons):
               1          2          3          4          5          6
     1  C    4.932764   0.257043  -0.090848   0.011023   0.001305  -0.000514
     2  N    0.257043   6.521168   0.257380  -0.025224   0.010147   0.001610
     3  C   -0.090848   0.257380   4.932520   0.389702  -0.035732  -0.072217
     4  C    0.011023  -0.025224   0.389702   5.140707   0.453671   0.008813
     5  C    0.001305   0.010147  -0.035732   0.453671   4.890815   0.462445
     6  C   -0.000514   0.001610  -0.072217   0.008813   0.462445   4.946542
     7  C    0.000492   0.000825  -0.016661  -0.066829   0.002443   0.460164
     8  C   -0.004724  -0.038499   0.392856   0.009900  -0.080133   0.019571
     9  C    0.392685  -0.038506  -0.004670   0.009758   0.000969  -0.000471
    10  C   -0.016579   0.000857   0.000502  -0.000138  -0.000030   0.000016
    11  C   -0.072272   0.001591  -0.000515   0.000059   0.000008  -0.000003
    12  C   -0.035741   0.010249   0.001304  -0.000332  -0.000027   0.000008
    13  C    0.389990  -0.025237   0.010932  -0.008047  -0.000329   0.000058
    14  H   -0.060833   0.401036  -0.060761  -0.000339   0.001115   0.000090
    15  H    0.000838   0.004424  -0.080112   0.438658  -0.025177   0.008037
    16  H    0.000009  -0.000280   0.014990  -0.056372   0.438860  -0.057007
    17  H   -0.000002   0.000002  -0.004090   0.012559  -0.057257   0.444822
    18  H    0.000026  -0.000208   0.013552  -0.002776   0.010010  -0.055363
    19  H    0.002055   0.001442  -0.043999   0.003217  -0.001158   0.005467
    20  H   -0.044064   0.001463   0.002040  -0.000157   0.000218  -0.000142
    21  H    0.013564  -0.000208   0.000026   0.000002  -0.000001   0.000001
    22  H   -0.004090   0.000002  -0.000002   0.000000   0.000000  -0.000000
    23  H    0.014976  -0.000281   0.000010   0.000003   0.000000  -0.000000
    24  H   -0.080040   0.004418   0.000827  -0.000378   0.000000  -0.000001
               7          8          9         10         11         12
     1  C    0.000492  -0.004724   0.392685  -0.016579  -0.072272  -0.035741
     2  N    0.000825  -0.038499  -0.038506   0.000857   0.001591   0.010249
     3  C   -0.016661   0.392856  -0.004670   0.000502  -0.000515   0.001304
     4  C   -0.066829   0.009900   0.009758  -0.000138   0.000059  -0.000332
     5  C    0.002443  -0.080133   0.000969  -0.000030   0.000008  -0.000027
     6  C    0.460164   0.019571  -0.000471   0.000016  -0.000003   0.000008
     7  C    4.883112   0.442713   0.003318   0.000114   0.000016  -0.000030
     8  C    0.442713   5.213079  -0.015449   0.003315  -0.000473   0.000977
     9  C    0.003318  -0.015449   5.213278   0.442451   0.019736  -0.080321
    10  C    0.000114   0.003315   0.442451   4.883374   0.459957   0.002588
    11  C    0.000016  -0.000473   0.019736   0.459957   4.946606   0.462319
    12  C   -0.000030   0.000977  -0.080321   0.002588   0.462319   4.891478
    13  C   -0.000136   0.009760   0.010153  -0.066940   0.008909   0.453155
    14  H   -0.000347   0.008634   0.008607  -0.000349   0.000090   0.001119
    15  H   -0.001723   0.004950   0.000222   0.000008  -0.000001   0.000000
    16  H    0.010453  -0.003166  -0.000008   0.000000  -0.000000   0.000000
    17  H   -0.059048   0.013041  -0.000003  -0.000000  -0.000000   0.000000
    18  H    0.439612  -0.057168   0.000082  -0.000008   0.000001  -0.000001
    19  H   -0.027896   0.427274  -0.006853   0.000618  -0.000143   0.000219
    20  H    0.000618  -0.006855   0.427399  -0.027979   0.005485  -0.001170
    21  H   -0.000008   0.000082  -0.057194   0.439650  -0.055379   0.010016
    22  H   -0.000000  -0.000003   0.013039  -0.059043   0.444810  -0.057247
    23  H    0.000000  -0.000008  -0.003161   0.010446  -0.056994   0.438819
    24  H    0.000009   0.000224   0.004958  -0.001721   0.008034  -0.025195
              13         14         15         16         17         18
     1  C    0.389990  -0.060833   0.000838   0.000009  -0.000002   0.000026
     2  N   -0.025237   0.401036   0.004424  -0.000280   0.000002  -0.000208
     3  C    0.010932  -0.060761  -0.080112   0.014990  -0.004090   0.013552
     4  C   -0.008047  -0.000339   0.438658  -0.056372   0.012559  -0.002776
     5  C   -0.000329   0.001115  -0.025177   0.438860  -0.057257   0.010010
     6  C    0.000058   0.000090   0.008037  -0.057007   0.444822  -0.055363
     7  C   -0.000136  -0.000347  -0.001723   0.010453  -0.059048   0.439612
     8  C    0.009760   0.008634   0.004950  -0.003166   0.013041  -0.057168
     9  C    0.010153   0.008607   0.000222  -0.000008  -0.000003   0.000082
    10  C   -0.066940  -0.000349   0.000008   0.000000  -0.000000  -0.000008
    11  C    0.008909   0.000090  -0.000001  -0.000000  -0.000000   0.000001
    12  C    0.453155   0.001119   0.000000   0.000000   0.000000  -0.000001
    13  C    5.140618  -0.000260  -0.000377   0.000003   0.000000   0.000002
    14  H   -0.000260   0.465217   0.003871  -0.000041  -0.000002   0.000017
    15  H   -0.000377   0.003871   0.541375  -0.008074  -0.000132   0.000042
    16  H    0.000003  -0.000041  -0.008074   0.549235  -0.006677  -0.000174
    17  H    0.000000  -0.000002  -0.000132  -0.006677   0.546548  -0.006966
    18  H    0.000002   0.000017   0.000042  -0.000174  -0.006966   0.545457
    19  H   -0.000162  -0.000236  -0.000199   0.000034  -0.000078  -0.006123
    20  H    0.003233  -0.000234   0.000006  -0.000001  -0.000000   0.000072
    21  H   -0.002783   0.000017   0.000000   0.000000   0.000000  -0.000001
    22  H    0.012561  -0.000002   0.000000  -0.000000  -0.000000   0.000000
    23  H   -0.056322  -0.000041   0.000000  -0.000000  -0.000000   0.000000
    24  H    0.438622   0.003872  -0.000025   0.000000   0.000000   0.000000
              19         20         21         22         23         24
     1  C    0.002055  -0.044064   0.013564  -0.004090   0.014976  -0.080040
     2  N    0.001442   0.001463  -0.000208   0.000002  -0.000281   0.004418
     3  C   -0.043999   0.002040   0.000026  -0.000002   0.000010   0.000827
     4  C    0.003217  -0.000157   0.000002   0.000000   0.000003  -0.000378
     5  C   -0.001158   0.000218  -0.000001   0.000000   0.000000   0.000000
     6  C    0.005467  -0.000142   0.000001  -0.000000  -0.000000  -0.000001
     7  C   -0.027896   0.000618  -0.000008  -0.000000   0.000000   0.000009
     8  C    0.427274  -0.006855   0.000082  -0.000003  -0.000008   0.000224
     9  C   -0.006853   0.427399  -0.057194   0.013039  -0.003161   0.004958
    10  C    0.000618  -0.027979   0.439650  -0.059043   0.010446  -0.001721
    11  C   -0.000143   0.005485  -0.055379   0.444810  -0.056994   0.008034
    12  C    0.000219  -0.001170   0.010016  -0.057247   0.438819  -0.025195
    13  C   -0.000162   0.003233  -0.002783   0.012561  -0.056322   0.438622
    14  H   -0.000236  -0.000234   0.000017  -0.000002  -0.000041   0.003872
    15  H   -0.000199   0.000006   0.000000   0.000000   0.000000  -0.000025
    16  H    0.000034  -0.000001   0.000000  -0.000000  -0.000000   0.000000
    17  H   -0.000078  -0.000000   0.000000  -0.000000  -0.000000   0.000000
    18  H   -0.006123   0.000072  -0.000001   0.000000   0.000000   0.000000
    19  H    0.483642  -0.005733   0.000072  -0.000000  -0.000001   0.000006
    20  H   -0.005733   0.483628  -0.006126  -0.000078   0.000034  -0.000199
    21  H    0.000072  -0.006126   0.545431  -0.006966  -0.000174   0.000042
    22  H   -0.000000  -0.000078  -0.006966   0.546522  -0.006676  -0.000132
    23  H   -0.000001   0.000034  -0.000174  -0.006676   0.549205  -0.008069
    24  H    0.000006  -0.000199   0.000042  -0.000132  -0.008069   0.541314
 Mulliken charges:
               1
     1  C    0.392936
     2  N   -0.345213
     3  C    0.392966
     4  C   -0.317480
     5  C   -0.072161
     6  C   -0.171927
     7  C   -0.071212
     8  C   -0.339898
     9  C   -0.340021
    10  C   -0.071111
    11  C   -0.171843
    12  C   -0.072188
    13  C   -0.317402
    14  H    0.229761
    15  H    0.113389
    16  H    0.118218
    17  H    0.117283
    18  H    0.119915
    19  H    0.168533
    20  H    0.168543
    21  H    0.119937
    22  H    0.117305
    23  H    0.118235
    24  H    0.113432
 Sum of Mulliken charges =  -0.00000
 Mulliken charges with hydrogens summed into heavy atoms:
               1
     1  C    0.392936
     2  N   -0.115452
     3  C    0.392966
     4  C   -0.204092
     5  C    0.046057
     6  C   -0.054643
     7  C    0.048703
     8  C   -0.171364
     9  C   -0.171477
    10  C    0.048826
    11  C   -0.054537
    12  C    0.046047
    13  C   -0.203970
 Electronic spatial extent (au):  <R**2>=           2933.8177
 Charge=              0.0000 electrons
 Dipole moment (field-independent basis, Debye):
    X=              0.0028    Y=             -0.8495    Z=              0.0002  Tot=              0.8495
 Quadrupole moment (field-independent basis, Debye-Ang):
   XX=            -71.3028   YY=            -67.3536   ZZ=            -81.1651
   XY=              0.0054   XZ=              1.9311   YZ=             -0.0023
 Traceless Quadrupole moment (field-independent basis, Debye-Ang):
   XX=              1.9711   YY=              5.9202   ZZ=             -7.8913
   XY=              0.0054   XZ=              1.9311   YZ=             -0.0023
 Octapole moment (field-independent basis, Debye-Ang**2):
  XXX=              0.0144  YYY=            -10.0552  ZZZ=             -0.0076  XYY=             -0.0006
  XXY=              2.6970  XXZ=              0.0428  XZZ=              0.0197  YZZ=             -0.1051
  YYZ=             -0.0038  XYZ=            -15.1027
 Hexadecapole moment (field-independent basis, Debye-Ang**3):
 XXXX=          -3090.6621 YYYY=           -517.0478 ZZZZ=           -197.0983 XXXY=              0.1309
 XXXZ=             55.2640 YYYX=              0.0200 YYYZ=              0.0153 ZZZX=              2.8894
 ZZZY=             -0.0211 XXYY=           -613.7135 XXZZ=           -643.1096 YYZZ=           -121.1034
 XXYZ=             -0.0122 YYXZ=             -2.7927 ZZXY=             -0.0167
 N-N= 6.936647034259D+02 E-N=-2.590848945538D+03  KE= 5.157322272196D+02
 Breneman (CHELPG) radii used.
 Read replacement radii for each type of atom:
 Atom Element Radius
    1     6    1.50
    2     7    1.70
    3     6    1.50
    4     6    1.50
    5     6    1.50
    6     6    1.50
    7     6    1.50
    8     6    1.50
    9     6    1.50
   10     6    1.50
   11     6    1.50
   12     6    1.50
   13     6    1.50
   14     1    1.45
   15     1    1.45
   16     1    1.45
   17     1    1.45
   18     1    1.45
   19     1    1.45
   20     1    1.45
   21     1    1.45
   22     1    1.45
   23     1    1.45
   24     1    1.45
 Generate Potential Derived Charges using the Breneman model, NDens= 1.
 Grid spacing= 0.300 Box extension= 2.800
 NStep X,Y,Z=   52     35     26   Total possible points=       47320
 Number of Points to Fit=   15768

 **********************************************************************

            Electrostatic Properties Using The SCF Density.

 **********************************************************************

       Atomic Center    1 is at   1.257116 -0.457571 -0.023679
       Atomic Center    2 is at  -0.000107 -1.058090 -0.001510
       Atomic Center    3 is at  -1.257169 -0.457399  0.022332
       Atomic Center    4 is at  -2.361129 -1.179523 -0.460922
       Atomic Center    5 is at  -3.641225 -0.637505 -0.414117
       Atomic Center    6 is at  -3.851168  0.642377  0.098140
       Atomic Center    7 is at  -2.759527  1.362533  0.580999
       Atomic Center    8 is at  -1.476152  0.822900  0.556383
       Atomic Center    9 is at   1.476939  0.822430 -0.558091
       Atomic Center   10 is at   2.760363  1.362001 -0.581098
       Atomic Center   11 is at   3.851250  0.641970 -0.096322
       Atomic Center   12 is at   3.640516 -0.637651  0.416233
       Atomic Center   13 is at   2.360294 -1.179543  0.461511
       Atomic Center   14 is at  -0.000195 -2.068614 -0.001540
       Atomic Center   15 is at  -2.204731 -2.176008 -0.882624
       Atomic Center   16 is at  -4.482965 -1.220849 -0.794369
       Atomic Center   17 is at  -4.854401  1.071363  0.125149
       Atomic Center   18 is at  -2.906752  2.360235  1.001166
       Atomic Center   19 is at  -0.642163  1.388677  0.973308
       Atomic Center   20 is at   0.643586  1.387988 -0.976583
       Atomic Center   21 is at   2.908282  2.359482 -1.001543
       Atomic Center   22 is at   4.854552  1.070877 -0.122102
       Atomic Center   23 is at   4.481684 -1.220852  0.797965
       Atomic Center   24 is at   2.203191 -2.175782  0.883523
   15768 points will be used for fitting atomic charges
 Fitting point charges to electrostatic potential
 Charges from ESP fit, RMS=   0.00421 RRMS=   0.37777:
 ESP charges:
               1
     1  C    0.513327
     2  N   -0.814259
     3  C    0.514713
     4  C   -0.328101
     5  C   -0.011558
     6  C   -0.199887
     7  C   -0.041010
     8  C   -0.241388
     9  C   -0.238480
    10  C   -0.045048
    11  C   -0.197751
    12  C   -0.012677
    13  C   -0.326849
    14  H    0.375276
    15  H    0.132925
    16  H    0.087613
    17  H    0.107176
    18  H    0.093072
    19  H    0.105846
    20  H    0.105427
    21  H    0.094287
    22  H    0.106896
    23  H    0.087734
    24  H    0.132715
 Sum of ESP charges =   0.00000
 ESP charges with hydrogens summed into heavy atoms:
               1
     1  C    0.513327
     2  N   -0.438983
     3  C    0.514713
     4  C   -0.195176
     5  C    0.076056
     6  C   -0.092712
     7  C    0.052062
     8  C   -0.135541
     9  C   -0.133053
    10  C    0.049239
    11  C   -0.090855
    12  C    0.075057
    13  C   -0.194134
 Charge=   0.00000 Dipole=     0.0025    -0.9210    -0.0001 Tot=     0.9210
 -----------------------------------------------------------------

              Electrostatic Properties (Atomic Units)

 -----------------------------------------------------------------
    Center     Electric         -------- Electric Field --------
               Potential          X             Y             Z
 -----------------------------------------------------------------
    1 Atom    -14.720065
    2 Atom    -18.357654
    3 Atom    -14.720071
    4 Atom    -14.770214
    5 Atom    -14.767703
    6 Atom    -14.776158
    7 Atom    -14.768463
    8 Atom    -14.772439
    9 Atom    -14.772401
   10 Atom    -14.768433
   11 Atom    -14.776113
   12 Atom    -14.767676
   13 Atom    -14.770184
   14 Atom     -1.021672
   15 Atom     -1.100664
   16 Atom     -1.107040
   17 Atom     -1.111274
   18 Atom     -1.108673
   19 Atom     -1.106330
   20 Atom     -1.106299
   21 Atom     -1.108641
   22 Atom     -1.111240
   23 Atom     -1.107013
   24 Atom     -1.100641
 -----------------------------------------------------------------
 Unable to Open any file for archive entry.
 1\1\GINC-NOTCH373\SP\RwB97XD\def2TZVP\C12H11N1\U1366379\17-Feb-2026\0\
 \#N Guess=Read Geom=Check Integral(Ultrafine) Density Pop=(ChelpG,Read
 Radii) NMR wB97XD def2TZVP\\prod_3a_1\\0,1\C,0,-1.2570504611,0.4494124
 275,-0.0267909239\N,0,0.0001366191,1.0498841458,-0.0015496084\C,0,1.25
 71147259,0.4491467161,0.0253520379\C,0,2.3622763754,1.1712342001,-0.45
 52014843\C,0,3.6422350269,0.629167591,-0.4052794821\C,0,3.8508800802,-
 0.6507262453,0.1074754943\C,0,2.7580377068,-1.3708466913,0.5876634339\
 C,0,1.4747465638,-0.8311658568,0.5599224718\C,0,-1.4756173632,-0.83057
 55238,-0.5617496708\C,0,-2.7590008908,-1.3700979872,-0.5878917063\C,0,
 -3.8510405773,-0.6500319055,-0.1057712409\C,0,-3.6415101061,0.62957693
 07,0.4073083487\C,0,-2.3613821645,1.1714206558,0.4557145996\H,0,0.0002
 628559,2.0604085591,-0.0015698587\H,0,2.2069446426,2.1677293845,-0.877
 2735102\H,0,4.4849211119,1.2124845735,-0.7834716048\H,0,4.8540286134,-
 1.0797506691,0.1369268783\H,0,2.9042010909,-2.3685587113,1.0081788844\
 H,0,0.6397227393,-1.3969158318,0.9748068727\H,0,-0.6412673464,-1.39616
 06939,-0.9782133238\H,0,-2.9059311797,-2.367569718,-1.0087059968\H,0,-
 4.8542924558,-1.0789007846,-0.1340018983\H,0,-4.4835842445,1.212805191
 7,0.7869935829\H,0,-2.2052713628,2.1676502428,0.8781177047\\Version=ES
 64L-G16RevC.01\State=1-A\HF=-518.6551574\RMSD=1.776e-09\Dipole=-0.0010
 764,0.3342345,0.0000909\Quadrupole=1.4723948,4.4015543,-5.8739491,0.00
 40992,-1.4178544,0.0018521\PG=C01 [X(C12H11N1)]\\@
 The archive entry for this job was punched.


 YOU SHOULDN'T LET PEOPLE DRIVE YOU CRAZY
 WHEN YOU KNOW IT'S WITHIN WALKING DISTANCE.
 Job cpu time:       0 days  0 hours 46 minutes 56.0 seconds.
 Elapsed time:       0 days  0 hours  6 minutes  3.1 seconds.
 File lengths (MBytes):  RWF=    141 Int=      0 D2E=      0 Chk=     21 Scr=      2
 Normal termination of Gaussian 16 at Tue Feb 17 16:07:32 2026.
