 Entering Gaussian System, Link 0=g16
 Input=prod_5l_4.com
 Output=prod_5l_4.log
 Initial command:
 /uufs/chpc.utah.edu/sys/installdir/gaussian16/C01/AVX/g16/l1.exe "/scratch/general/vast/u1366379/GAUSSSCRDIR/11028722-notchpeak.peaks/Gau-994330.inp" -scrdir="/scratch/general/vast/u1366379/GAUSSSCRDIR/11028722-notchpeak.peaks/"
 Entering Link 1 = /uufs/chpc.utah.edu/sys/installdir/gaussian16/C01/AVX/g16/l1.exe PID=    994334.
  
 Copyright (c) 1988-2019, Gaussian, Inc.  All Rights Reserved.
  
 This is part of the Gaussian(R) 16 program.  It is based on
 the Gaussian(R) 09 system (copyright 2009, Gaussian, Inc.),
 the Gaussian(R) 03 system (copyright 2003, Gaussian, Inc.),
 the Gaussian(R) 98 system (copyright 1998, Gaussian, Inc.),
 the Gaussian(R) 94 system (copyright 1995, Gaussian, Inc.),
 the Gaussian 92(TM) system (copyright 1992, Gaussian, Inc.),
 the Gaussian 90(TM) system (copyright 1990, Gaussian, Inc.),
 the Gaussian 88(TM) system (copyright 1988, Gaussian, Inc.),
 the Gaussian 86(TM) system (copyright 1986, Carnegie Mellon
 University), and the Gaussian 82(TM) system (copyright 1983,
 Carnegie Mellon University). Gaussian is a federally registered
 trademark of Gaussian, Inc.
  
 This software contains proprietary and confidential information,
 including trade secrets, belonging to Gaussian, Inc.
  
 This software is provided under written license and may be
 used, copied, transmitted, or stored only in accord with that
 written license.
  
 The following legend is applicable only to US Government
 contracts under FAR:
  
                    RESTRICTED RIGHTS LEGEND
  
 Use, reproduction and disclosure by the US Government is
 subject to restrictions as set forth in subparagraphs (a)
 and (c) of the Commercial Computer Software - Restricted
 Rights clause in FAR 52.227-19.
  
 Gaussian, Inc.
 340 Quinnipiac St., Bldg. 40, Wallingford CT 06492
  
  
 ---------------------------------------------------------------
 Warning -- This program may not be used in any manner that
 competes with the business of Gaussian, Inc. or will provide
 assistance to any competitor of Gaussian, Inc.  The licensee
 of this program is prohibited from giving any competitor of
 Gaussian, Inc. access to this program.  By using this program,
 the user acknowledges that Gaussian, Inc. is engaged in the
 business of creating and licensing software in the field of
 computational chemistry and represents and warrants to the
 licensee that it is not a competitor of Gaussian, Inc. and that
 it will not use this program in any manner prohibited above.
 ---------------------------------------------------------------
  

 Cite this work as:
 Gaussian 16, Revision C.01,
 M. J. Frisch, G. W. Trucks, H. B. Schlegel, G. E. Scuseria, 
 M. A. Robb, J. R. Cheeseman, G. Scalmani, V. Barone, 
 G. A. Petersson, H. Nakatsuji, X. Li, M. Caricato, A. V. Marenich, 
 J. Bloino, B. G. Janesko, R. Gomperts, B. Mennucci, H. P. Hratchian, 
 J. V. Ortiz, A. F. Izmaylov, J. L. Sonnenberg, D. Williams-Young, 
 F. Ding, F. Lipparini, F. Egidi, J. Goings, B. Peng, A. Petrone, 
 T. Henderson, D. Ranasinghe, V. G. Zakrzewski, J. Gao, N. Rega, 
 G. Zheng, W. Liang, M. Hada, M. Ehara, K. Toyota, R. Fukuda, 
 J. Hasegawa, M. Ishida, T. Nakajima, Y. Honda, O. Kitao, H. Nakai, 
 T. Vreven, K. Throssell, J. A. Montgomery, Jr., J. E. Peralta, 
 F. Ogliaro, M. J. Bearpark, J. J. Heyd, E. N. Brothers, K. N. Kudin, 
 V. N. Staroverov, T. A. Keith, R. Kobayashi, J. Normand, 
 K. Raghavachari, A. P. Rendell, J. C. Burant, S. S. Iyengar, 
 J. Tomasi, M. Cossi, J. M. Millam, M. Klene, C. Adamo, R. Cammi, 
 J. W. Ochterski, R. L. Martin, K. Morokuma, O. Farkas, 
 J. B. Foresman, and D. J. Fox, Gaussian, Inc., Wallingford CT, 2019.
 
 ******************************************
 Gaussian 16:  ES64L-G16RevC.01  3-Jul-2019
                17-Feb-2026 
 ******************************************
 %NProcShared=8
 Will use up to    8 processors via shared memory.
 %Mem=8GB
 %chk=prod_5l_4.chk
 ------------------------------------------------------
 #N OPT FREQ=NORAMAN Integral(Ultrafine) wB97XD def2SVP
 ------------------------------------------------------
 1/18=20,19=15,26=4,38=1/1,3;
 2/9=110,12=2,17=6,18=5,40=1/2;
 3/5=43,7=101,11=2,25=1,30=1,71=1,74=-58,75=-5/1,2,3;
 4//1;
 5/5=2,38=5/2;
 6/7=2,8=2,9=2,10=2,28=1/1;
 7//1,2,3,16;
 1/18=20,19=15,26=4/3(2);
 2/9=110/2;
 99//99;
 2/9=110/2;
 3/5=43,7=101,11=2,25=1,30=1,71=1,74=-58,75=-5/1,2,3;
 4/5=5,16=3,69=1/1;
 5/5=2,38=5/2;
 7//1,2,3,16;
 1/18=20,19=15,26=4/3(-5);
 2/9=110/2;
 6/7=2,8=2,9=2,10=2,19=2,28=1/1;
 99/9=1/99;
 ---------
 prod_5l_4
 ---------
 Symbolic Z-matrix:
 Charge =  0 Multiplicity = 1
 O                     0.04569   2.15032   1.05305 
 S                     0.04578   1.09792  -0.01895 
 N                     0.86042  -0.25102   0.63567 
 C                     2.20898  -0.4215    0.31823 
 C                     2.83905   0.22426  -0.7538 
 C                     4.17017   0.0204   -1.02614 
 C                     4.91467  -0.83676  -0.24121 
 C                     4.31821  -1.49205   0.81749 
 C                     2.98635  -1.29111   1.09443 
 C                    -1.58653   0.34897  -0.04065 
 C                    -1.86907  -0.64334  -0.94781 
 C                    -3.12261  -1.22076  -0.96643 
 C                    -4.10577  -0.80383  -0.08044 
 C                    -5.45002  -1.44163  -0.08539 
 C                    -3.7994    0.19415   0.83359 
 C                    -2.54503   0.76955   0.84943 
 O                     0.38039   1.41138  -1.44916 
 H                     0.67634  -0.13799   1.60884 
 H                     2.25811   0.88536  -1.36996 
 H                     4.63331   0.53089  -1.85455 
 H                     5.95876  -0.99507  -0.45532 
 H                     4.89865  -2.16318   1.42895 
 H                     2.51854  -1.80358   1.91646 
 H                    -1.10551  -0.95615  -1.64095 
 H                    -3.3468   -2.001    -1.67315 
 H                    -5.72831  -1.76356  -1.08932 
 H                    -5.46576  -2.31608   0.56572 
 H                    -6.21579  -0.74803   0.26313 
 H                    -4.55094   0.51875   1.53235 
 H                    -2.30202   1.5519    1.54976 
 

 GradGradGradGradGradGradGradGradGradGradGradGradGradGradGradGradGradGrad
 Berny optimization.
 Initialization pass.
                           ----------------------------
                           !    Initial Parameters    !
                           ! (Angstroms and Degrees)  !
 --------------------------                            --------------------------
 ! Name  Definition              Value          Derivative Info.                !
 --------------------------------------------------------------------------------
 ! R1    R(1,2)                  1.5022         estimate D2E/DX2                !
 ! R2    R(2,3)                  1.7064         estimate D2E/DX2                !
 ! R3    R(2,10)                 1.7961         estimate D2E/DX2                !
 ! R4    R(2,17)                 1.5019         estimate D2E/DX2                !
 ! R5    R(3,4)                  1.3959         estimate D2E/DX2                !
 ! R6    R(3,18)                 0.9969         estimate D2E/DX2                !
 ! R7    R(4,5)                  1.4012         estimate D2E/DX2                !
 ! R8    R(4,9)                  1.4011         estimate D2E/DX2                !
 ! R9    R(5,6)                  1.3739         estimate D2E/DX2                !
 ! R10   R(5,19)                 1.0743         estimate D2E/DX2                !
 ! R11   R(6,7)                  1.3803         estimate D2E/DX2                !
 ! R12   R(6,20)                 1.0777         estimate D2E/DX2                !
 ! R13   R(7,8)                  1.3806         estimate D2E/DX2                !
 ! R14   R(7,21)                 1.0775         estimate D2E/DX2                !
 ! R15   R(8,9)                  1.3751         estimate D2E/DX2                !
 ! R16   R(8,22)                 1.0776         estimate D2E/DX2                !
 ! R17   R(9,23)                 1.0757         estimate D2E/DX2                !
 ! R18   R(10,11)                1.3738         estimate D2E/DX2                !
 ! R19   R(10,16)                1.374          estimate D2E/DX2                !
 ! R20   R(11,12)                1.3803         estimate D2E/DX2                !
 ! R21   R(11,24)                1.0776         estimate D2E/DX2                !
 ! R22   R(12,13)                1.3876         estimate D2E/DX2                !
 ! R23   R(12,25)                1.0763         estimate D2E/DX2                !
 ! R24   R(13,14)                1.4879         estimate D2E/DX2                !
 ! R25   R(13,15)                1.3875         estimate D2E/DX2                !
 ! R26   R(14,26)                1.0904         estimate D2E/DX2                !
 ! R27   R(14,27)                1.0903         estimate D2E/DX2                !
 ! R28   R(14,28)                1.0904         estimate D2E/DX2                !
 ! R29   R(15,16)                1.3801         estimate D2E/DX2                !
 ! R30   R(15,29)                1.0763         estimate D2E/DX2                !
 ! R31   R(16,30)                1.0778         estimate D2E/DX2                !
 ! A1    A(1,2,3)              106.2645         estimate D2E/DX2                !
 ! A2    A(1,2,10)             107.4994         estimate D2E/DX2                !
 ! A3    A(1,2,17)             122.2312         estimate D2E/DX2                !
 ! A4    A(3,2,10)              96.2501         estimate D2E/DX2                !
 ! A5    A(3,2,17)             115.0836         estimate D2E/DX2                !
 ! A6    A(10,2,17)            106.1411         estimate D2E/DX2                !
 ! A7    A(2,3,4)              118.0686         estimate D2E/DX2                !
 ! A8    A(2,3,18)             101.3452         estimate D2E/DX2                !
 ! A9    A(4,3,18)             114.4728         estimate D2E/DX2                !
 ! A10   A(3,4,5)              123.5143         estimate D2E/DX2                !
 ! A11   A(3,4,9)              119.0682         estimate D2E/DX2                !
 ! A12   A(5,4,9)              117.4145         estimate D2E/DX2                !
 ! A13   A(4,5,6)              121.262          estimate D2E/DX2                !
 ! A14   A(4,5,19)             118.6364         estimate D2E/DX2                !
 ! A15   A(6,5,19)             120.101          estimate D2E/DX2                !
 ! A16   A(5,6,7)              120.1334         estimate D2E/DX2                !
 ! A17   A(5,6,20)             119.8987         estimate D2E/DX2                !
 ! A18   A(7,6,20)             119.9679         estimate D2E/DX2                !
 ! A19   A(6,7,8)              119.8559         estimate D2E/DX2                !
 ! A20   A(6,7,21)             120.0595         estimate D2E/DX2                !
 ! A21   A(8,7,21)             120.0845         estimate D2E/DX2                !
 ! A22   A(7,8,9)              120.2336         estimate D2E/DX2                !
 ! A23   A(7,8,22)             119.8699         estimate D2E/DX2                !
 ! A24   A(9,8,22)             119.8964         estimate D2E/DX2                !
 ! A25   A(4,9,8)              121.0985         estimate D2E/DX2                !
 ! A26   A(4,9,23)             118.5381         estimate D2E/DX2                !
 ! A27   A(8,9,23)             120.3633         estimate D2E/DX2                !
 ! A28   A(2,10,11)            119.7407         estimate D2E/DX2                !
 ! A29   A(2,10,16)            119.9029         estimate D2E/DX2                !
 ! A30   A(11,10,16)           120.3564         estimate D2E/DX2                !
 ! A31   A(10,11,12)           119.8575         estimate D2E/DX2                !
 ! A32   A(10,11,24)           119.252          estimate D2E/DX2                !
 ! A33   A(12,11,24)           120.8895         estimate D2E/DX2                !
 ! A34   A(11,12,13)           120.6088         estimate D2E/DX2                !
 ! A35   A(11,12,25)           120.085          estimate D2E/DX2                !
 ! A36   A(13,12,25)           119.3062         estimate D2E/DX2                !
 ! A37   A(12,13,14)           120.6113         estimate D2E/DX2                !
 ! A38   A(12,13,15)           118.7035         estimate D2E/DX2                !
 ! A39   A(14,13,15)           120.6629         estimate D2E/DX2                !
 ! A40   A(13,14,26)           111.1126         estimate D2E/DX2                !
 ! A41   A(13,14,27)           110.7835         estimate D2E/DX2                !
 ! A42   A(13,14,28)           111.1466         estimate D2E/DX2                !
 ! A43   A(26,14,27)           108.0195         estimate D2E/DX2                !
 ! A44   A(26,14,28)           107.6288         estimate D2E/DX2                !
 ! A45   A(27,14,28)           108.0076         estimate D2E/DX2                !
 ! A46   A(13,15,16)           120.5375         estimate D2E/DX2                !
 ! A47   A(13,15,29)           119.3671         estimate D2E/DX2                !
 ! A48   A(16,15,29)           120.0953         estimate D2E/DX2                !
 ! A49   A(10,16,15)           119.9325         estimate D2E/DX2                !
 ! A50   A(10,16,30)           119.068          estimate D2E/DX2                !
 ! A51   A(15,16,30)           120.999          estimate D2E/DX2                !
 ! D1    D(1,2,3,4)            -97.8791         estimate D2E/DX2                !
 ! D2    D(1,2,3,18)            27.9823         estimate D2E/DX2                !
 ! D3    D(10,2,3,4)           151.8136         estimate D2E/DX2                !
 ! D4    D(10,2,3,18)          -82.3251         estimate D2E/DX2                !
 ! D5    D(17,2,3,4)            40.7102         estimate D2E/DX2                !
 ! D6    D(17,2,3,18)          166.5716         estimate D2E/DX2                !
 ! D7    D(1,2,10,11)          179.208          estimate D2E/DX2                !
 ! D8    D(1,2,10,16)           -0.85           estimate D2E/DX2                !
 ! D9    D(3,2,10,11)          -71.5263         estimate D2E/DX2                !
 ! D10   D(3,2,10,16)          108.4157         estimate D2E/DX2                !
 ! D11   D(17,2,10,11)          46.8768         estimate D2E/DX2                !
 ! D12   D(17,2,10,16)        -133.1811         estimate D2E/DX2                !
 ! D13   D(2,3,4,5)            -17.1521         estimate D2E/DX2                !
 ! D14   D(2,3,4,9)            163.4938         estimate D2E/DX2                !
 ! D15   D(18,3,4,5)          -136.3387         estimate D2E/DX2                !
 ! D16   D(18,3,4,9)            44.3072         estimate D2E/DX2                !
 ! D17   D(3,4,5,6)           -179.8736         estimate D2E/DX2                !
 ! D18   D(3,4,5,19)            -0.1677         estimate D2E/DX2                !
 ! D19   D(9,4,5,6)             -0.5096         estimate D2E/DX2                !
 ! D20   D(9,4,5,19)           179.1963         estimate D2E/DX2                !
 ! D21   D(3,4,9,8)            179.8835         estimate D2E/DX2                !
 ! D22   D(3,4,9,23)            -0.0404         estimate D2E/DX2                !
 ! D23   D(5,4,9,8)              0.4902         estimate D2E/DX2                !
 ! D24   D(5,4,9,23)          -179.4337         estimate D2E/DX2                !
 ! D25   D(4,5,6,7)              0.2016         estimate D2E/DX2                !
 ! D26   D(4,5,6,20)          -179.8119         estimate D2E/DX2                !
 ! D27   D(19,5,6,7)          -179.5001         estimate D2E/DX2                !
 ! D28   D(19,5,6,20)            0.4864         estimate D2E/DX2                !
 ! D29   D(5,6,7,8)              0.1441         estimate D2E/DX2                !
 ! D30   D(5,6,7,21)          -179.944          estimate D2E/DX2                !
 ! D31   D(20,6,7,8)          -179.8423         estimate D2E/DX2                !
 ! D32   D(20,6,7,21)            0.0696         estimate D2E/DX2                !
 ! D33   D(6,7,8,9)             -0.1627         estimate D2E/DX2                !
 ! D34   D(6,7,8,22)           179.8483         estimate D2E/DX2                !
 ! D35   D(21,7,8,9)           179.9254         estimate D2E/DX2                !
 ! D36   D(21,7,8,22)           -0.0636         estimate D2E/DX2                !
 ! D37   D(7,8,9,4)             -0.1639         estimate D2E/DX2                !
 ! D38   D(7,8,9,23)           179.7586         estimate D2E/DX2                !
 ! D39   D(22,8,9,4)           179.825          estimate D2E/DX2                !
 ! D40   D(22,8,9,23)           -0.2524         estimate D2E/DX2                !
 ! D41   D(2,10,11,12)         179.987          estimate D2E/DX2                !
 ! D42   D(2,10,11,24)          -0.3535         estimate D2E/DX2                !
 ! D43   D(16,10,11,12)          0.0453         estimate D2E/DX2                !
 ! D44   D(16,10,11,24)        179.7047         estimate D2E/DX2                !
 ! D45   D(2,10,16,15)        -179.9784         estimate D2E/DX2                !
 ! D46   D(2,10,16,30)           0.2737         estimate D2E/DX2                !
 ! D47   D(11,10,16,15)         -0.0367         estimate D2E/DX2                !
 ! D48   D(11,10,16,30)       -179.7846         estimate D2E/DX2                !
 ! D49   D(10,11,12,13)          0.327          estimate D2E/DX2                !
 ! D50   D(10,11,12,25)       -179.7729         estimate D2E/DX2                !
 ! D51   D(24,11,12,13)       -179.3267         estimate D2E/DX2                !
 ! D52   D(24,11,12,25)          0.5734         estimate D2E/DX2                !
 ! D53   D(11,12,13,14)       -178.9856         estimate D2E/DX2                !
 ! D54   D(11,12,13,15)         -0.6942         estimate D2E/DX2                !
 ! D55   D(25,12,13,14)          1.1135         estimate D2E/DX2                !
 ! D56   D(25,12,13,15)        179.405          estimate D2E/DX2                !
 ! D57   D(12,13,14,26)        -32.228          estimate D2E/DX2                !
 ! D58   D(12,13,14,27)         87.8531         estimate D2E/DX2                !
 ! D59   D(12,13,14,28)       -152.0583         estimate D2E/DX2                !
 ! D60   D(15,13,14,26)        149.5142         estimate D2E/DX2                !
 ! D61   D(15,13,14,27)        -90.4047         estimate D2E/DX2                !
 ! D62   D(15,13,14,28)         29.6839         estimate D2E/DX2                !
 ! D63   D(12,13,15,16)          0.7024         estimate D2E/DX2                !
 ! D64   D(12,13,15,29)       -179.3871         estimate D2E/DX2                !
 ! D65   D(14,13,15,16)        178.9929         estimate D2E/DX2                !
 ! D66   D(14,13,15,29)         -1.0966         estimate D2E/DX2                !
 ! D67   D(13,15,16,10)         -0.3441         estimate D2E/DX2                !
 ! D68   D(13,15,16,30)        179.3989         estimate D2E/DX2                !
 ! D69   D(29,15,16,10)        179.746          estimate D2E/DX2                !
 ! D70   D(29,15,16,30)         -0.511          estimate D2E/DX2                !
 --------------------------------------------------------------------------------
 Trust Radius=3.00D-01 FncErr=1.00D-07 GrdErr=1.00D-06 EigMax=2.50D+02 EigMin=1.00D-04
 Number of steps in this run=    162 maximum allowed number of steps=    180.
 GradGradGradGradGradGradGradGradGradGradGradGradGradGradGradGradGradGrad

                          Input orientation:                          
 ---------------------------------------------------------------------
 Center     Atomic      Atomic             Coordinates (Angstroms)
 Number     Number       Type             X           Y           Z
 ---------------------------------------------------------------------
      1          8           0        0.045690    2.150320    1.053050
      2         16           0        0.045780    1.097920   -0.018950
      3          7           0        0.860420   -0.251020    0.635670
      4          6           0        2.208980   -0.421500    0.318230
      5          6           0        2.839050    0.224260   -0.753800
      6          6           0        4.170170    0.020400   -1.026140
      7          6           0        4.914670   -0.836760   -0.241210
      8          6           0        4.318210   -1.492050    0.817490
      9          6           0        2.986350   -1.291110    1.094430
     10          6           0       -1.586530    0.348970   -0.040650
     11          6           0       -1.869070   -0.643340   -0.947810
     12          6           0       -3.122610   -1.220760   -0.966430
     13          6           0       -4.105770   -0.803830   -0.080440
     14          6           0       -5.450020   -1.441630   -0.085390
     15          6           0       -3.799400    0.194150    0.833590
     16          6           0       -2.545030    0.769550    0.849430
     17          8           0        0.380390    1.411380   -1.449160
     18          1           0        0.676340   -0.137990    1.608840
     19          1           0        2.258110    0.885360   -1.369960
     20          1           0        4.633310    0.530890   -1.854550
     21          1           0        5.958760   -0.995070   -0.455320
     22          1           0        4.898650   -2.163180    1.428950
     23          1           0        2.518540   -1.803580    1.916460
     24          1           0       -1.105510   -0.956150   -1.640950
     25          1           0       -3.346800   -2.001000   -1.673150
     26          1           0       -5.728310   -1.763560   -1.089320
     27          1           0       -5.465760   -2.316080    0.565720
     28          1           0       -6.215790   -0.748030    0.263130
     29          1           0       -4.550940    0.518750    1.532350
     30          1           0       -2.302020    1.551900    1.549760
 ---------------------------------------------------------------------
                    Distance matrix (angstroms):
                    1          2          3          4          5
     1  O    0.000000
     2  S    1.502242   0.000000
     3  N    2.569908   1.706401   0.000000
     4  C    3.440064   2.664913   1.395867   0.000000
     5  C    3.844122   3.017556   2.464040   1.401158   0.000000
     6  C    5.086347   4.380191   3.713452   2.418444   1.373903
     7  C    5.857023   5.243899   4.189147   2.793953   2.386778
     8  C    5.619322   5.065692   3.678250   2.417476   2.757279
     9  C    4.526879   3.948928   2.410773   1.401075   2.394577
    10  C    2.665555   1.796060   2.608632   3.889513   4.484406
    11  C    3.933736   2.749803   3.179849   4.275811   4.791322
    12  C    5.047832   4.038897   4.401323   5.542113   6.137971
    13  C    5.219811   4.566815   5.047916   6.338863   7.052723
    14  C    6.663406   6.054548   6.462131   7.737174   8.481193
    15  C    4.319662   4.040920   4.685218   6.061786   6.825667
    16  C    2.942757   2.752128   3.561509   4.929643   5.644112
    17  O    2.630420   1.501906   2.709339   3.134782   2.817408
    18  H    2.437824   2.138873   0.996856   2.023620   3.223447
    19  H    3.516519   2.600926   2.695821   2.135482   1.074336
    20  H    5.667711   4.973568   4.587731   3.391960   2.127214
    21  H    6.865352   6.287635   5.266587   3.871461   3.362803
    22  H    6.503753   6.023416   4.537946   3.391382   3.834869
    23  H    4.742762   4.275401   2.607725   2.135489   3.368256
    24  H    4.270018   2.859293   3.089513   3.887169   4.211883
    25  H    6.014533   4.883573   5.108207   6.109591   6.637901
    26  H    7.297074   6.532524   6.976728   8.172080   8.801344
    27  H    7.110717   6.509555   6.655067   7.909002   8.784323
    28  H    6.944821   6.534092   7.103418   8.431276   9.163494
    29  H    4.901097   4.885878   5.538899   6.932148   7.741134
    30  H    2.473170   2.859915   3.753280   5.075440   5.787885
                    6          7          8          9         10
     6  C    0.000000
     7  C    1.380260   0.000000
     8  C    2.389224   1.380585   0.000000
     9  C    2.760128   2.389307   1.375109   0.000000
    10  C    5.849679   6.611489   6.244335   4.988938   0.000000
    11  C    6.076109   6.823183   6.489917   5.307113   1.373844
    12  C    7.397884   8.079064   7.656486   6.447595   2.383414
    13  C    8.370477   9.021933   8.499610   7.205271   2.770758
    14  C    9.776022  10.383494   9.809998   8.519799   4.258498
    15  C    8.185526   8.840418   8.290906   6.951290   2.384336
    16  C    7.012339   7.708233   7.226335   5.907835   1.373991
    17  O    4.059089   5.203169   5.392034   4.534791   2.642232
    18  H    4.378933   4.677008   3.965215   2.632575   2.842275
    19  H    2.126580   3.361114   3.831583   3.367577   4.103174
    20  H    1.077665   2.133658   3.366210   3.837792   6.481492
    21  H    2.134495   1.077511   2.135050   3.365202   7.675272
    22  H    3.365438   2.132857   1.077594   2.128215   7.108318
    23  H    3.835841   3.366262   2.131572   1.075735   5.031436
    24  H    5.400411   6.181917   5.978951   4.933338   2.120302
    25  H    7.810859   8.465093   8.075562   6.947822   3.359459
    26  H   10.058151  10.716869  10.229477   8.996514   4.766218
    27  H   10.042126  10.516314   9.821837   8.530431   4.745377
    28  H   10.493849  11.142234  10.574783   9.255559   4.767152
    29  H    9.102306   9.725261   9.122289   7.763898   3.360191
    30  H    7.132321   7.809858   7.323203   6.021369   2.118577
                   11         12         13         14         15
    11  C    0.000000
    12  C    1.380262   0.000000
    13  C    2.404353   1.387592   0.000000
    14  C    3.768851   2.498370   1.487892   0.000000
    15  C    2.756982   2.387485   1.387544   2.498969   0.000000
    16  C    2.383957   2.755409   2.403350   3.768577   1.380138
    17  O    3.087604   4.408197   5.187117   6.632738   4.915612
    18  H    3.642931   4.715552   5.115231   6.488619   4.554512
    19  H    4.421397   5.792299   6.709336   8.153543   6.482810
    20  H    6.669478   8.000708   9.016677  10.425656   8.857205
    21  H    7.851190   9.098541  10.073325  11.423508   9.914495
    22  H    7.332185   8.424168   9.230692  10.483741   9.031475
    23  H    5.366686   6.361864   6.990607   8.224133   6.714157
    24  H    1.077644   2.143289   3.385255   4.640067   3.834525
    25  H    2.133786   1.076331   2.132130   2.693958   3.362629
    26  H    4.021026   2.664471   2.138120   1.090394   3.354237
    27  H    4.245587   3.006254   2.134009   1.090346   3.024858
    28  H    4.513459   3.362001   2.138537   1.090390   2.655573
    29  H    3.833285   3.363023   2.132718   2.696019   1.076310
    30  H    3.353264   3.833044   3.385340   4.641642   2.144419
                   16         17         18         19         20
    16  C    0.000000
    17  O    3.775387   0.000000
    18  H    3.431845   3.440857   0.000000
    19  H    5.292377   1.951615   3.524555   0.000000
    20  H    7.674440   4.361987   5.300951   2.449908   0.000000
    21  H    8.782409   6.156048   5.735791   4.250576   2.458295
    22  H    8.021541   6.440161   4.686327   4.909169   4.255560
    23  H    5.779212   5.122016   2.502503   4.254266   4.913504
    24  H    3.354437   2.801764   3.795459   3.844286   5.932198
    25  H    3.831735   5.058305   5.516151   6.311736   8.374099
    26  H    4.506514   6.893906   7.137373   8.418933  10.640171
    27  H    4.258200   7.220192   6.599816   8.582205  10.768201
    28  H    4.015131   7.148747   7.048726   8.783048  11.127586
    29  H    2.133766   5.831313   5.268929   7.410868   9.788855
    30  H    1.077770   4.025989   3.424886   5.455623   7.792983
                   21         22         23         24         25
    21  H    0.000000
    22  H    2.457394   0.000000
    23  H    4.256071   2.455993   0.000000
    24  H    7.163180   6.850631   5.148499   0.000000
    25  H    9.438668   8.811173   6.879425   2.473081   0.000000
    26  H   11.729456  10.928571   8.777634   4.725091   2.463499
    27  H   11.545876  10.401420   8.113951   5.072532   3.098678
    28  H   12.198232  11.264660   8.951883   5.457453   3.681062
    29  H   10.802605   9.823349   7.451061   4.910820   4.251391
    30  H    8.874001   8.103460   5.884855   4.231144   4.909360
                   26         27         28         29         30
    26  H    0.000000
    27  H    1.764474   0.000000
    28  H    1.760130   1.764337   0.000000
    29  H    3.669917   3.131698   2.446912   0.000000
    30  H    5.449448   5.093020   4.718336   2.474943   0.000000
 Stoichiometry    C13H13NO2S
 Framework group  C1[X(C13H13NO2S)]
 Deg. of freedom    84
 Full point group                 C1      NOp   1
 Largest Abelian subgroup         C1      NOp   1
 Largest concise Abelian subgroup C1      NOp   1
                         Standard orientation:                         
 ---------------------------------------------------------------------
 Center     Atomic      Atomic             Coordinates (Angstroms)
 Number     Number       Type             X           Y           Z
 ---------------------------------------------------------------------
      1          8           0       -0.086909    2.193487   -1.033726
      2         16           0       -0.082419    1.133058    0.030324
      3          7           0       -0.887611   -0.215877   -0.635894
      4          6           0       -2.235654   -0.397002   -0.322176
      5          6           0       -2.871558    0.236789    0.753545
      6          6           0       -4.201877    0.022732    1.021945
      7          6           0       -4.939721   -0.833035    0.229248
      8          6           0       -4.337391   -1.476662   -0.833277
      9          6           0       -3.006306   -1.265485   -1.106297
     10          6           0        1.554418    0.393980    0.049329
     11          6           0        1.841452   -0.603387    0.949505
     12          6           0        3.098479   -1.173240    0.966038
     13          6           0        4.080615   -0.743631    0.084983
     14          6           0        5.428745   -1.373202    0.087556
     15          6           0        3.769728    0.259312   -0.822063
     16          6           0        2.511879    0.827120   -0.835833
     17          8           0       -0.421458    1.433677    1.462246
     18          1           0       -0.702520   -0.094391   -1.607853
     19          1           0       -2.295771    0.896774    1.375708
     20          1           0       -4.669597    0.524118    1.853337
     21          1           0       -5.983194   -0.999347    0.440279
     22          1           0       -4.912625   -2.146709   -1.450814
     23          1           0       -2.533916   -1.768871   -1.931315
     24          1           0        1.078612   -0.926083    1.638894
     25          1           0        3.326215   -1.957395    1.667270
     26          1           0        5.707243   -1.700977    1.089535
     27          1           0        5.450997   -2.242609   -0.570086
     28          1           0        6.190852   -0.672318   -0.254355
     29          1           0        4.520487    0.593767   -1.517005
     30          1           0        2.265299    1.613221   -1.530693
 ---------------------------------------------------------------------
 Rotational constants (GHZ):           1.0979743           0.2108913           0.2001384
 Standard basis: def2SVP (5D, 7F)
 There are   324 symmetry adapted cartesian basis functions of A   symmetry.
 There are   307 symmetry adapted basis functions of A   symmetry.
   307 basis functions,   528 primitive gaussians,   324 cartesian basis functions
    65 alpha electrons       65 beta electrons
       nuclear repulsion energy      1293.8554290672 Hartrees.
 NAtoms=   30 NActive=   30 NUniq=   30 SFac= 1.00D+00 NAtFMM=   60 NAOKFM=F Big=F
 Integral buffers will be    131072 words long.
 Raffenetti 2 integral format.
 Two-electron integral symmetry is turned on.
 Nuclear repulsion after empirical dispersion term =     1293.8373330505 Hartrees.
 One-electron integrals computed using PRISM.
   1 Symmetry operations used in ECPInt.
 ECPInt:  NShTT=   10296 NPrTT=   38220 LenC2=    9194 LenP2D=   24109.
 LDataN:  DoStor=T MaxTD1= 4 Len=   56
 NBasis=   307 RedAO= T EigKep=  2.45D-04  NBF=   307
 NBsUse=   307 1.00D-06 EigRej= -1.00D+00 NBFU=   307
 ExpMin= 1.22D-01 ExpMax= 9.18D+03 ExpMxC= 1.38D+03 IAcc=3 IRadAn=         5 AccDes= 0.00D+00
 Harris functional with IExCor= 4639 and IRadAn=       5 diagonalized for initial guess.
 HarFok:  IExCor= 4639 AccDes= 0.00D+00 IRadAn=         5 IDoV= 1 UseB2=F ITyADJ=14
 ICtDFT=  3500011 ScaDFX=  1.000000  1.000000  1.000000  1.000000
 FoFCou: FMM=F IPFlag=           0 FMFlag=      100000 FMFlg1=           0
         NFxFlg=           0 DoJE=T BraDBF=F KetDBF=T FulRan=T
         wScrn=  0.000000 ICntrl=       500 IOpCl=  0 I1Cent=   200000004 NGrid=           0
         NMat0=    1 NMatS0=      1 NMatT0=    0 NMatD0=    1 NMtDS0=    0 NMtDT0=    0
 Petite list used in FoFCou.
 Requested convergence on RMS density matrix=1.00D-08 within 128 cycles.
 Requested convergence on MAX density matrix=1.00D-06.
 Requested convergence on             energy=1.00D-06.
 No special actions if energy rises.
 Integral accuracy reduced to 1.0D-05 until final iterations.
 Initial convergence to 1.0D-05 achieved.  Increase integral accuracy.
 SCF Done:  E(RwB97XD) =  -1105.63900342     A.U. after   15 cycles
            NFock= 15  Conv=0.96D-08     -V/T= 2.0070

 **********************************************************************

            Population analysis using the SCF Density.

 **********************************************************************

 Orbital symmetries:
       Occupied  (A) (A) (A) (A) (A) (A) (A) (A) (A) (A) (A) (A)
                 (A) (A) (A) (A) (A) (A) (A) (A) (A) (A) (A) (A)
                 (A) (A) (A) (A) (A) (A) (A) (A) (A) (A) (A) (A)
                 (A) (A) (A) (A) (A) (A) (A) (A) (A) (A) (A) (A)
                 (A) (A) (A) (A) (A) (A) (A) (A) (A) (A) (A) (A)
                 (A) (A) (A) (A) (A)
       Virtual   (A) (A) (A) (A) (A) (A) (A) (A) (A) (A) (A) (A)
                 (A) (A) (A) (A) (A) (A) (A) (A) (A) (A) (A) (A)
                 (A) (A) (A) (A) (A) (A) (A) (A) (A) (A) (A) (A)
                 (A) (A) (A) (A) (A) (A) (A) (A) (A) (A) (A) (A)
                 (A) (A) (A) (A) (A) (A) (A) (A) (A) (A) (A) (A)
                 (A) (A) (A) (A) (A) (A) (A) (A) (A) (A) (A) (A)
                 (A) (A) (A) (A) (A) (A) (A) (A) (A) (A) (A) (A)
                 (A) (A) (A) (A) (A) (A) (A) (A) (A) (A) (A) (A)
                 (A) (A) (A) (A) (A) (A) (A) (A) (A) (A) (A) (A)
                 (A) (A) (A) (A) (A) (A) (A) (A) (A) (A) (A) (A)
                 (A) (A) (A) (A) (A) (A) (A) (A) (A) (A) (A) (A)
                 (A) (A) (A) (A) (A) (A) (A) (A) (A) (A) (A) (A)
                 (A) (A) (A) (A) (A) (A) (A) (A) (A) (A) (A) (A)
                 (A) (A) (A) (A) (A) (A) (A) (A) (A) (A) (A) (A)
                 (A) (A) (A) (A) (A) (A) (A) (A) (A) (A) (A) (A)
                 (A) (A) (A) (A) (A) (A) (A) (A) (A) (A) (A) (A)
                 (A) (A) (A) (A) (A) (A) (A) (A) (A) (A) (A) (A)
                 (A) (A) (A) (A) (A) (A) (A) (A) (A) (A) (A) (A)
                 (A) (A) (A) (A) (A) (A) (A) (A) (A) (A) (A) (A)
                 (A) (A) (A) (A) (A) (A) (A) (A) (A) (A) (A) (A)
                 (A) (A)
 The electronic state is 1-A.
 Alpha  occ. eigenvalues --  -89.25758 -19.26584 -19.25700 -14.49788 -10.35298
 Alpha  occ. eigenvalues --  -10.33578 -10.32779 -10.32463 -10.32343 -10.31623
 Alpha  occ. eigenvalues --  -10.31558 -10.30901 -10.30302 -10.30170 -10.29812
 Alpha  occ. eigenvalues --  -10.29351 -10.29075  -8.27590  -6.23007  -6.22919
 Alpha  occ. eigenvalues --   -6.22787  -1.20538  -1.09133  -1.05555  -0.98830
 Alpha  occ. eigenvalues --   -0.95201  -0.90429  -0.86550  -0.84999  -0.84586
 Alpha  occ. eigenvalues --   -0.81230  -0.75838  -0.72722  -0.71669  -0.70380
 Alpha  occ. eigenvalues --   -0.68175  -0.64533  -0.63645  -0.60293  -0.58942
 Alpha  occ. eigenvalues --   -0.58256  -0.56447  -0.54965  -0.53919  -0.53461
 Alpha  occ. eigenvalues --   -0.53067  -0.52977  -0.52699  -0.51105  -0.49658
 Alpha  occ. eigenvalues --   -0.48680  -0.47649  -0.46410  -0.45707  -0.44388
 Alpha  occ. eigenvalues --   -0.44168  -0.43883  -0.41469  -0.40223  -0.39380
 Alpha  occ. eigenvalues --   -0.38204  -0.35537  -0.34741  -0.33722  -0.30463
 Alpha virt. eigenvalues --    0.02664   0.04199   0.06010   0.06543   0.10162
 Alpha virt. eigenvalues --    0.12775   0.14148   0.15095   0.15530   0.15597
 Alpha virt. eigenvalues --    0.16851   0.17398   0.18718   0.19335   0.20208
 Alpha virt. eigenvalues --    0.21125   0.21324   0.23237   0.23759   0.24228
 Alpha virt. eigenvalues --    0.24516   0.25647   0.28906   0.29506   0.32703
 Alpha virt. eigenvalues --    0.35360   0.36306   0.36577   0.37142   0.37627
 Alpha virt. eigenvalues --    0.38203   0.39494   0.40166   0.40792   0.43538
 Alpha virt. eigenvalues --    0.46460   0.47360   0.47670   0.48613   0.49052
 Alpha virt. eigenvalues --    0.49459   0.51168   0.51908   0.52604   0.54191
 Alpha virt. eigenvalues --    0.54268   0.54800   0.55435   0.56382   0.57123
 Alpha virt. eigenvalues --    0.58124   0.58592   0.59145   0.60104   0.61946
 Alpha virt. eigenvalues --    0.62669   0.63926   0.64503   0.64955   0.65883
 Alpha virt. eigenvalues --    0.67527   0.69583   0.70391   0.70543   0.71424
 Alpha virt. eigenvalues --    0.72516   0.72667   0.73105   0.73435   0.74052
 Alpha virt. eigenvalues --    0.74725   0.75383   0.75573   0.76438   0.76855
 Alpha virt. eigenvalues --    0.77351   0.78032   0.78578   0.79385   0.79966
 Alpha virt. eigenvalues --    0.81603   0.82088   0.82613   0.83146   0.83476
 Alpha virt. eigenvalues --    0.84602   0.84835   0.86108   0.88147   0.89823
 Alpha virt. eigenvalues --    0.90422   0.92609   0.92883   0.95477   0.96979
 Alpha virt. eigenvalues --    0.97980   0.99652   1.00188   1.02875   1.06323
 Alpha virt. eigenvalues --    1.09027   1.10622   1.11089   1.12542   1.14264
 Alpha virt. eigenvalues --    1.15130   1.15364   1.20431   1.21529   1.22732
 Alpha virt. eigenvalues --    1.24844   1.25988   1.26564   1.28017   1.29989
 Alpha virt. eigenvalues --    1.30419   1.31014   1.31936   1.32883   1.33234
 Alpha virt. eigenvalues --    1.34549   1.35624   1.36562   1.37042   1.38457
 Alpha virt. eigenvalues --    1.39396   1.39954   1.41693   1.44372   1.50407
 Alpha virt. eigenvalues --    1.54878   1.55962   1.58114   1.59948   1.60765
 Alpha virt. eigenvalues --    1.62460   1.64114   1.69353   1.75357   1.75732
 Alpha virt. eigenvalues --    1.76842   1.77875   1.78432   1.80411   1.81167
 Alpha virt. eigenvalues --    1.81810   1.82595   1.83728   1.84054   1.84484
 Alpha virt. eigenvalues --    1.84798   1.86391   1.86548   1.87324   1.87737
 Alpha virt. eigenvalues --    1.88154   1.88438   1.90520   1.91845   1.92532
 Alpha virt. eigenvalues --    1.93807   1.97609   1.97672   1.99079   2.02627
 Alpha virt. eigenvalues --    2.04240   2.04471   2.05281   2.06011   2.08224
 Alpha virt. eigenvalues --    2.10427   2.10839   2.13307   2.14005   2.16938
 Alpha virt. eigenvalues --    2.17312   2.20136   2.20844   2.21199   2.23168
 Alpha virt. eigenvalues --    2.24746   2.25504   2.29401   2.30297   2.31535
 Alpha virt. eigenvalues --    2.33678   2.34778   2.35612   2.38191   2.38826
 Alpha virt. eigenvalues --    2.40787   2.42453   2.43508   2.44700   2.45337
 Alpha virt. eigenvalues --    2.45717   2.51204   2.55493   2.56364   2.56914
 Alpha virt. eigenvalues --    2.59430   2.61765   2.68472   2.68813   2.71363
 Alpha virt. eigenvalues --    2.71792   2.73133   2.73290   2.73652   2.74044
 Alpha virt. eigenvalues --    2.74843   2.75362   2.76374   2.78773   2.81982
 Alpha virt. eigenvalues --    2.82912   2.83041   2.84450   2.85508   2.86463
 Alpha virt. eigenvalues --    2.91619   2.94687   2.95238   2.96793   2.99093
 Alpha virt. eigenvalues --    3.00484   3.00806   3.02175   3.02932   3.04743
 Alpha virt. eigenvalues --    3.06872   3.08499   3.22535   3.23511   3.26018
 Alpha virt. eigenvalues --    3.32371   3.33694   3.34653   3.45503   3.47164
 Alpha virt. eigenvalues --    3.69535   3.78768
          Condensed to atoms (all electrons):
               1          2          3          4          5          6
     1  O    8.162468   0.428864  -0.060264   0.006452  -0.000549  -0.000127
     2  S    0.428864  13.951969   0.208970  -0.040487   0.001890  -0.001273
     3  N   -0.060264   0.208970   6.826285   0.264006  -0.090111   0.008063
     4  C    0.006452  -0.040487   0.264006   5.208729   0.255943   0.106650
     5  C   -0.000549   0.001890  -0.090111   0.255943   5.232624   0.251635
     6  C   -0.000127  -0.001273   0.008063   0.106650   0.251635   5.063950
     7  C    0.000001   0.000028  -0.000525  -0.162270   0.088699   0.272381
     8  C   -0.000003  -0.000164   0.006669   0.107489  -0.145620   0.096063
     9  C   -0.000296  -0.000627  -0.066762   0.263731   0.075540  -0.146008
    10  C   -0.070714   0.221220  -0.086164   0.008291  -0.000361  -0.000033
    11  C    0.004843  -0.040501   0.008338   0.000083   0.000018   0.000000
    12  C    0.000017  -0.000845  -0.000441   0.000029   0.000001  -0.000000
    13  C   -0.000037   0.000826   0.000004   0.000004  -0.000000  -0.000000
    14  C    0.000000   0.000007  -0.000000   0.000000   0.000000   0.000000
    15  C    0.001603   0.003033  -0.000116  -0.000024   0.000000   0.000000
    16  C    0.005056  -0.024173  -0.005208  -0.000302  -0.000046   0.000000
    17  O   -0.027919   0.392190  -0.033613  -0.006709  -0.019790   0.002468
    18  H    0.012277  -0.005723   0.325084  -0.005755   0.003929  -0.000061
    19  H    0.000575  -0.008186  -0.014469  -0.071590   0.448518  -0.050079
    20  H   -0.000000  -0.000003  -0.000103   0.015205  -0.066932   0.457220
    21  H    0.000000   0.000000   0.000011  -0.001419   0.014783  -0.067870
    22  H   -0.000000   0.000004  -0.000114   0.015542  -0.001886   0.013805
    23  H   -0.000013  -0.000134  -0.009443  -0.080785   0.016905  -0.002316
    24  H    0.000228  -0.005625   0.001355   0.000071  -0.000065  -0.000008
    25  H    0.000000  -0.000156  -0.000000  -0.000001   0.000000   0.000000
    26  H    0.000000  -0.000000   0.000000  -0.000000  -0.000000   0.000000
    27  H   -0.000000   0.000000  -0.000000   0.000000   0.000000  -0.000000
    28  H    0.000000  -0.000000   0.000000  -0.000000  -0.000000   0.000000
    29  H   -0.000009  -0.000159   0.000004  -0.000000   0.000000  -0.000000
    30  H    0.018239  -0.012175   0.000654  -0.000101   0.000001   0.000000
               7          8          9         10         11         12
     1  O    0.000001  -0.000003  -0.000296  -0.070714   0.004843   0.000017
     2  S    0.000028  -0.000164  -0.000627   0.221220  -0.040501  -0.000845
     3  N   -0.000525   0.006669  -0.066762  -0.086164   0.008338  -0.000441
     4  C   -0.162270   0.107489   0.263731   0.008291   0.000083   0.000029
     5  C    0.088699  -0.145620   0.075540  -0.000361   0.000018   0.000001
     6  C    0.272381   0.096063  -0.146008  -0.000033   0.000000  -0.000000
     7  C    5.104158   0.286523   0.084889   0.000001   0.000000  -0.000000
     8  C    0.286523   5.006324   0.313674  -0.000002  -0.000000  -0.000000
     9  C    0.084889   0.313674   5.130667  -0.000675   0.000071   0.000001
    10  C    0.000001  -0.000002  -0.000675   5.768976   0.166148   0.086328
    11  C    0.000000  -0.000000   0.000071   0.166148   5.068908   0.328241
    12  C   -0.000000  -0.000000   0.000001   0.086328   0.328241   5.053257
    13  C    0.000000  -0.000000  -0.000000  -0.184222   0.088751   0.292017
    14  C    0.000000   0.000000   0.000000   0.000579   0.010041  -0.077237
    15  C   -0.000000   0.000000   0.000001   0.086398  -0.122381   0.051830
    16  C   -0.000000   0.000000  -0.000014   0.283481   0.038596  -0.122653
    17  O   -0.000037   0.000005  -0.000107  -0.058601   0.006728   0.000801
    18  H   -0.000042   0.000333  -0.013295   0.001029  -0.001651  -0.000037
    19  H    0.013605  -0.002144   0.012764   0.001618  -0.000098   0.000001
    20  H   -0.073993   0.014117  -0.001946  -0.000001   0.000000  -0.000000
    21  H    0.451540  -0.070427   0.014386   0.000000   0.000000   0.000000
    22  H   -0.069163   0.453806  -0.069552  -0.000000  -0.000000  -0.000000
    23  H    0.014934  -0.059857   0.450923   0.000007   0.000017   0.000000
    24  H    0.000000  -0.000000   0.000010  -0.080718   0.452089  -0.047925
    25  H   -0.000000   0.000000   0.000000   0.016317  -0.066158   0.460370
    26  H   -0.000000  -0.000000   0.000000   0.000006   0.000820  -0.008711
    27  H    0.000000  -0.000000  -0.000000   0.000125  -0.000345  -0.003189
    28  H   -0.000000   0.000000   0.000000  -0.000001  -0.000498   0.007403
    29  H    0.000000   0.000000   0.000000   0.016715  -0.001990   0.014482
    30  H   -0.000000   0.000000   0.000003  -0.068961   0.013289  -0.001899
              13         14         15         16         17         18
     1  O   -0.000037   0.000000   0.001603   0.005056  -0.027919   0.012277
     2  S    0.000826   0.000007   0.003033  -0.024173   0.392190  -0.005723
     3  N    0.000004  -0.000000  -0.000116  -0.005208  -0.033613   0.325084
     4  C    0.000004   0.000000  -0.000024  -0.000302  -0.006709  -0.005755
     5  C   -0.000000   0.000000   0.000000  -0.000046  -0.019790   0.003929
     6  C   -0.000000   0.000000   0.000000   0.000000   0.002468  -0.000061
     7  C    0.000000   0.000000  -0.000000  -0.000000  -0.000037  -0.000042
     8  C   -0.000000   0.000000   0.000000   0.000000   0.000005   0.000333
     9  C   -0.000000   0.000000   0.000001  -0.000014  -0.000107  -0.013295
    10  C   -0.184222   0.000579   0.086398   0.283481  -0.058601   0.001029
    11  C    0.088751   0.010041  -0.122381   0.038596   0.006728  -0.001651
    12  C    0.292017  -0.077237   0.051830  -0.122653   0.000801  -0.000037
    13  C    5.263573   0.407595   0.282798   0.098446  -0.000027   0.000002
    14  C    0.407595   4.549435  -0.076898   0.009713  -0.000000  -0.000000
    15  C    0.282798  -0.076898   5.116918   0.264215  -0.000021   0.000017
    16  C    0.098446   0.009713   0.264215   5.059269   0.000063   0.002446
    17  O   -0.000027  -0.000000  -0.000021   0.000063   8.155636   0.002605
    18  H    0.000002  -0.000000   0.000017   0.002446   0.002605   0.516102
    19  H    0.000001   0.000000  -0.000002  -0.000067   0.035547  -0.000715
    20  H    0.000000  -0.000000   0.000000   0.000000   0.000010   0.000013
    21  H    0.000000   0.000000  -0.000000   0.000000   0.000000  -0.000001
    22  H   -0.000000  -0.000000  -0.000000   0.000000  -0.000000  -0.000023
    23  H    0.000000  -0.000000  -0.000000  -0.000010   0.000003   0.003081
    24  H    0.014083  -0.000236  -0.001435   0.011571   0.007448   0.000008
    25  H   -0.075939  -0.013449   0.014591  -0.002045  -0.000006   0.000000
    26  H   -0.018570   0.392215   0.007303  -0.000544   0.000000  -0.000000
    27  H   -0.012122   0.389648  -0.003350  -0.000269   0.000000   0.000000
    28  H   -0.018601   0.392565  -0.008952   0.000782  -0.000000  -0.000000
    29  H   -0.076711  -0.013829   0.460827  -0.066443   0.000001  -0.000002
    30  H    0.013761  -0.000209  -0.052153   0.446850   0.000209   0.000200
              19         20         21         22         23         24
     1  O    0.000575  -0.000000   0.000000  -0.000000  -0.000013   0.000228
     2  S   -0.008186  -0.000003   0.000000   0.000004  -0.000134  -0.005625
     3  N   -0.014469  -0.000103   0.000011  -0.000114  -0.009443   0.001355
     4  C   -0.071590   0.015205  -0.001419   0.015542  -0.080785   0.000071
     5  C    0.448518  -0.066932   0.014783  -0.001886   0.016905  -0.000065
     6  C   -0.050079   0.457220  -0.067870   0.013805  -0.002316  -0.000008
     7  C    0.013605  -0.073993   0.451540  -0.069163   0.014934   0.000000
     8  C   -0.002144   0.014117  -0.070427   0.453806  -0.059857  -0.000000
     9  C    0.012764  -0.001946   0.014386  -0.069552   0.450923   0.000010
    10  C    0.001618  -0.000001   0.000000  -0.000000   0.000007  -0.080718
    11  C   -0.000098   0.000000   0.000000  -0.000000   0.000017   0.452089
    12  C    0.000001  -0.000000   0.000000  -0.000000   0.000000  -0.047925
    13  C    0.000001   0.000000   0.000000  -0.000000   0.000000   0.014083
    14  C    0.000000  -0.000000   0.000000  -0.000000  -0.000000  -0.000236
    15  C   -0.000002   0.000000  -0.000000  -0.000000  -0.000000  -0.001435
    16  C   -0.000067   0.000000   0.000000   0.000000  -0.000010   0.011571
    17  O    0.035547   0.000010   0.000000  -0.000000   0.000003   0.007448
    18  H   -0.000715   0.000013  -0.000001  -0.000023   0.003081   0.000008
    19  H    0.606629  -0.012688  -0.000187   0.000011  -0.000083  -0.000118
    20  H   -0.012688   0.665037  -0.012036  -0.000258   0.000022   0.000000
    21  H   -0.000187  -0.012036   0.673450  -0.012396  -0.000233  -0.000000
    22  H    0.000011  -0.000258  -0.012396   0.669069  -0.013190  -0.000000
    23  H   -0.000083   0.000022  -0.000233  -0.013190   0.687566  -0.000000
    24  H   -0.000118   0.000000  -0.000000  -0.000000  -0.000000   0.633127
    25  H   -0.000000  -0.000000  -0.000000   0.000000  -0.000000  -0.011662
    26  H    0.000000   0.000000   0.000000   0.000000   0.000000   0.000000
    27  H   -0.000000  -0.000000  -0.000000  -0.000000  -0.000000   0.000003
    28  H   -0.000000   0.000000   0.000000   0.000000   0.000000   0.000008
    29  H   -0.000000  -0.000000  -0.000000   0.000000  -0.000000   0.000024
    30  H   -0.000010   0.000000  -0.000000   0.000000  -0.000001  -0.000245
              25         26         27         28         29         30
     1  O    0.000000   0.000000  -0.000000   0.000000  -0.000009   0.018239
     2  S   -0.000156  -0.000000   0.000000  -0.000000  -0.000159  -0.012175
     3  N   -0.000000   0.000000  -0.000000   0.000000   0.000004   0.000654
     4  C   -0.000001  -0.000000   0.000000  -0.000000  -0.000000  -0.000101
     5  C    0.000000  -0.000000   0.000000  -0.000000   0.000000   0.000001
     6  C    0.000000   0.000000  -0.000000   0.000000  -0.000000   0.000000
     7  C   -0.000000  -0.000000   0.000000  -0.000000   0.000000  -0.000000
     8  C    0.000000  -0.000000  -0.000000   0.000000   0.000000   0.000000
     9  C    0.000000   0.000000  -0.000000   0.000000   0.000000   0.000003
    10  C    0.016317   0.000006   0.000125  -0.000001   0.016715  -0.068961
    11  C   -0.066158   0.000820  -0.000345  -0.000498  -0.001990   0.013289
    12  C    0.460370  -0.008711  -0.003189   0.007403   0.014482  -0.001899
    13  C   -0.075939  -0.018570  -0.012122  -0.018601  -0.076711   0.013761
    14  C   -0.013449   0.392215   0.389648   0.392565  -0.013829  -0.000209
    15  C    0.014591   0.007303  -0.003350  -0.008952   0.460827  -0.052153
    16  C   -0.002045  -0.000544  -0.000269   0.000782  -0.066443   0.446850
    17  O   -0.000006   0.000000   0.000000  -0.000000   0.000001   0.000209
    18  H    0.000000  -0.000000   0.000000  -0.000000  -0.000002   0.000200
    19  H   -0.000000   0.000000  -0.000000  -0.000000  -0.000000  -0.000010
    20  H   -0.000000   0.000000  -0.000000   0.000000  -0.000000   0.000000
    21  H   -0.000000   0.000000  -0.000000   0.000000  -0.000000  -0.000000
    22  H    0.000000   0.000000  -0.000000   0.000000   0.000000   0.000000
    23  H   -0.000000   0.000000  -0.000000   0.000000  -0.000000  -0.000001
    24  H   -0.011662   0.000000   0.000003   0.000008   0.000024  -0.000245
    25  H    0.664121   0.004354   0.000773   0.000147  -0.000223   0.000022
    26  H    0.004354   0.617962  -0.017140  -0.022133   0.000168   0.000007
    27  H    0.000773  -0.017140   0.598378  -0.017129   0.000700   0.000003
    28  H    0.000147  -0.022133  -0.017129   0.618624   0.004550  -0.000001
    29  H   -0.000223   0.000168   0.000700   0.004550   0.665360  -0.011219
    30  H    0.000022   0.000007   0.000003  -0.000001  -0.011219   0.618703
 Mulliken charges:
               1
     1  O   -0.480692
     2  S    0.931230
     3  N   -0.282107
     4  C    0.117219
     5  C   -0.065126
     6  C   -0.004459
     7  C   -0.010731
     8  C   -0.006786
     9  C   -0.047376
    10  C   -0.106787
    11  C    0.046639
    12  C   -0.031841
    13  C   -0.075634
    14  C    0.030062
    15  C   -0.024202
    16  C    0.001286
    17  O   -0.456883
    18  H    0.160178
    19  H    0.041169
    20  H    0.016337
    21  H    0.010398
    22  H    0.014345
    23  H   -0.007394
    24  H    0.028012
    25  H    0.008943
    26  H    0.044262
    27  H    0.063912
    28  H    0.043238
    29  H    0.007753
    30  H    0.035035
 Sum of Mulliken charges =  -0.00000
 Mulliken charges with hydrogens summed into heavy atoms:
               1
     1  O   -0.480692
     2  S    0.931230
     3  N   -0.121929
     4  C    0.117219
     5  C   -0.023958
     6  C    0.011878
     7  C   -0.000333
     8  C    0.007559
     9  C   -0.054770
    10  C   -0.106787
    11  C    0.074652
    12  C   -0.022899
    13  C   -0.075634
    14  C    0.181474
    15  C   -0.016449
    16  C    0.036321
    17  O   -0.456883
 Electronic spatial extent (au):  <R**2>=           5532.9751
 Charge=             -0.0000 electrons
 Dipole moment (field-independent basis, Debye):
    X=              2.6197    Y=             -3.5723    Z=             -1.3561  Tot=              4.6328
 Quadrupole moment (field-independent basis, Debye-Ang):
   XX=            -85.3795   YY=           -112.3979   ZZ=           -104.0376
   XY=             -0.8936   XZ=             -1.1236   YZ=              0.6038
 Traceless Quadrupole moment (field-independent basis, Debye-Ang):
   XX=             15.2254   YY=            -11.7929   ZZ=             -3.4326
   XY=             -0.8936   XZ=             -1.1236   YZ=              0.6038
 Octapole moment (field-independent basis, Debye-Ang**2):
  XXX=             39.1518  YYY=             -3.7290  ZZZ=             -7.9785  XYY=             10.3979
  XXY=            -21.3159  XXZ=              0.1989  XZZ=              1.0665  YZZ=             -6.9732
  YYZ=              2.2683  XYZ=            -20.9349
 Hexadecapole moment (field-independent basis, Debye-Ang**3):
 XXXX=          -5556.9768 YYYY=           -882.8664 ZZZZ=           -535.9591 XXXY=            -15.3698
 XXXZ=            -94.7098 YYYX=            -19.0511 YYYZ=             18.3078 ZZZX=             -2.9471
 ZZZY=             -3.5761 XXYY=          -1134.4483 XXZZ=          -1085.1736 YYZZ=           -230.9967
 XXYZ=             14.7707 YYXZ=             20.4535 ZZXY=             -1.9843
 N-N= 1.293837333050D+03 E-N=-5.176432533399D+03  KE= 1.097922503967D+03
   1 Symmetry operations used in ECPInt.
 ECPInt:  NShTT=   10296 NPrTT=   38220 LenC2=    9194 LenP2D=   24109.
 LDataN:  DoStor=T MaxTD1= 5 Len=  102
 Calling FoFJK, ICntrl=      2127 FMM=F ISym2X=0 I1Cent= 0 IOpClX= 0 NMat=1 NMatS=1 NMatT=0.
 ***** Axes restored to original set *****
 -------------------------------------------------------------------
 Center     Atomic                   Forces (Hartrees/Bohr)
 Number     Number              X              Y              Z
 -------------------------------------------------------------------
      1        8           0.004649048   -0.031645592   -0.040547998
      2       16          -0.029338243    0.036578742   -0.002583057
      3        7          -0.002462889    0.017205822   -0.033069166
      4        6           0.032850213   -0.007140748   -0.002369197
      5        6          -0.013527640    0.000739899    0.002422758
      6        6           0.004945470   -0.005052198    0.002743887
      7        6           0.007639687   -0.000900027   -0.002045593
      8        6           0.003556245   -0.000339090   -0.000711671
      9        6          -0.015470622    0.005849677   -0.000682055
     10        6           0.010877788    0.010851109    0.002473826
     11        6           0.003762545   -0.006948925   -0.010530254
     12        6           0.003403303    0.002331955    0.000525812
     13        6          -0.004153747   -0.001711245    0.002667307
     14        6          -0.004507324    0.001424793   -0.002638147
     15        6           0.000811097   -0.001742760   -0.002652556
     16        6           0.000206141    0.008733757    0.008883681
     17        8          -0.008300090   -0.012554403    0.053901530
     18        1          -0.001484793   -0.005018367    0.022860902
     19        1           0.000435456    0.005308690   -0.006303729
     20        1           0.003202499    0.005462490   -0.007998944
     21        1           0.010339142   -0.001764909   -0.001786678
     22        1           0.004792597   -0.006661216    0.006479587
     23        1          -0.004767055   -0.006747816    0.010214718
     24        1           0.006502355   -0.004183085   -0.007547799
     25        1          -0.001292981   -0.008041481   -0.008478388
     26        1          -0.001803960   -0.003107779   -0.005079924
     27        1          -0.000690911   -0.006272331    0.004342786
     28        1          -0.004581787    0.002881570    0.002854134
     29        1          -0.007502976    0.004734293    0.007698147
     30        1           0.001911431    0.007729175    0.006956081
 -------------------------------------------------------------------
 Cartesian Forces:  Max     0.053901530 RMS     0.012268187

 GradGradGradGradGradGradGradGradGradGradGradGradGradGradGradGradGradGrad
 Berny optimization.
 FormGI is forming the generalized inverse of G from B-inverse, IUseBI=4.
 Internal  Forces:  Max     0.058864295 RMS     0.010723222
 Search for a local minimum.
 Step number   1 out of a maximum of  162
 All quantities printed in internal units (Hartrees-Bohrs-Radians)
 Mixed Optimization -- RFO/linear search
 Second derivative matrix not updated -- first step.
 ITU=  0
     Eigenvalues ---    0.00422   0.00926   0.01211   0.01608   0.01744
     Eigenvalues ---    0.01746   0.01983   0.02121   0.02233   0.02264
     Eigenvalues ---    0.02268   0.02299   0.02308   0.02336   0.02348
     Eigenvalues ---    0.02348   0.02370   0.02385   0.02387   0.02394
     Eigenvalues ---    0.02397   0.02422   0.03356   0.07315   0.07337
     Eigenvalues ---    0.10166   0.11529   0.12038   0.12459   0.16000
     Eigenvalues ---    0.16000   0.16000   0.16000   0.16000   0.16000
     Eigenvalues ---    0.16000   0.16000   0.16000   0.16000   0.16000
     Eigenvalues ---    0.16000   0.17351   0.22000   0.22000   0.22000
     Eigenvalues ---    0.22977   0.23369   0.23458   0.23997   0.24988
     Eigenvalues ---    0.24998   0.25000   0.25000   0.26429   0.33682
     Eigenvalues ---    0.34767   0.34768   0.34773   0.35131   0.36265
     Eigenvalues ---    0.36278   0.36280   0.36287   0.36297   0.36441
     Eigenvalues ---    0.36444   0.36515   0.36687   0.42433   0.43328
     Eigenvalues ---    0.44018   0.44266   0.46312   0.47000   0.47763
     Eigenvalues ---    0.48053   0.48245   0.49066   0.49246   0.49298
     Eigenvalues ---    0.50051   0.50127   0.75939   0.76049
 RFO step:  Lambda=-4.33313818D-02 EMin= 4.22414965D-03
 Linear search not attempted -- first point.
 Maximum step size (   0.300) exceeded in Quadratic search.
    -- Step size scaled by   0.889
 Iteration  1 RMS(Cart)=  0.17942633 RMS(Int)=  0.00633356
 Iteration  2 RMS(Cart)=  0.02388828 RMS(Int)=  0.00068427
 Iteration  3 RMS(Cart)=  0.00037342 RMS(Int)=  0.00067382
 Iteration  4 RMS(Cart)=  0.00000021 RMS(Int)=  0.00067382
 Variable       Old X    -DE/DX   Delta X   Delta X   Delta X     New X
                                 (Linear)    (Quad)   (Total)
    R1        2.83883  -0.05110   0.00000  -0.05659  -0.05659   2.78224
    R2        3.22463   0.00966   0.00000   0.02177   0.02177   3.24640
    R3        3.39406  -0.00545   0.00000  -0.01575  -0.01575   3.37832
    R4        2.83819  -0.05580   0.00000  -0.06170  -0.06170   2.77649
    R5        2.63781   0.03423   0.00000   0.06007   0.06007   2.69788
    R6        1.88378   0.02202   0.00000   0.03723   0.03723   1.92102
    R7        2.64780   0.00678   0.00000   0.01177   0.01177   2.65957
    R8        2.64765   0.00405   0.00000   0.00651   0.00650   2.65415
    R9        2.59630   0.01973   0.00000   0.03248   0.03248   2.62878
   R10        2.03020   0.00665   0.00000   0.01440   0.01440   2.04460
   R11        2.60831   0.01212   0.00000   0.02086   0.02087   2.62919
   R12        2.03649   0.01011   0.00000   0.02214   0.02214   2.05863
   R13        2.60893   0.01070   0.00000   0.01816   0.01816   2.62709
   R14        2.03620   0.01063   0.00000   0.02326   0.02326   2.05946
   R15        2.59858   0.01570   0.00000   0.02534   0.02533   2.62391
   R16        2.03636   0.01041   0.00000   0.02277   0.02277   2.05913
   R17        2.03284   0.01309   0.00000   0.02849   0.02849   2.06134
   R18        2.59619   0.01956   0.00000   0.03230   0.03231   2.62850
   R19        2.59647   0.01669   0.00000   0.02766   0.02767   2.62413
   R20        2.60832   0.00965   0.00000   0.01604   0.01604   2.62436
   R21        2.03645   0.01068   0.00000   0.02337   0.02337   2.05982
   R22        2.62217   0.01629   0.00000   0.02732   0.02731   2.64948
   R23        2.03397   0.01167   0.00000   0.02543   0.02543   2.05940
   R24        2.81171   0.01264   0.00000   0.02956   0.02956   2.84127
   R25        2.62208   0.01398   0.00000   0.02340   0.02340   2.64548
   R26        2.06055   0.00606   0.00000   0.01377   0.01377   2.07431
   R27        2.06046   0.00763   0.00000   0.01735   0.01735   2.07781
   R28        2.06054   0.00596   0.00000   0.01355   0.01355   2.07409
   R29        2.60808   0.01278   0.00000   0.02130   0.02130   2.62938
   R30        2.03393   0.01166   0.00000   0.02543   0.02543   2.05936
   R31        2.03669   0.01056   0.00000   0.02312   0.02312   2.05981
    A1        1.85467   0.00022   0.00000   0.00360   0.00238   1.85704
    A2        1.87622  -0.00032   0.00000   0.01119   0.01072   1.88694
    A3        2.13334  -0.00180   0.00000  -0.02317  -0.02390   2.10943
    A4        1.67988   0.01595   0.00000   0.06070   0.06052   1.74040
    A5        2.00859  -0.00921   0.00000  -0.03921  -0.04012   1.96847
    A6        1.85251   0.00012   0.00000   0.01138   0.01216   1.86467
    A7        2.06069   0.05886   0.00000   0.19489   0.19379   2.25448
    A8        1.76881  -0.01171   0.00000  -0.00879  -0.00907   1.75973
    A9        1.99793  -0.02102   0.00000  -0.07068  -0.07497   1.92296
   A10        2.15573   0.02375   0.00000   0.07287   0.07285   2.22858
   A11        2.07813  -0.02555   0.00000  -0.07656  -0.07656   2.00157
   A12        2.04927   0.00179   0.00000   0.00359   0.00357   2.05284
   A13        2.11642  -0.00433   0.00000  -0.01450  -0.01449   2.10193
   A14        2.07060   0.00712   0.00000   0.02889   0.02888   2.09948
   A15        2.09616  -0.00278   0.00000  -0.01439  -0.01440   2.08176
   A16        2.09672   0.00480   0.00000   0.01836   0.01838   2.11510
   A17        2.09263  -0.00377   0.00000  -0.01515  -0.01516   2.07746
   A18        2.09384  -0.00103   0.00000  -0.00320  -0.00321   2.09062
   A19        2.09188  -0.00544   0.00000  -0.01624  -0.01622   2.07566
   A20        2.09543   0.00311   0.00000   0.00982   0.00981   2.10524
   A21        2.09587   0.00233   0.00000   0.00642   0.00641   2.10228
   A22        2.09847   0.00026   0.00000   0.00093   0.00093   2.09940
   A23        2.09212   0.00090   0.00000   0.00403   0.00403   2.09616
   A24        2.09259  -0.00116   0.00000  -0.00497  -0.00497   2.08762
   A25        2.11357   0.00292   0.00000   0.00785   0.00783   2.12140
   A26        2.06888  -0.00036   0.00000   0.00087   0.00088   2.06976
   A27        2.10074  -0.00255   0.00000  -0.00872  -0.00871   2.09203
   A28        2.08987  -0.00154   0.00000  -0.00563  -0.00564   2.08423
   A29        2.09270  -0.00256   0.00000  -0.00870  -0.00871   2.08399
   A30        2.10062   0.00410   0.00000   0.01434   0.01434   2.11495
   A31        2.09191  -0.00411   0.00000  -0.01276  -0.01276   2.07915
   A32        2.08134   0.00375   0.00000   0.01378   0.01378   2.09512
   A33        2.10992   0.00036   0.00000  -0.00102  -0.00102   2.10890
   A34        2.10502   0.00232   0.00000   0.00704   0.00703   2.11205
   A35        2.09588  -0.00257   0.00000  -0.00966  -0.00966   2.08622
   A36        2.08229   0.00024   0.00000   0.00262   0.00262   2.08491
   A37        2.10506  -0.00002   0.00000   0.00073   0.00074   2.10580
   A38        2.07177  -0.00030   0.00000  -0.00239  -0.00240   2.06936
   A39        2.10597   0.00032   0.00000   0.00177   0.00177   2.10774
   A40        1.93928   0.00110   0.00000   0.00547   0.00545   1.94473
   A41        1.93354   0.00009   0.00000  -0.00101  -0.00101   1.93253
   A42        1.93987   0.00103   0.00000   0.00528   0.00526   1.94513
   A43        1.88530  -0.00119   0.00000  -0.00664  -0.00664   1.87866
   A44        1.87848  -0.00007   0.00000   0.00237   0.00233   1.88081
   A45        1.88509  -0.00109   0.00000  -0.00601  -0.00601   1.87908
   A46        2.10378   0.00225   0.00000   0.00697   0.00696   2.11074
   A47        2.08335   0.00016   0.00000   0.00212   0.00212   2.08547
   A48        2.09606  -0.00241   0.00000  -0.00909  -0.00909   2.08697
   A49        2.09322  -0.00427   0.00000  -0.01313  -0.01312   2.08009
   A50        2.07813   0.00261   0.00000   0.00864   0.00864   2.08677
   A51        2.11183   0.00166   0.00000   0.00448   0.00448   2.11631
    D1       -1.70831   0.00805   0.00000   0.06631   0.06413  -1.64418
    D2        0.48838   0.00862   0.00000   0.09087   0.09276   0.58114
    D3        2.64965   0.00274   0.00000   0.03224   0.02962   2.67927
    D4       -1.43684   0.00331   0.00000   0.05679   0.05825  -1.37859
    D5        0.71053  -0.00333   0.00000  -0.00212  -0.00343   0.70709
    D6        2.90722  -0.00276   0.00000   0.02244   0.02519   2.93242
    D7        3.12777  -0.00327   0.00000  -0.02149  -0.02178   3.10599
    D8       -0.01483  -0.00280   0.00000  -0.01451  -0.01484  -0.02967
    D9       -1.24837   0.00283   0.00000   0.00750   0.00747  -1.24090
   D10        1.89221   0.00330   0.00000   0.01449   0.01441   1.90662
   D11        0.81816  -0.00088   0.00000  -0.00801  -0.00763   0.81053
   D12       -2.32445  -0.00041   0.00000  -0.00102  -0.00069  -2.32514
   D13       -0.29936   0.00547   0.00000   0.02341   0.02128  -0.27808
   D14        2.85351   0.00621   0.00000   0.03393   0.03182   2.88532
   D15       -2.37956  -0.00819   0.00000  -0.06281  -0.06070  -2.44026
   D16        0.77331  -0.00745   0.00000  -0.05229  -0.05017   0.72313
   D17       -3.13939   0.00099   0.00000   0.01200   0.01238  -3.12700
   D18       -0.00293   0.00083   0.00000   0.01032   0.01060   0.00768
   D19       -0.00889   0.00009   0.00000   0.00114   0.00112  -0.00777
   D20        3.12757  -0.00007   0.00000  -0.00054  -0.00066   3.12691
   D21        3.13956  -0.00042   0.00000  -0.00760  -0.00718   3.13238
   D22       -0.00071  -0.00039   0.00000  -0.00694  -0.00657  -0.00728
   D23        0.00855   0.00013   0.00000   0.00179   0.00171   0.01026
   D24       -3.13171   0.00015   0.00000   0.00245   0.00231  -3.12940
   D25        0.00352  -0.00020   0.00000  -0.00284  -0.00278   0.00074
   D26       -3.13831  -0.00003   0.00000  -0.00035  -0.00036  -3.13867
   D27       -3.13287  -0.00006   0.00000  -0.00126  -0.00114  -3.13401
   D28        0.00849   0.00011   0.00000   0.00123   0.00128   0.00977
   D29        0.00252   0.00010   0.00000   0.00165   0.00160   0.00412
   D30       -3.14061   0.00012   0.00000   0.00181   0.00178  -3.13883
   D31       -3.13884  -0.00006   0.00000  -0.00084  -0.00083  -3.13967
   D32        0.00121  -0.00004   0.00000  -0.00068  -0.00065   0.00056
   D33       -0.00284   0.00008   0.00000   0.00117   0.00114  -0.00170
   D34        3.13895  -0.00004   0.00000  -0.00089  -0.00085   3.13810
   D35        3.14029   0.00006   0.00000   0.00100   0.00096   3.14125
   D36       -0.00111  -0.00007   0.00000  -0.00106  -0.00103  -0.00214
   D37       -0.00286  -0.00018   0.00000  -0.00286  -0.00278  -0.00564
   D38        3.13738  -0.00021   0.00000  -0.00354  -0.00339   3.13399
   D39        3.13854  -0.00006   0.00000  -0.00081  -0.00080   3.13773
   D40       -0.00441  -0.00008   0.00000  -0.00148  -0.00141  -0.00582
   D41        3.14137   0.00010   0.00000   0.00171   0.00173  -3.14009
   D42       -0.00617   0.00012   0.00000   0.00216   0.00218  -0.00399
   D43        0.00079  -0.00037   0.00000  -0.00530  -0.00532  -0.00453
   D44        3.13644  -0.00034   0.00000  -0.00485  -0.00488   3.13156
   D45       -3.14121  -0.00014   0.00000  -0.00222  -0.00223   3.13974
   D46        0.00478  -0.00007   0.00000  -0.00137  -0.00138   0.00340
   D47       -0.00064   0.00033   0.00000   0.00479   0.00482   0.00418
   D48       -3.13783   0.00040   0.00000   0.00565   0.00568  -3.13215
   D49        0.00571   0.00001   0.00000   0.00012   0.00011   0.00581
   D50       -3.13763  -0.00008   0.00000  -0.00104  -0.00105  -3.13868
   D51       -3.12984  -0.00003   0.00000  -0.00038  -0.00039  -3.13023
   D52        0.01001  -0.00012   0.00000  -0.00154  -0.00155   0.00846
   D53       -3.12389   0.00009   0.00000   0.00103   0.00103  -3.12286
   D54       -0.01212   0.00039   0.00000   0.00545   0.00543  -0.00668
   D55        0.01943   0.00017   0.00000   0.00220   0.00220   0.02163
   D56        3.13121   0.00048   0.00000   0.00661   0.00660   3.13780
   D57       -0.56248   0.00081   0.00000   0.00708   0.00710  -0.55539
   D58        1.53333   0.00010   0.00000   0.00166   0.00166   1.53499
   D59       -2.65392  -0.00052   0.00000  -0.00309  -0.00311  -2.65702
   D60        2.60952   0.00051   0.00000   0.00265   0.00267   2.61219
   D61       -1.57786  -0.00020   0.00000  -0.00276  -0.00276  -1.58062
   D62        0.51808  -0.00082   0.00000  -0.00751  -0.00753   0.51055
   D63        0.01226  -0.00043   0.00000  -0.00595  -0.00594   0.00632
   D64       -3.13090  -0.00052   0.00000  -0.00718  -0.00717  -3.13806
   D65        3.12402  -0.00013   0.00000  -0.00155  -0.00155   3.12246
   D66       -0.01914  -0.00022   0.00000  -0.00278  -0.00278  -0.02192
   D67       -0.00601   0.00007   0.00000   0.00088   0.00090  -0.00511
   D68        3.13110   0.00000   0.00000   0.00002   0.00004   3.13114
   D69        3.13716   0.00016   0.00000   0.00211   0.00212   3.13928
   D70       -0.00892   0.00009   0.00000   0.00125   0.00125  -0.00767
         Item               Value     Threshold  Converged?
 Maximum Force            0.058864     0.000450     NO 
 RMS     Force            0.010723     0.000300     NO 
 Maximum Displacement     0.794726     0.001800     NO 
 RMS     Displacement     0.195392     0.001200     NO 
 Predicted change in Energy=-2.391080D-02
 GradGradGradGradGradGradGradGradGradGradGradGradGradGradGradGradGradGrad

                          Input orientation:                          
 ---------------------------------------------------------------------
 Center     Atomic      Atomic             Coordinates (Angstroms)
 Number     Number       Type             X           Y           Z
 ---------------------------------------------------------------------
      1          8           0       -0.069247    2.244148    0.969015
      2         16           0       -0.085939    1.236011   -0.103849
      3          7           0        0.918604   -0.052925    0.426046
      4          6           0        2.303105   -0.283258    0.164701
      5          6           0        3.102159    0.313432   -0.828379
      6          6           0        4.441643   -0.038012   -0.960318
      7          6           0        5.024650   -0.982568   -0.121481
      8          6           0        4.244246   -1.583385    0.859657
      9          6           0        2.905652   -1.240889    0.996893
     10          6           0       -1.673506    0.414751   -0.070172
     11          6           0       -1.958692   -0.560104   -1.020459
     12          6           0       -3.194495   -1.192939   -0.989797
     13          6           0       -4.153670   -0.858227   -0.023524
     14          6           0       -5.479946   -1.565303    0.017152
     15          6           0       -3.837648    0.125982    0.920539
     16          6           0       -2.602644    0.766574    0.899992
     17          8           0        0.166542    1.617122   -1.500170
     18          1           0        0.750660   -0.026253    1.428280
     19          1           0        2.678661    1.046525   -1.502068
     20          1           0        5.039795    0.440177   -1.735105
     21          1           0        6.075639   -1.249129   -0.231371
     22          1           0        4.680425   -2.328022    1.524931
     23          1           0        2.297870   -1.721818    1.764472
     24          1           0       -1.219120   -0.815184   -1.779463
     25          1           0       -3.423870   -1.959656   -1.729507
     26          1           0       -5.804104   -1.867644   -0.987045
     27          1           0       -5.418251   -2.472932    0.634701
     28          1           0       -6.263110   -0.925191    0.443243
     29          1           0       -4.570798    0.395530    1.680423
     30          1           0       -2.354750    1.540395    1.626535
 ---------------------------------------------------------------------
                    Distance matrix (angstroms):
                    1          2          3          4          5
     1  O    0.000000
     2  S    1.472296   0.000000
     3  N    2.558751   1.717921   0.000000
     4  C    3.558477   2.843911   1.427655   0.000000
     5  C    4.125058   3.397067   2.544742   1.407385   0.000000
     6  C    5.410981   4.780761   3.786031   2.428818   1.391093
     7  C    6.127697   5.571403   4.245425   2.824489   2.423900
     8  C    5.767858   5.256219   3.686492   2.437483   2.784195
     9  C    4.582170   4.036865   2.384425   1.404515   2.405440
    10  C    2.645799   1.787728   2.680297   4.044233   4.836540
    11  C    3.923243   2.751982   3.260128   4.432173   5.139277
    12  C    5.041595   4.043244   4.496869   5.690694   6.476346
    13  C    5.224210   4.575885   5.155443   6.485057   7.393756
    14  C    6.685329   6.079253   6.587558   7.889316   8.825933
    15  C    4.323172   4.044360   4.785233   6.200614   7.159243
    16  C    2.933614   2.749886   3.646285   5.070422   5.978075
    17  O    2.558444   1.469254   2.658000   3.308798   3.281578
    18  H    2.457212   2.154212   1.016558   2.018111   3.276803
    19  H    3.884785   3.103858   2.832705   2.165060   1.081958
    20  H    6.055484   5.437601   4.679523   3.409119   2.143047
    21  H    7.169626   6.645090   5.334614   3.914306   3.411686
    22  H    6.616129   6.170371   4.531546   3.418031   3.873793
    23  H    4.686670   4.233429   2.545381   2.151453   3.392934
    24  H    4.270346   2.880831   3.164676   4.058176   4.566376
    25  H    6.017265   4.898657   5.209521   6.260717   6.969075
    26  H    7.322675   6.565829   7.105268   8.340481   9.170811
    27  H    7.139639   6.537222   6.786435   8.039584   9.083051
    28  H    6.977470   6.567157   7.234512   8.594749   9.532024
    29  H    4.918073   4.899387   5.648726   7.071683   8.073109
    30  H    2.480145   2.869560   3.833365   5.211361   6.108182
                    6          7          8          9         10
     6  C    0.000000
     7  C    1.391305   0.000000
     8  C    2.395716   1.390196   0.000000
     9  C    2.763486   2.409905   1.388514   0.000000
    10  C    6.196161   6.842546   6.314818   4.984823   0.000000
    11  C    6.421875   7.053630   6.561888   5.309897   1.390941
    12  C    7.723039   8.267561   7.675142   6.415686   2.396619
    13  C    8.685030   9.179685   8.475309   7.142948   2.788164
    14  C   10.085931  10.521660   9.760638   8.448869   4.291529
    15  C    8.491830   8.991941   8.260911   6.880861   2.397583
    16  C    7.330082   7.891674   7.239050   5.863499   1.388631
    17  O    4.615994   5.679823   5.695586   4.680414   2.622283
    18  H    4.396464   4.645782   3.866928   2.511061   2.883821
    19  H    2.139584   3.395129   3.865906   3.395378   4.625022
    20  H    1.089379   2.151329   3.385335   3.852838   6.916723
    21  H    2.160581   1.089820   2.157793   3.399635   7.927404
    22  H    3.387865   2.153929   1.089645   2.147208   7.102084
    23  H    3.854277   3.396857   2.150868   1.090812   4.868539
    24  H    5.772281   6.462320   6.115837   4.990302   2.154271
    25  H    8.133305   8.655514   8.102182   6.929122   3.384520
    26  H   10.407862  10.899287  10.220589   8.954813   4.807475
    27  H   10.280585  10.575782   9.705965   8.422379   4.781074
    28  H   10.832766  11.302024  10.536183   9.190887   4.808691
    29  H    9.401359   9.859951   9.071646   7.683904   3.385151
    30  H    7.441380   7.992274   7.341174   5.983628   2.147087
                   11         12         13         14         15
    11  C    0.000000
    12  C    1.388752   0.000000
    13  C    2.429133   1.402045   0.000000
    14  C    3.806087   2.525052   1.503536   0.000000
    15  C    2.787232   2.408854   1.399926   2.524618   0.000000
    16  C    2.421339   2.785908   2.428692   3.807351   1.391407
    17  O    3.080107   4.410612   5.193465   6.656796   4.910893
    18  H    3.690786   4.772054   5.181927   6.571180   4.618825
    19  H    4.931353   6.306472   7.245338   8.700146   7.012753
    20  H    7.105638   8.427698   9.441142  10.851604   9.271470
    21  H    8.102338   9.301277  10.238885  11.562581  10.074278
    22  H    7.326828   8.344257   9.088412  10.299916   8.885099
    23  H    5.217637   6.166991   6.750191   7.973208   6.463061
    24  H    1.090009   2.160643   3.420053   4.684564   3.877176
    25  H    2.146682   1.089789   2.157808   2.726497   3.397623
    26  H    4.061769   2.695420   2.161302   1.097679   3.388269
    27  H    4.285676   3.036851   2.153996   1.099529   3.055219
    28  H    4.561111   3.397306   2.161503   1.097563   2.686195
    29  H    3.876995   3.398163   2.156232   2.727248   1.089765
    30  H    3.402283   3.875755   3.422308   4.690663   2.167482
                   16         17         18         19         20
    16  C    0.000000
    17  O    3.761995   0.000000
    18  H    3.486017   3.408474   0.000000
    19  H    5.808653   2.576107   3.668103   0.000000
    20  H    8.090560   5.018863   5.349883   2.448860   0.000000
    21  H    8.980849   6.688996   5.710102   4.292337   2.487558
    22  H    7.937895   6.714949   4.555275   4.955538   4.291843
    23  H    5.563673   5.133125   2.319876   4.298722   4.943624
    24  H    3.405229   2.813215   3.846045   4.328465   6.383723
    25  H    3.875695   5.073164   5.579997   6.806595   8.797321
    26  H    4.555146   6.932208   7.224226   8.984148  11.111965
    27  H    4.300282   7.244041   6.683672   9.083631  11.111837
    28  H    4.058288   7.181967   7.139423   9.360939  11.591596
    29  H    2.149505   5.835311   5.344098   7.943972  10.199574
[...]
     2  S    0.000428  -0.000200   0.005112   0.308072  -0.014332   0.006896
     3  N    0.002744   0.006487  -0.051754  -0.039296   0.002992  -0.000810
     4  C   -0.089965  -0.014174   0.414840  -0.006291   0.002075   0.000172
     5  C    0.038924  -0.075747   0.017742   0.002381  -0.000582  -0.000042
     6  C    0.427560   0.012524  -0.077061  -0.000347   0.000055   0.000002
     7  C    4.951027   0.453084   0.019853   0.000062  -0.000008   0.000000
     8  C    0.453084   4.884351   0.456844  -0.000042   0.000006  -0.000001
     9  C    0.019853   0.456844   5.058141  -0.000096  -0.000284  -0.000007
    10  C    0.000062  -0.000042  -0.000096   5.340676   0.396557   0.033388
    11  C   -0.000008   0.000006  -0.000284   0.396557   5.028264   0.399084
    12  C    0.000000  -0.000001  -0.000007   0.033388   0.399084   5.098897
    13  C    0.000000   0.000000   0.000012  -0.102543   0.017720   0.394087
    14  C    0.000000   0.000000   0.000000  -0.005371   0.008917  -0.070098
    15  C   -0.000000  -0.000001  -0.000039   0.046398  -0.050460  -0.002950
    16  C   -0.000003   0.000026   0.000585   0.267110  -0.042822  -0.074449
    17  O    0.000189   0.000015   0.001785  -0.064111   0.021758   0.002035
    18  H    0.000073   0.002190   0.014737   0.003973  -0.000739  -0.000106
    19  H    0.006881  -0.002166   0.007390  -0.001051   0.000589   0.000023
    20  H   -0.057743   0.010541  -0.003089  -0.000002  -0.000000  -0.000000
    21  H    0.443333  -0.056671   0.012092   0.000000  -0.000000   0.000000
    22  H   -0.057634   0.438651  -0.054263  -0.000002   0.000000  -0.000000
    23  H    0.007697  -0.024138   0.425292  -0.000017  -0.000004   0.000000
    24  H   -0.000000  -0.000001  -0.000007  -0.052412   0.438592  -0.056421
    25  H   -0.000000   0.000000   0.000000   0.010994  -0.052872   0.446487
    26  H    0.000000  -0.000000  -0.000000   0.000227  -0.000277  -0.003390
    27  H   -0.000000   0.000000  -0.000000   0.000237   0.000694  -0.006154
    28  H   -0.000000   0.000000   0.000000  -0.000225  -0.000185   0.008811
    29  H   -0.000000  -0.000000  -0.000000   0.011038  -0.003158   0.013232
    30  H   -0.000000   0.000005   0.000086  -0.046537   0.008469  -0.002980
              13         14         15         16         17         18
     1  O    0.000156   0.000000   0.002820   0.029819  -0.049054   0.000920
     2  S   -0.001256  -0.000002   0.006866  -0.052442   0.539439  -0.010553
     3  N   -0.000954  -0.000013   0.001171  -0.003284  -0.052649   0.361716
     4  C   -0.000082  -0.000001   0.000206  -0.002363  -0.012500  -0.065871
     5  C    0.000003  -0.000000   0.000017  -0.000404   0.003574   0.001480
     6  C   -0.000000  -0.000000   0.000000   0.000011  -0.000981  -0.000512
     7  C    0.000000   0.000000  -0.000000  -0.000003   0.000189   0.000073
     8  C    0.000000   0.000000  -0.000001   0.000026   0.000015   0.002190
     9  C    0.000012   0.000000  -0.000039   0.000585   0.001785   0.014737
    10  C   -0.102543  -0.005371   0.046398   0.267110  -0.064111   0.003973
    11  C    0.017720   0.008917  -0.050460  -0.042822   0.021758  -0.000739
    12  C    0.394087  -0.070098  -0.002950  -0.074449   0.002035  -0.000106
    13  C    4.969419   0.296993   0.439588   0.046344   0.000195   0.000113
    14  C    0.296993   4.957737  -0.074429   0.018097   0.000001   0.000001
    15  C    0.439588  -0.074429   5.095635   0.337002  -0.000720  -0.000267
    16  C    0.046344   0.018097   0.337002   5.204910   0.007190   0.000698
    17  O    0.000195   0.000001  -0.000720   0.007190   8.050256   0.002776
    18  H    0.000113   0.000001  -0.000267   0.000698   0.002776   0.448889
    19  H    0.000003   0.000000   0.000000  -0.000111   0.007248  -0.000236
    20  H   -0.000000  -0.000000  -0.000000   0.000000  -0.000087   0.000017
    21  H   -0.000000   0.000000   0.000000  -0.000000   0.000001  -0.000003
    22  H   -0.000000  -0.000000   0.000000  -0.000000  -0.000001  -0.000070
    23  H    0.000001   0.000000  -0.000002   0.000013  -0.000006   0.004368
    24  H    0.010601   0.000008  -0.003995   0.013517   0.008846   0.000021
    25  H   -0.061133  -0.003376   0.011940  -0.003502  -0.000022   0.000002
    26  H   -0.024836   0.398407  -0.003709  -0.000894  -0.000000   0.000000
    27  H   -0.041600   0.417286   0.003049  -0.000890   0.000000  -0.000000
    28  H   -0.059770   0.429752  -0.005727   0.002914   0.000000  -0.000000
    29  H   -0.056642  -0.009181   0.436708  -0.046609   0.000003  -0.000006
    30  H    0.009675   0.000028  -0.052229   0.437928   0.000712   0.000290
              19         20         21         22         23         24
     1  O    0.000537  -0.000002   0.000000  -0.000005   0.000224   0.000394
     2  S   -0.001864  -0.000003   0.000002  -0.000015   0.000190  -0.004436
     3  N    0.000578  -0.000199   0.000017  -0.000320   0.000677   0.000287
     4  C   -0.033043   0.013408  -0.003892   0.014397  -0.066950  -0.000283
     5  C    0.416489  -0.056780   0.011736  -0.004228   0.008101   0.000247
     6  C   -0.038087   0.443113  -0.056908   0.011372  -0.002175   0.000014
     7  C    0.006881  -0.057743   0.443333  -0.057634   0.007697  -0.000000
     8  C   -0.002166   0.010541  -0.056671   0.438651  -0.024138  -0.000001
     9  C    0.007390  -0.003089   0.012092  -0.054263   0.425292  -0.000007
    10  C   -0.001051  -0.000002   0.000000  -0.000002  -0.000017  -0.052412
    11  C    0.000589  -0.000000  -0.000000   0.000000  -0.000004   0.438592
    12  C    0.000023  -0.000000   0.000000  -0.000000   0.000000  -0.056421
    13  C    0.000003  -0.000000  -0.000000  -0.000000   0.000001   0.010601
    14  C    0.000000  -0.000000   0.000000  -0.000000   0.000000   0.000008
    15  C    0.000000  -0.000000   0.000000   0.000000  -0.000002  -0.003995
    16  C   -0.000111   0.000000  -0.000000  -0.000000   0.000013   0.013517
    17  O    0.007248  -0.000087   0.000001  -0.000001  -0.000006   0.008846
    18  H   -0.000236   0.000017  -0.000003  -0.000070   0.004368   0.000021
    19  H    0.485325  -0.006035  -0.000055   0.000024  -0.000113   0.000463
    20  H   -0.006035   0.540711  -0.006924  -0.000121   0.000034  -0.000000
    21  H   -0.000055  -0.006924   0.543124  -0.006760  -0.000130  -0.000000
    22  H    0.000024  -0.000121  -0.006760   0.544868  -0.007249   0.000000
    23  H   -0.000113   0.000034  -0.000130  -0.007249   0.540322   0.000001
    24  H    0.000463  -0.000000  -0.000000   0.000000   0.000001   0.495717
    25  H   -0.000002   0.000000  -0.000000   0.000000  -0.000000  -0.006217
    26  H    0.000000  -0.000000   0.000000   0.000000   0.000000  -0.000004
    27  H   -0.000000   0.000000  -0.000000   0.000000  -0.000000  -0.000015
    28  H   -0.000000  -0.000000  -0.000000  -0.000000   0.000000   0.000006
    29  H    0.000000   0.000000  -0.000000   0.000000  -0.000000   0.000027
    30  H   -0.000005   0.000000  -0.000000  -0.000000   0.000000   0.000001
              25         26         27         28         29         30
     1  O    0.000003  -0.000000   0.000000   0.000000  -0.000023   0.015540
     2  S   -0.000111  -0.000001   0.000001  -0.000000  -0.000157  -0.006221
     3  N    0.000016   0.000000   0.000000  -0.000000   0.000015   0.000678
     4  C    0.000001  -0.000000   0.000000  -0.000000   0.000003  -0.000547
     5  C   -0.000001   0.000000  -0.000000  -0.000000  -0.000000  -0.000021
     6  C    0.000000  -0.000000   0.000000   0.000000   0.000000   0.000001
     7  C   -0.000000   0.000000  -0.000000  -0.000000  -0.000000  -0.000000
     8  C    0.000000  -0.000000   0.000000   0.000000  -0.000000   0.000005
     9  C    0.000000  -0.000000  -0.000000   0.000000  -0.000000   0.000086
    10  C    0.010994   0.000227   0.000237  -0.000225   0.011038  -0.046537
    11  C   -0.052872  -0.000277   0.000694  -0.000185  -0.003158   0.008469
    12  C    0.446487  -0.003390  -0.006154   0.008811   0.013232  -0.002980
    13  C   -0.061133  -0.024836  -0.041600  -0.059770  -0.056642   0.009675
    14  C   -0.003376   0.398407   0.417286   0.429752  -0.009181   0.000028
    15  C    0.011940  -0.003709   0.003049  -0.005727   0.436708  -0.052229
    16  C   -0.003502  -0.000894  -0.000890   0.002914  -0.046609   0.437928
    17  O   -0.000022  -0.000000   0.000000   0.000000   0.000003   0.000712
    18  H    0.000002   0.000000  -0.000000  -0.000000  -0.000006   0.000290
    19  H   -0.000002   0.000000  -0.000000  -0.000000   0.000000  -0.000005
    20  H    0.000000  -0.000000   0.000000  -0.000000   0.000000   0.000000
    21  H   -0.000000   0.000000  -0.000000  -0.000000  -0.000000  -0.000000
    22  H    0.000000   0.000000   0.000000  -0.000000   0.000000  -0.000000
    23  H   -0.000000   0.000000  -0.000000   0.000000  -0.000000   0.000000
    24  H   -0.006217  -0.000004  -0.000015   0.000006   0.000027   0.000001
    25  H    0.529190   0.000015   0.000092   0.000090  -0.000062   0.000027
    26  H    0.000015   0.542228  -0.028263  -0.019571   0.000146   0.000005
    27  H    0.000092  -0.028263   0.542327  -0.021671   0.000077   0.000002
    28  H    0.000090  -0.019571  -0.021671   0.536737   0.002137  -0.000017
    29  H   -0.000062   0.000146   0.000077   0.002137   0.531476  -0.005224
    30  H    0.000027   0.000005   0.000002  -0.000017  -0.005224   0.470815
 Mulliken charges:
               1
     1  O   -0.458709
     2  S    0.839139
     3  N   -0.331286
     4  C    0.256013
     5  C   -0.249329
     6  C   -0.077587
     7  C   -0.146663
     8  C   -0.090626
     9  C   -0.249154
    10  C   -0.000292
    11  C   -0.167825
    12  C   -0.185074
    13  C    0.163904
    14  C   -0.364757
    15  C   -0.186873
    16  C   -0.138391
    17  O   -0.465893
    18  H    0.236098
    19  H    0.157217
    20  H    0.123161
    21  H    0.121036
    22  H    0.121356
    23  H    0.113863
    24  H    0.155047
    25  H    0.128441
    26  H    0.139918
    27  H    0.134829
    28  H    0.126720
    29  H    0.126201
    30  H    0.169518
 Sum of Mulliken charges =  -0.00000
 Mulliken charges with hydrogens summed into heavy atoms:
               1
     1  O   -0.458709
     2  S    0.839139
     3  N   -0.095188
     4  C    0.256013
     5  C   -0.092112
     6  C    0.045573
     7  C   -0.025627
     8  C    0.030729
     9  C   -0.135291
    10  C   -0.000292
    11  C   -0.012778
    12  C   -0.056633
    13  C    0.163904
    14  C    0.036710
    15  C   -0.060672
    16  C    0.031127
    17  O   -0.465893
 Electronic spatial extent (au):  <R**2>=           5712.1934
 Charge=             -0.0000 electrons
 Dipole moment (field-independent basis, Debye):
    X=              3.0409    Y=             -0.1519    Z=             -3.9277  Tot=              4.9696
 Quadrupole moment (field-independent basis, Debye-Ang):
   XX=            -81.5819   YY=           -101.8469   ZZ=           -114.0607
   XY=             -0.0222   XZ=             -0.7053   YZ=             -4.7209
 Traceless Quadrupole moment (field-independent basis, Debye-Ang):
   XX=             17.5813   YY=             -2.6837   ZZ=            -14.8975
   XY=             -0.0222   XZ=             -0.7053   YZ=             -4.7209
 Octapole moment (field-independent basis, Debye-Ang**2):
  XXX=             32.2950  YYY=             -4.2986  ZZZ=              3.2183  XYY=             10.3076
  XXY=             -3.4797  XXZ=            -17.1141  XZZ=              5.7244  YZZ=              5.9365
  YYZ=             -6.2725  XYZ=             18.8721
 Hexadecapole moment (field-independent basis, Debye-Ang**3):
 XXXX=          -5809.7836 YYYY=           -658.3044 ZZZZ=           -612.9745 XXXY=             12.0206
 XXXZ=            -61.4147 YYYX=              7.9737 YYYZ=            -16.9537 ZZZX=            -16.4515
 ZZZY=             -2.9102 XXYY=          -1127.6036 XXZZ=          -1235.1730 YYZZ=           -221.1177
 XXYZ=            -47.2657 YYXZ=             -7.1359 ZZXY=            -23.9542
 N-N= 1.287201389879D+03 E-N=-5.169935341366D+03  KE= 1.102021199471D+03
 Breneman (CHELPG) radii used.
 Read replacement radii for each type of atom:
 Atom Element Radius
    1     8    1.70
    2    16    2.00
    3     7    1.70
    4     6    1.50
    5     6    1.50
    6     6    1.50
    7     6    1.50
    8     6    1.50
    9     6    1.50
   10     6    1.50
   11     6    1.50
   12     6    1.50
   13     6    1.50
   14     6    1.50
   15     6    1.50
   16     6    1.50
   17     8    1.70
   18     1    1.45
   19     1    1.45
   20     1    1.45
   21     1    1.45
   22     1    1.45
   23     1    1.45
   24     1    1.45
   25     1    1.45
   26     1    1.45
   27     1    1.45
   28     1    1.45
   29     1    1.45
   30     1    1.45
 Generate Potential Derived Charges using the Breneman model, NDens= 1.
 Grid spacing= 0.300 Box extension= 2.800
 NStep X,Y,Z=   62     35     32   Total possible points=       69440
 Number of Points to Fit=   19062

 **********************************************************************

            Electrostatic Properties Using The SCF Density.

 **********************************************************************

       Atomic Center    1 is at  -0.224818  1.614869  1.452582
       Atomic Center    2 is at  -0.067134  0.265246  0.936095
       Atomic Center    3 is at  -0.900468  0.094295 -0.533051
       Atomic Center    4 is at  -2.319079 -0.015986 -0.507797
       Atomic Center    5 is at  -2.934350 -1.112500  0.106695
       Atomic Center    6 is at  -4.321856 -1.221488  0.089448
       Atomic Center    7 is at  -5.105070 -0.264490 -0.555750
       Atomic Center    8 is at  -4.489027  0.819043 -1.178445
       Atomic Center    9 is at  -3.102913  0.951274 -1.144689
       Atomic Center   10 is at   1.598374  0.087637  0.345131
       Atomic Center   11 is at   2.063824 -1.177999 -0.013959
       Atomic Center   12 is at   3.368277 -1.308605 -0.470137
       Atomic Center   13 is at   4.218931 -0.195639 -0.566619
       Atomic Center   14 is at   5.635866 -0.365015 -1.044993
       Atomic Center   15 is at   3.725281  1.057721 -0.191510
       Atomic Center   16 is at   2.417504  1.208549  0.267103
       Atomic Center   17 is at  -0.417108 -0.880183  1.755892
       Atomic Center   18 is at  -0.581474  0.830623 -1.160144
       Atomic Center   19 is at  -2.319324 -1.863836  0.600236
       Atomic Center   20 is at  -4.795450 -2.075716  0.578026
       Atomic Center   21 is at  -6.192165 -0.363581 -0.573242
       Atomic Center   22 is at  -5.089656  1.577252 -1.685358
       Atomic Center   23 is at  -2.623493  1.814417 -1.613835
       Atomic Center   24 is at   1.405630 -2.044478  0.070084
       Atomic Center   25 is at   3.740685 -2.295842 -0.755096
       Atomic Center   26 is at   6.234629 -0.908949 -0.297548
       Atomic Center   27 is at   5.672110 -0.946454 -1.978206
       Atomic Center   28 is at   6.121393  0.603687 -1.224577
       Atomic Center   29 is at   4.374641  1.934213 -0.254369
       Atomic Center   30 is at   2.030733  2.182163  0.573202
   19062 points will be used for fitting atomic charges
 Fitting point charges to electrostatic potential
 Charges from ESP fit, RMS=   0.00374 RRMS=   0.22271:
 ESP charges:
               1
     1  O   -0.512124
     2  S    1.000262
     3  N   -0.781170
     4  C    0.549257
     5  C   -0.297527
     6  C   -0.033906
     7  C   -0.152665
     8  C   -0.043879
     9  C   -0.310254
    10  C   -0.034858
    11  C   -0.057265
    12  C   -0.217951
    13  C    0.259028
    14  C   -0.314238
    15  C   -0.227816
    16  C   -0.057082
    17  O   -0.498858
    18  H    0.336167
    19  H    0.189996
    20  H    0.088593
    21  H    0.103809
    22  H    0.094627
    23  H    0.146139
    24  H    0.118097
    25  H    0.129126
    26  H    0.097059
    27  H    0.087045
    28  H    0.094699
    29  H    0.125597
    30  H    0.120091
 Sum of ESP charges =   0.00000
 ESP charges with hydrogens summed into heavy atoms:
               1
     1  O   -0.512124
     2  S    1.000262
     3  N   -0.445003
     4  C    0.549257
     5  C   -0.107531
     6  C    0.054687
     7  C   -0.048856
     8  C    0.050747
     9  C   -0.164114
    10  C   -0.034858
    11  C    0.060832
    12  C   -0.088825
    13  C    0.259028
    14  C   -0.035435
    15  C   -0.102218
    16  C    0.063008
    17  O   -0.498858
 Charge=   0.00000 Dipole=     2.9950    -0.2311    -4.0194 Tot=     5.0179
 -----------------------------------------------------------------

              Electrostatic Properties (Atomic Units)

 -----------------------------------------------------------------
    Center     Electric         -------- Electric Field --------
               Potential          X             Y             Z
 -----------------------------------------------------------------
    1 Atom    -22.374980
    2 Atom    -59.026933
    3 Atom    -18.348212
    4 Atom    -14.717766
    5 Atom    -14.770057
    6 Atom    -14.766656
    7 Atom    -14.769312
    8 Atom    -14.764195
    9 Atom    -14.762857
   10 Atom    -14.728571
   11 Atom    -14.741047
   12 Atom    -14.749118
   13 Atom    -14.732810
   14 Atom    -14.752670
   15 Atom    -14.749273
   16 Atom    -14.741276
   17 Atom    -22.374572
   18 Atom     -1.004604
   19 Atom     -1.108736
   20 Atom     -1.107199
   21 Atom     -1.106798
   22 Atom     -1.103246
   23 Atom     -1.094143
   24 Atom     -1.083553
   25 Atom     -1.087443
   26 Atom     -1.095401
   27 Atom     -1.096441
   28 Atom     -1.098952
   29 Atom     -1.087867
   30 Atom     -1.083642
 -----------------------------------------------------------------
 Unable to Open any file for archive entry.
 1\1\GINC-NOTCH073\SP\RwB97XD\def2TZVP\C13H13N1O2S1\U1366379\17-Feb-202
 6\0\\#N Guess=Read Geom=Check Integral(Ultrafine) Density Pop=(ChelpG,
 ReadRadii) NMR wB97XD def2TZVP\\prod_5l_4\\0,1\O,0,0.169063433,1.81125
 5751,1.0776810496\S,0,0.0379656286,0.8951142233,-0.0433028257\N,0,0.88
 81082903,-0.5414604632,0.2658389073\C,0,2.3079886679,-0.5319421577,0.1
 704157579\C,0,2.9347179293,-0.2839486279,-1.0560468061\C,0,4.323889276
 ,-0.3148148906,-1.1372730859\C,0,5.097927262,-0.6158772418,-0.01665939
 38\C,0,4.4707131078,-0.8757432672,1.2000468969\C,0,3.08240188,-0.82188
 93312,1.2981722395\C,0,-1.618693647,0.2546684438,-0.0465406496\C,0,-2.
 060370413,-0.4900582647,-1.1409483147\C,0,-3.3580931164,-0.9826614612,
 -1.1375114523\C,0,-4.2254414999,-0.7370522452,-0.0609443838\C,0,-5.634
 7928108,-1.2644929158,-0.0887069985\C,0,-3.7555297629,0.0194302763,1.0
 171204727\C,0,-2.4548303554,0.5207394154,1.0321569457\O,0,0.3982372653
 ,1.3188979875,-1.383887537\H,0,0.5634797557,-0.9102477838,1.15791175\H
 ,0,2.3270219815,-0.0599316557,-1.9317567039\H,0,4.8063157059,-0.112335
 0893,-2.0959044787\H,0,6.1865845253,-0.6481381397,-0.0920553416\H,0,5.
 0640344959,-1.1105026001,2.086306192\H,0,2.5938203003,-1.0032061934,2.
 2590937391\H,0,-1.3892642638,-0.6728545615,-1.9819428674\H,0,-3.711907
 6925,-1.5683167958,-1.9897722009\H,0,-6.2319992894,-0.7341049177,-0.84
 70524342\H,0,-5.6527079083,-2.3334498913,-0.3480924132\H,0,-6.13396947
 62,-1.1378664325,0.8814266935\H,0,-4.4181678672,0.2256055557,1.8610760
 576\H,0,-2.0866414022,1.1223932745,1.8650211858\\Version=ES64L-G16RevC
 .01\State=1-A\HF=-1106.6230564\RMSD=1.955e-09\Dipole=-1.1802744,-1.502
 7742,0.4139963\Quadrupole=13.053376,-12.2539,-0.799476,0.8641923,0.020
 6902,-0.1038209\PG=C01 [X(C13H13N1O2S1)]\\@
 The archive entry for this job was punched.


 MANHOOD BEGINS BY TRYING TO SHAVE FACE,
 AND ENDS BY TRYING TO SAVE FACE.
 Job cpu time:       0 days  1 hours 32 minutes 39.2 seconds.
 Elapsed time:       0 days  0 hours 11 minutes 58.7 seconds.
 File lengths (MBytes):  RWF=    226 Int=      0 D2E=      0 Chk=     34 Scr=      2
 Normal termination of Gaussian 16 at Tue Feb 17 17:24:49 2026.
