 Entering Gaussian System, Link 0=g16
 Input=prod_5l_12.com
 Output=prod_5l_12.log
 Initial command:
 /uufs/chpc.utah.edu/sys/installdir/gaussian16/C01/AVX/g16/l1.exe "/scratch/general/vast/u1366379/GAUSSSCRDIR/11046997-notchpeak.peaks/Gau-2665550.inp" -scrdir="/scratch/general/vast/u1366379/GAUSSSCRDIR/11046997-notchpeak.peaks/"
 Entering Link 1 = /uufs/chpc.utah.edu/sys/installdir/gaussian16/C01/AVX/g16/l1.exe PID=   2665551.
  
 Copyright (c) 1988-2019, Gaussian, Inc.  All Rights Reserved.
  
 This is part of the Gaussian(R) 16 program.  It is based on
 the Gaussian(R) 09 system (copyright 2009, Gaussian, Inc.),
 the Gaussian(R) 03 system (copyright 2003, Gaussian, Inc.),
 the Gaussian(R) 98 system (copyright 1998, Gaussian, Inc.),
 the Gaussian(R) 94 system (copyright 1995, Gaussian, Inc.),
 the Gaussian 92(TM) system (copyright 1992, Gaussian, Inc.),
 the Gaussian 90(TM) system (copyright 1990, Gaussian, Inc.),
 the Gaussian 88(TM) system (copyright 1988, Gaussian, Inc.),
 the Gaussian 86(TM) system (copyright 1986, Carnegie Mellon
 University), and the Gaussian 82(TM) system (copyright 1983,
 Carnegie Mellon University). Gaussian is a federally registered
 trademark of Gaussian, Inc.
  
 This software contains proprietary and confidential information,
 including trade secrets, belonging to Gaussian, Inc.
  
 This software is provided under written license and may be
 used, copied, transmitted, or stored only in accord with that
 written license.
  
 The following legend is applicable only to US Government
 contracts under FAR:
  
                    RESTRICTED RIGHTS LEGEND
  
 Use, reproduction and disclosure by the US Government is
 subject to restrictions as set forth in subparagraphs (a)
 and (c) of the Commercial Computer Software - Restricted
 Rights clause in FAR 52.227-19.
  
 Gaussian, Inc.
 340 Quinnipiac St., Bldg. 40, Wallingford CT 06492
  
  
 ---------------------------------------------------------------
 Warning -- This program may not be used in any manner that
 competes with the business of Gaussian, Inc. or will provide
 assistance to any competitor of Gaussian, Inc.  The licensee
 of this program is prohibited from giving any competitor of
 Gaussian, Inc. access to this program.  By using this program,
 the user acknowledges that Gaussian, Inc. is engaged in the
 business of creating and licensing software in the field of
 computational chemistry and represents and warrants to the
 licensee that it is not a competitor of Gaussian, Inc. and that
 it will not use this program in any manner prohibited above.
 ---------------------------------------------------------------
  

 Cite this work as:
 Gaussian 16, Revision C.01,
 M. J. Frisch, G. W. Trucks, H. B. Schlegel, G. E. Scuseria, 
 M. A. Robb, J. R. Cheeseman, G. Scalmani, V. Barone, 
 G. A. Petersson, H. Nakatsuji, X. Li, M. Caricato, A. V. Marenich, 
 J. Bloino, B. G. Janesko, R. Gomperts, B. Mennucci, H. P. Hratchian, 
 J. V. Ortiz, A. F. Izmaylov, J. L. Sonnenberg, D. Williams-Young, 
 F. Ding, F. Lipparini, F. Egidi, J. Goings, B. Peng, A. Petrone, 
 T. Henderson, D. Ranasinghe, V. G. Zakrzewski, J. Gao, N. Rega, 
 G. Zheng, W. Liang, M. Hada, M. Ehara, K. Toyota, R. Fukuda, 
 J. Hasegawa, M. Ishida, T. Nakajima, Y. Honda, O. Kitao, H. Nakai, 
 T. Vreven, K. Throssell, J. A. Montgomery, Jr., J. E. Peralta, 
 F. Ogliaro, M. J. Bearpark, J. J. Heyd, E. N. Brothers, K. N. Kudin, 
 V. N. Staroverov, T. A. Keith, R. Kobayashi, J. Normand, 
 K. Raghavachari, A. P. Rendell, J. C. Burant, S. S. Iyengar, 
 J. Tomasi, M. Cossi, J. M. Millam, M. Klene, C. Adamo, R. Cammi, 
 J. W. Ochterski, R. L. Martin, K. Morokuma, O. Farkas, 
 J. B. Foresman, and D. J. Fox, Gaussian, Inc., Wallingford CT, 2019.
 
 ******************************************
 Gaussian 16:  ES64L-G16RevC.01  3-Jul-2019
                19-Feb-2026 
 ******************************************
 %NProcShared=16
 Will use up to   16 processors via shared memory.
 %Mem=16GB
 %chk=prod_5l_12.chk
 ---------------------------------------------------------------
 #N OPT=(CalcFC) FREQ=NORAMAN Integral(Ultrafine) wB97XD def2SVP
 ---------------------------------------------------------------
 1/10=4,18=20,19=15,26=4,38=1/1,3;
 2/9=110,12=2,17=6,18=5,40=1/2;
 3/5=43,7=101,11=2,25=1,30=1,71=2,74=-58,75=-5,140=1/1,2,3;
 4//1;
 5/5=2,38=5/2;
 8/6=4,10=90,11=11/1;
 11/6=1,8=1,9=11,15=111,16=1/1,2,10;
 10/6=1,13=1/2;
 6/7=2,8=2,9=2,10=2,28=1/1;
 7/10=1,25=1/1,2,3,16;
 1/10=4,18=20,19=15,26=4/3(2);
 2/9=110/2;
 99//99;
 2/9=110/2;
 3/5=43,7=101,11=2,25=1,30=1,71=1,74=-58,75=-5/1,2,3;
 4/5=5,16=3,69=1/1;
 5/5=2,38=5/2;
 7//1,2,3,16;
 1/18=20,19=15,26=4/3(-5);
 2/9=110/2;
 6/7=2,8=2,9=2,10=2,19=2,28=1/1;
 99/9=1/99;
 ----------
 prod_5l_12
 ----------
 Symbolic Z-matrix:
 Charge =  0 Multiplicity = 1
 O                     0.03248   2.14765   1.08826 
 S                     0.04519   1.10652   0.00541 
 N                     0.86539  -0.24454   0.64773 
 C                     2.20958  -0.42072   0.31512 
 C                     2.98766  -1.30514   1.07356 
 C                     4.31494  -1.51389   0.78085 
 C                     4.90616  -0.85104  -0.27608 
 C                     4.16096   0.02131  -1.04341 
 C                     2.83423   0.23236  -0.75558 
 C                    -1.58332   0.34984  -0.032 
 C                    -2.59378   0.86568   0.74289 
 C                    -3.84643   0.28707   0.71552 
 C                    -4.09833  -0.81115  -0.09373 
 C                    -5.44507  -1.44369  -0.10632 
 C                    -3.0635   -1.32274  -0.86417 
 C                    -1.81192  -0.74144  -0.83475 
 O                     0.38002   1.43973  -1.42015 
 H                     0.69017  -0.13425   1.623 
 H                     2.52362  -1.82304   1.8943 
 H                     4.89582  -2.19683   1.37865 
 H                     5.94687  -1.01494  -0.50211 
 H                     4.62007   0.538    -1.8702 
 H                     2.25274   0.90493  -1.35863 
 H                    -2.39108   1.72236   1.36474 
 H                    -4.63958   0.68638   1.32378 
 H                    -5.58359  -2.07627   0.77087 
 H                    -6.23116  -0.68801  -0.10517 
 H                    -5.5832   -2.06322  -0.99281 
 H                    -3.24492  -2.17996  -1.48918 
 H                    -1.00721  -1.13037  -1.43671 
 

 GradGradGradGradGradGradGradGradGradGradGradGradGradGradGradGradGradGrad
 Berny optimization.
 Initialization pass.
                           ----------------------------
                           !    Initial Parameters    !
                           ! (Angstroms and Degrees)  !
 --------------------------                            --------------------------
 ! Name  Definition              Value          Derivative Info.                !
 --------------------------------------------------------------------------------
 ! R1    R(1,2)                  1.5022         calculate D2E/DX2 analytically  !
 ! R2    R(2,3)                  1.7061         calculate D2E/DX2 analytically  !
 ! R3    R(2,10)                 1.7961         calculate D2E/DX2 analytically  !
 ! R4    R(2,17)                 1.5018         calculate D2E/DX2 analytically  !
 ! R5    R(3,4)                  1.3959         calculate D2E/DX2 analytically  !
 ! R6    R(3,18)                 0.997          calculate D2E/DX2 analytically  !
 ! R7    R(4,5)                  1.401          calculate D2E/DX2 analytically  !
 ! R8    R(4,9)                  1.4011         calculate D2E/DX2 analytically  !
 ! R9    R(5,6)                  1.3751         calculate D2E/DX2 analytically  !
 ! R10   R(5,19)                 1.0757         calculate D2E/DX2 analytically  !
 ! R11   R(6,7)                  1.3806         calculate D2E/DX2 analytically  !
 ! R12   R(6,20)                 1.0776         calculate D2E/DX2 analytically  !
 ! R13   R(7,8)                  1.3803         calculate D2E/DX2 analytically  !
 ! R14   R(7,21)                 1.0775         calculate D2E/DX2 analytically  !
 ! R15   R(8,9)                  1.3739         calculate D2E/DX2 analytically  !
 ! R16   R(8,22)                 1.0777         calculate D2E/DX2 analytically  !
 ! R17   R(9,23)                 1.0743         calculate D2E/DX2 analytically  !
 ! R18   R(10,11)                1.3739         calculate D2E/DX2 analytically  !
 ! R19   R(10,16)                1.3739         calculate D2E/DX2 analytically  !
 ! R20   R(11,12)                1.3801         calculate D2E/DX2 analytically  !
 ! R21   R(11,24)                1.0778         calculate D2E/DX2 analytically  !
 ! R22   R(12,13)                1.3872         calculate D2E/DX2 analytically  !
 ! R23   R(12,25)                1.0763         calculate D2E/DX2 analytically  !
 ! R24   R(13,14)                1.4879         calculate D2E/DX2 analytically  !
 ! R25   R(13,15)                1.3879         calculate D2E/DX2 analytically  !
 ! R26   R(14,26)                1.0903         calculate D2E/DX2 analytically  !
 ! R27   R(14,27)                1.0904         calculate D2E/DX2 analytically  !
 ! R28   R(14,28)                1.0903         calculate D2E/DX2 analytically  !
 ! R29   R(15,16)                1.3803         calculate D2E/DX2 analytically  !
 ! R30   R(15,29)                1.0763         calculate D2E/DX2 analytically  !
 ! R31   R(16,30)                1.0776         calculate D2E/DX2 analytically  !
 ! A1    A(1,2,3)              106.3512         calculate D2E/DX2 analytically  !
 ! A2    A(1,2,10)             107.4168         calculate D2E/DX2 analytically  !
 ! A3    A(1,2,17)             122.1649         calculate D2E/DX2 analytically  !
 ! A4    A(3,2,10)              96.3217         calculate D2E/DX2 analytically  !
 ! A5    A(3,2,17)             115.2078         calculate D2E/DX2 analytically  !
 ! A6    A(10,2,17)            106.0128         calculate D2E/DX2 analytically  !
 ! A7    A(2,3,4)              118.2415         calculate D2E/DX2 analytically  !
 ! A8    A(2,3,18)             101.3143         calculate D2E/DX2 analytically  !
 ! A9    A(4,3,18)             114.6001         calculate D2E/DX2 analytically  !
 ! A10   A(3,4,5)              119.0441         calculate D2E/DX2 analytically  !
 ! A11   A(3,4,9)              123.5435         calculate D2E/DX2 analytically  !
 ! A12   A(5,4,9)              117.409          calculate D2E/DX2 analytically  !
 ! A13   A(4,5,6)              121.1078         calculate D2E/DX2 analytically  !
 ! A14   A(4,5,19)             118.5147         calculate D2E/DX2 analytically  !
 ! A15   A(6,5,19)             120.3775         calculate D2E/DX2 analytically  !
 ! A16   A(5,6,7)              120.2265         calculate D2E/DX2 analytically  !
 ! A17   A(5,6,20)             119.8961         calculate D2E/DX2 analytically  !
 ! A18   A(7,6,20)             119.8774         calculate D2E/DX2 analytically  !
 ! A19   A(6,7,8)              119.8575         calculate D2E/DX2 analytically  !
 ! A20   A(6,7,21)             120.0778         calculate D2E/DX2 analytically  !
 ! A21   A(8,7,21)             120.0647         calculate D2E/DX2 analytically  !
 ! A22   A(7,8,9)              120.1313         calculate D2E/DX2 analytically  !
 ! A23   A(7,8,22)             119.9692         calculate D2E/DX2 analytically  !
 ! A24   A(9,8,22)             119.8995         calculate D2E/DX2 analytically  !
 ! A25   A(4,9,8)              121.266          calculate D2E/DX2 analytically  !
 ! A26   A(4,9,23)             118.6503         calculate D2E/DX2 analytically  !
 ! A27   A(8,9,23)             120.083          calculate D2E/DX2 analytically  !
 ! A28   A(2,10,11)            119.7965         calculate D2E/DX2 analytically  !
 ! A29   A(2,10,16)            119.8456         calculate D2E/DX2 analytically  !
 ! A30   A(11,10,16)           120.358          calculate D2E/DX2 analytically  !
 ! A31   A(10,11,12)           119.931          calculate D2E/DX2 analytically  !
 ! A32   A(10,11,24)           119.0464         calculate D2E/DX2 analytically  !
 ! A33   A(12,11,24)           121.0225         calculate D2E/DX2 analytically  !
 ! A34   A(11,12,13)           120.55           calculate D2E/DX2 analytically  !
 ! A35   A(11,12,25)           120.1389         calculate D2E/DX2 analytically  !
 ! A36   A(13,12,25)           119.3111         calculate D2E/DX2 analytically  !
 ! A37   A(12,13,14)           120.3865         calculate D2E/DX2 analytically  !
 ! A38   A(12,13,15)           118.7023         calculate D2E/DX2 analytically  !
 ! A39   A(14,13,15)           120.8951         calculate D2E/DX2 analytically  !
 ! A40   A(13,14,26)           110.7824         calculate D2E/DX2 analytically  !
 ! A41   A(13,14,27)           110.97           calculate D2E/DX2 analytically  !
 ! A42   A(13,14,28)           111.2908         calculate D2E/DX2 analytically  !
 ! A43   A(26,14,27)           108.0375         calculate D2E/DX2 analytically  !
 ! A44   A(26,14,28)           107.961          calculate D2E/DX2 analytically  !
 ! A45   A(27,14,28)           107.6568         calculate D2E/DX2 analytically  !
 ! A46   A(13,15,16)           120.5987         calculate D2E/DX2 analytically  !
 ! A47   A(13,15,29)           119.3586         calculate D2E/DX2 analytically  !
 ! A48   A(16,15,29)           120.0426         calculate D2E/DX2 analytically  !
 ! A49   A(10,16,15)           119.8572         calculate D2E/DX2 analytically  !
 ! A50   A(10,16,30)           119.2637         calculate D2E/DX2 analytically  !
 ! A51   A(15,16,30)           120.8789         calculate D2E/DX2 analytically  !
 ! D1    D(1,2,3,4)            -99.1322         calculate D2E/DX2 analytically  !
 ! D2    D(1,2,3,18)            26.9798         calculate D2E/DX2 analytically  !
 ! D3    D(10,2,3,4)           150.6037         calculate D2E/DX2 analytically  !
 ! D4    D(10,2,3,18)          -83.2843         calculate D2E/DX2 analytically  !
 ! D5    D(17,2,3,4)            39.5709         calculate D2E/DX2 analytically  !
 ! D6    D(17,2,3,18)          165.6828         calculate D2E/DX2 analytically  !
 ! D7    D(1,2,10,11)            7.0591         calculate D2E/DX2 analytically  !
 ! D8    D(1,2,10,16)         -172.9275         calculate D2E/DX2 analytically  !
 ! D9    D(3,2,10,11)          116.4256         calculate D2E/DX2 analytically  !
 ! D10   D(3,2,10,16)          -63.5609         calculate D2E/DX2 analytically  !
 ! D11   D(17,2,10,11)        -125.0457         calculate D2E/DX2 analytically  !
 ! D12   D(17,2,10,16)          54.9678         calculate D2E/DX2 analytically  !
 ! D13   D(2,3,4,5)            164.1784         calculate D2E/DX2 analytically  !
 ! D14   D(2,3,4,9)            -16.5122         calculate D2E/DX2 analytically  !
 ! D15   D(18,3,4,5)            44.782          calculate D2E/DX2 analytically  !
 ! D16   D(18,3,4,9)          -135.9086         calculate D2E/DX2 analytically  !
 ! D17   D(3,4,5,6)            179.8035         calculate D2E/DX2 analytically  !
 ! D18   D(3,4,5,19)            -0.0949         calculate D2E/DX2 analytically  !
 ! D19   D(9,4,5,6)              0.4519         calculate D2E/DX2 analytically  !
 ! D20   D(9,4,5,19)          -179.4465         calculate D2E/DX2 analytically  !
 ! D21   D(3,4,9,8)           -179.8268         calculate D2E/DX2 analytically  !
 ! D22   D(3,4,9,23)            -0.1313         calculate D2E/DX2 analytically  !
 ! D23   D(5,4,9,8)             -0.5068         calculate D2E/DX2 analytically  !
 ! D24   D(5,4,9,23)           179.1886         calculate D2E/DX2 analytically  !
 ! D25   D(4,5,6,7)             -0.1206         calculate D2E/DX2 analytically  !
 ! D26   D(4,5,6,20)           179.8528         calculate D2E/DX2 analytically  !
 ! D27   D(19,5,6,7)           179.7759         calculate D2E/DX2 analytically  !
 ! D28   D(19,5,6,20)           -0.2507         calculate D2E/DX2 analytically  !
 ! D29   D(5,6,7,8)             -0.1747         calculate D2E/DX2 analytically  !
 ! D30   D(5,6,7,21)           179.8793         calculate D2E/DX2 analytically  !
 ! D31   D(20,6,7,8)           179.8519         calculate D2E/DX2 analytically  !
 ! D32   D(20,6,7,21)           -0.0941         calculate D2E/DX2 analytically  !
 ! D33   D(6,7,8,9)              0.1209         calculate D2E/DX2 analytically  !
 ! D34   D(6,7,8,22)          -179.8639         calculate D2E/DX2 analytically  !
 ! D35   D(21,7,8,9)          -179.9332         calculate D2E/DX2 analytically  !
 ! D36   D(21,7,8,22)            0.0821         calculate D2E/DX2 analytically  !
 ! D37   D(7,8,9,4)              0.2294         calculate D2E/DX2 analytically  !
 ! D38   D(7,8,9,23)          -179.4618         calculate D2E/DX2 analytically  !
 ! D39   D(22,8,9,4)          -179.7859         calculate D2E/DX2 analytically  !
 ! D40   D(22,8,9,23)            0.523          calculate D2E/DX2 analytically  !
 ! D41   D(2,10,11,12)         179.9508         calculate D2E/DX2 analytically  !
 ! D42   D(2,10,11,24)           0.0185         calculate D2E/DX2 analytically  !
 ! D43   D(16,10,11,12)         -0.0628         calculate D2E/DX2 analytically  !
 ! D44   D(16,10,11,24)       -179.995          calculate D2E/DX2 analytically  !
 ! D45   D(2,10,16,15)        -179.969          calculate D2E/DX2 analytically  !
 ! D46   D(2,10,16,30)          -0.1307         calculate D2E/DX2 analytically  !
 ! D47   D(11,10,16,15)          0.0445         calculate D2E/DX2 analytically  !
 ! D48   D(11,10,16,30)        179.8829         calculate D2E/DX2 analytically  !
 ! D49   D(10,11,12,13)         -0.2643         calculate D2E/DX2 analytically  !
 ! D50   D(10,11,12,25)        179.79           calculate D2E/DX2 analytically  !
 ! D51   D(24,11,12,13)        179.6666         calculate D2E/DX2 analytically  !
 ! D52   D(24,11,12,25)         -0.2791         calculate D2E/DX2 analytically  !
 ! D53   D(11,12,13,14)        179.154          calculate D2E/DX2 analytically  !
 ! D54   D(11,12,13,15)          0.5975         calculate D2E/DX2 analytically  !
 ! D55   D(25,12,13,14)         -0.8999         calculate D2E/DX2 analytically  !
 ! D56   D(25,12,13,15)       -179.4564         calculate D2E/DX2 analytically  !
 ! D57   D(12,13,14,26)        -78.091          calculate D2E/DX2 analytically  !
 ! D58   D(12,13,14,27)         41.9178         calculate D2E/DX2 analytically  !
 ! D59   D(12,13,14,28)        161.7842         calculate D2E/DX2 analytically  !
 ! D60   D(15,13,14,26)        100.4335         calculate D2E/DX2 analytically  !
 ! D61   D(15,13,14,27)       -139.5577         calculate D2E/DX2 analytically  !
 ! D62   D(15,13,14,28)        -19.6913         calculate D2E/DX2 analytically  !
 ! D63   D(12,13,15,16)         -0.616          calculate D2E/DX2 analytically  !
 ! D64   D(12,13,15,29)        179.4579         calculate D2E/DX2 analytically  !
 ! D65   D(14,13,15,16)       -179.1649         calculate D2E/DX2 analytically  !
 ! D66   D(14,13,15,29)          0.909          calculate D2E/DX2 analytically  !
 ! D67   D(13,15,16,10)          0.3009         calculate D2E/DX2 analytically  !
 ! D68   D(13,15,16,30)       -179.5347         calculate D2E/DX2 analytically  !
 ! D69   D(29,15,16,10)       -179.7735         calculate D2E/DX2 analytically  !
 ! D70   D(29,15,16,30)          0.3908         calculate D2E/DX2 analytically  !
 --------------------------------------------------------------------------------
 Trust Radius=3.00D-01 FncErr=1.00D-07 GrdErr=1.00D-06 EigMax=2.50D+02 EigMin=1.00D-04
 Number of steps in this run=    162 maximum allowed number of steps=    180.
 GradGradGradGradGradGradGradGradGradGradGradGradGradGradGradGradGradGrad

                          Input orientation:                          
 ---------------------------------------------------------------------
 Center     Atomic      Atomic             Coordinates (Angstroms)
 Number     Number       Type             X           Y           Z
 ---------------------------------------------------------------------
      1          8           0        0.032480    2.147650    1.088260
      2         16           0        0.045190    1.106520    0.005410
      3          7           0        0.865390   -0.244540    0.647730
      4          6           0        2.209580   -0.420720    0.315120
      5          6           0        2.987660   -1.305140    1.073560
      6          6           0        4.314940   -1.513890    0.780850
      7          6           0        4.906160   -0.851040   -0.276080
      8          6           0        4.160960    0.021310   -1.043410
      9          6           0        2.834230    0.232360   -0.755580
     10          6           0       -1.583320    0.349840   -0.032000
     11          6           0       -2.593780    0.865680    0.742890
     12          6           0       -3.846430    0.287070    0.715520
     13          6           0       -4.098330   -0.811150   -0.093730
     14          6           0       -5.445070   -1.443690   -0.106320
     15          6           0       -3.063500   -1.322740   -0.864170
     16          6           0       -1.811920   -0.741440   -0.834750
     17          8           0        0.380020    1.439730   -1.420150
     18          1           0        0.690170   -0.134250    1.623000
     19          1           0        2.523620   -1.823040    1.894300
     20          1           0        4.895820   -2.196830    1.378650
     21          1           0        5.946870   -1.014940   -0.502110
     22          1           0        4.620070    0.538000   -1.870200
     23          1           0        2.252740    0.904930   -1.358630
     24          1           0       -2.391080    1.722360    1.364740
     25          1           0       -4.639580    0.686380    1.323780
     26          1           0       -5.583590   -2.076270    0.770870
     27          1           0       -6.231160   -0.688010   -0.105170
     28          1           0       -5.583200   -2.063220   -0.992810
     29          1           0       -3.244920   -2.179960   -1.489180
     30          1           0       -1.007210   -1.130370   -1.436710
 ---------------------------------------------------------------------
                    Distance matrix (angstroms):
                    1          2          3          4          5
     1  O    0.000000
     2  S    1.502224   0.000000
     3  N    2.571066   1.706067   0.000000
     4  C    3.454567   2.667015   1.395892   0.000000
     5  C    4.544784   3.951604   2.410443   1.401013   0.000000
     6  C    5.642769   5.069381   3.678093   2.417533   1.375110
     7  C    5.882714   5.247886   4.189163   2.793964   2.389221
     8  C    5.109764   4.383750   3.713679   2.418445   2.760012
     9  C    3.862368   3.020266   2.464355   1.401107   2.394410
    10  C    2.664191   1.796109   2.609885   3.885916   4.985487
    11  C    2.942783   2.750644   3.634213   4.991000   5.997856
    12  C    4.318175   4.039859   4.742199   6.110364   7.026244
    13  C    5.216818   4.566842   5.050676   6.333192   7.198461
    14  C    6.657950   6.054668   6.467492   7.734193   8.516000
    15  C    5.043876   4.039979   4.345634   5.478114   6.353868
    16  C    3.930219   2.751306   3.100427   4.194940   5.195707
    17  O    2.629459   1.501786   2.710807   3.133644   4.533507
    18  H    2.434249   2.138249   0.997004   2.025147   2.636537
    19  H    4.756244   4.277013   2.606785   2.135166   1.075717
    20  H    6.527703   6.027149   4.537626   3.391393   2.128207
    21  H    6.892841   6.291899   5.266601   3.871472   3.365097
    22  H    5.691172   4.977013   4.588024   3.391936   3.837662
    23  H    3.530039   2.602791   2.696572   2.135568   3.367501
    24  H    2.476077   2.857000   3.871356   5.182718   6.179109
    25  H    4.900911   4.884843   5.623909   7.010996   7.886923
    26  H    7.034378   6.511470   6.705203   7.980104   8.611190
    27  H    6.978426   6.528793   7.150143   8.455423   9.314338
    28  H    7.321075   6.536243   6.898064   8.070682   8.848967
    29  H    6.009389   4.884626   5.020646   6.008493   6.795440
    30  H    4.266362   2.861981   2.938744   3.730985   4.721333
                    6          7          8          9         10
     6  C    0.000000
     7  C    1.380584   0.000000
     8  C    2.389241   1.380258   0.000000
     9  C    2.757265   2.386749   1.373900   0.000000
    10  C    6.238885   6.604168   5.841886   4.477959   0.000000
    11  C    7.307134   7.761091   7.037780   5.666551   1.373890
    12  C    8.357971   8.881801   8.202607   6.840932   2.384197
    13  C    8.487747   9.006425   8.355283   7.041828   2.770737
    14  C    9.800500  10.369572   9.762181   8.472160   4.258566
    15  C    7.562011   8.005238   7.350607   6.100274   2.383477
    16  C    6.383201   6.742160   6.025000   4.747764   1.373884
    17  O    5.389978   5.200237   4.055781   2.814701   2.639986
    18  H    3.968826   4.679195   4.379535   3.223203   2.853441
    19  H    2.131706   3.366278   3.835707   3.367939   5.029811
    20  H    1.077587   2.132930   3.365492   3.834847   7.103148
    21  H    2.134978   1.077511   2.134548   3.362816   7.667293
    22  H    3.366218   2.133658   1.077651   2.127209   6.472745
    23  H    3.831545   3.360950   2.126371   1.074314   4.096758
    24  H    7.468932   7.909765   7.184844   5.832643   2.118294
    25  H    9.236850   9.800223   9.137582   7.770953   3.360376
    26  H    9.914498  10.612829  10.131521   8.861124   4.746869
    27  H   10.615429  11.139824  10.458470   9.135174   4.762867
    28  H   10.070790  10.583466   9.964762   8.728064   4.769178
    29  H    7.921374   8.347320   7.738951   6.581301   3.359193
    30  H    5.778403   6.032664   5.309523   4.132509   2.120409
                   11         12         13         14         15
    11  C    0.000000
    12  C    1.380098   0.000000
    13  C    2.403198   1.387237   0.000000
    14  C    3.766192   2.495316   1.487943   0.000000
    15  C    2.755442   2.387444   1.387867   2.502167   0.000000
    16  C    2.383923   2.756882   2.404504   3.771411   1.380300
    17  O    3.721796   4.873663   5.184734   6.631134   4.449515
    18  H    3.543837   4.645618   5.131772   6.507407   4.657098
    19  H    5.894297   6.813195   6.987589   8.224744   6.251029
    20  H    8.116481   9.112433   9.218609  10.474080   8.315350
    21  H    8.833428   9.954224  10.055563  11.406874   9.022893
    22  H    7.679534   8.856102   8.999253  10.408910   7.969423
    23  H    5.282678   6.471764   6.699328   8.144972   5.785275
    24  H    1.077815   2.144665   3.385338   4.638399   3.833122
    25  H    2.134216   1.076344   2.131873   2.689089   3.362695
    26  H    4.194618   2.933627   2.134024   1.090325   3.097098
    27  H    4.045206   2.703932   2.136412   1.090409   3.318589
    28  H    4.530755   3.385059   2.140295   1.090304   2.629400
    29  H    3.831715   3.362849   2.132892   2.700936   1.076279
    30  H    3.354411   3.834371   3.385339   4.643566   2.143160
                   16         17         18         19         20
    16  C    0.000000
    17  O    3.147189   0.000000
    18  H    3.559448   3.440112   0.000000
    19  H    5.235884   5.121159   2.507420   0.000000
    20  H    7.211870   6.438191   4.690569   2.456206   0.000000
    21  H    7.770732   6.152887   5.737996   4.256107   2.457403
    22  H    6.639248   4.358175   5.300800   4.913357   4.255627
    23  H    4.416610   1.948557   3.523015   4.254027   4.909123
    24  H    3.353132   3.938843   3.606633   6.083138   8.274005
    25  H    3.833221   5.770015   5.400852   7.611446   9.961916
    26  H    4.311065   7.261368   6.622509   8.188594  10.497712
    27  H    4.479378   7.068532   7.155280   9.051649  11.326427
    28  H    3.999330   6.929161   7.065307   8.608927  10.744838
    29  H    2.133332   5.123193   5.418074   6.697117   8.631129
    30  H    1.077581   2.920633   3.638019   4.903283   6.626413
                   21         22         23         24         25
    21  H    0.000000
    22  H    2.458392   0.000000
    23  H    4.250426   2.449611   0.000000
    24  H    8.972143   7.811771   5.445181   0.000000
    25  H   10.876640   9.796154   7.399133   2.476022   0.000000
    26  H   11.648966  10.859297   8.650456   4.997438   2.971380
    27  H   12.188883  11.061990   8.722682   4.766207   2.542434
    28  H   11.588019  10.566119   8.387234   5.484368   3.717164
    29  H    9.317756   8.330099   6.305383   4.909379   4.251320
    30  H    7.017552   5.885376   3.843932   4.230991   4.910702
                   26         27         28         29         30
    26  H    0.000000
    27  H    1.764670   0.000000
    28  H    1.763728   1.760386   0.000000
    29  H    3.253914   3.613728   2.393233   0.000000
    30  H    5.168306   5.409097   4.691156   2.472193   0.000000
 Stoichiometry    C13H13NO2S
 Framework group  C1[X(C13H13NO2S)]
 Deg. of freedom    84
 Full point group                 C1      NOp   1
 Largest Abelian subgroup         C1      NOp   1
 Largest concise Abelian subgroup C1      NOp   1
                         Standard orientation:                         
 ---------------------------------------------------------------------
 Center     Atomic      Atomic             Coordinates (Angstroms)
 Number     Number       Type             X           Y           Z
 ---------------------------------------------------------------------
      1          8           0       -0.064177    2.216275   -1.017685
      2         16           0       -0.077744    1.141909    0.032187
      3          7           0       -0.892261   -0.190562   -0.654653
      4          6           0       -2.237079   -0.380398   -0.332253
      5          6           0       -3.010317   -1.242735   -1.120489
      6          6           0       -4.338008   -1.463841   -0.838926
      7          6           0       -4.934466   -0.835709    0.236109
      8          6           0       -4.194106    0.014204    1.032743
      9          6           0       -2.866987    0.237456    0.756128
     10          6           0        1.552614    0.388538    0.051557
     11          6           0        2.564279    0.930797   -0.703468
     12          6           0        3.818346    0.354774   -0.689867
     13          6           0        4.070444   -0.767469    0.085661
     14          6           0        5.418790   -1.396699    0.083130
     15          6           0        3.034411   -1.305403    0.836287
     16          6           0        1.781415   -0.726625    0.820724
     17          8           0       -0.418171    1.429732    1.466282
     18          1           0       -0.714099   -0.049521   -1.625417
     19          1           0       -2.542201   -1.733662   -1.955371
     20          1           0       -4.915108   -2.129301   -1.459661
     21          1           0       -5.975486   -1.009189    0.453394
     22          1           0       -4.657308    0.503745    1.873651
     23          1           0       -2.289267    0.892389    1.381789
     24          1           0        2.361394    1.805908   -1.299038
     25          1           0        4.612457    0.774824   -1.282708
     26          1           0        5.561877   -2.001312   -0.812848
     27          1           0        6.202893   -0.639371    0.108169
     28          1           0        5.555606   -2.043177    0.950372
     29          1           0        3.216008   -2.181206    1.434927
     30          1           0        0.975737   -1.136134    1.407552
 ---------------------------------------------------------------------
 Rotational constants (GHZ):           1.0956314           0.2122592           0.1993946
 Standard basis: def2SVP (5D, 7F)
 There are   324 symmetry adapted cartesian basis functions of A   symmetry.
 There are   307 symmetry adapted basis functions of A   symmetry.
   307 basis functions,   528 primitive gaussians,   324 cartesian basis functions
    65 alpha electrons       65 beta electrons
       nuclear repulsion energy      1294.0535062506 Hartrees.
 NAtoms=   30 NActive=   30 NUniq=   30 SFac= 1.00D+00 NAtFMM=   60 NAOKFM=F Big=F
 Integral buffers will be    131072 words long.
 Raffenetti 2 integral format.
 Two-electron integral symmetry is turned on.
 Nuclear repulsion after empirical dispersion term =     1294.0353890933 Hartrees.
 One-electron integrals computed using PRISM.
   1 Symmetry operations used in ECPInt.
 ECPInt:  NShTT=   10296 NPrTT=   38220 LenC2=    9195 LenP2D=   24140.
 LDataN:  DoStor=T MaxTD1= 4 Len=   56
 NBasis=   307 RedAO= T EigKep=  2.45D-04  NBF=   307
 NBsUse=   307 1.00D-06 EigRej= -1.00D+00 NBFU=   307
 ExpMin= 1.22D-01 ExpMax= 9.18D+03 ExpMxC= 1.38D+03 IAcc=3 IRadAn=         5 AccDes= 0.00D+00
 Harris functional with IExCor= 4639 and IRadAn=       5 diagonalized for initial guess.
 HarFok:  IExCor= 4639 AccDes= 0.00D+00 IRadAn=         5 IDoV= 1 UseB2=F ITyADJ=14
 ICtDFT=  3500011 ScaDFX=  1.000000  1.000000  1.000000  1.000000
 FoFCou: FMM=F IPFlag=           0 FMFlag=      100000 FMFlg1=           0
         NFxFlg=           0 DoJE=T BraDBF=F KetDBF=T FulRan=T
         wScrn=  0.000000 ICntrl=       500 IOpCl=  0 I1Cent=   200000004 NGrid=           0
         NMat0=    1 NMatS0=      1 NMatT0=    0 NMatD0=    1 NMtDS0=    0 NMtDT0=    0
 Petite list used in FoFCou.
 Requested convergence on RMS density matrix=1.00D-08 within 128 cycles.
 Requested convergence on MAX density matrix=1.00D-06.
 Requested convergence on             energy=1.00D-06.
 No special actions if energy rises.
 Integral accuracy reduced to 1.0D-05 until final iterations.
 Initial convergence to 1.0D-05 achieved.  Increase integral accuracy.
 SCF Done:  E(RwB97XD) =  -1105.63858522     A.U. after   15 cycles
            NFock= 15  Conv=0.90D-08     -V/T= 2.0070
 DoSCS=F DFT=T ScalE2(SS,OS)=  1.000000  1.000000
 Range of M.O.s used for correlation:     1   307
 NBasis=   307 NAE=    65 NBE=    65 NFC=     0 NFV=     0
 NROrb=    307 NOA=    65 NOB=    65 NVA=   242 NVB=   242

 **** Warning!!: The largest alpha MO coefficient is  0.14462517D+02

   1 Symmetry operations used in ECPInt.
 ECPInt:  NShTT=   10296 NPrTT=   38220 LenC2=    9195 LenP2D=   24140.
 LDataN:  DoStor=T MaxTD1= 5 Len=  102
 Symmetrizing basis deriv contribution to polar:
 IMax=3 JMax=2 DiffMx= 0.00D+00
 G2DrvN: will do    31 centers at a time, making    1 passes.
 Calling FoFCou, ICntrl=  3107 FMM=F I1Cent=   0 AccDes= 0.00D+00.
 End of G2Drv F.D. properties file   721 does not exist.
 End of G2Drv F.D. properties file   722 does not exist.
 End of G2Drv F.D. properties file   788 does not exist.
          IDoAtm=111111111111111111111111111111
          Differentiating once with respect to nuclear coordinates.
 CalDSu exits because no D1Ps are significant.
          There are    93 degrees of freedom in the 1st order CPHF.  IDoFFX=6 NUNeed=     0.
     87 vectors produced by pass  0 Test12= 1.69D-14 1.08D-09 XBig12= 1.17D-01 9.86D-02.
 AX will form    87 AO Fock derivatives at one time.
     87 vectors produced by pass  1 Test12= 1.69D-14 1.08D-09 XBig12= 2.14D-02 3.39D-02.
     87 vectors produced by pass  2 Test12= 1.69D-14 1.08D-09 XBig12= 6.87D-04 4.21D-03.
     87 vectors produced by pass  3 Test12= 1.69D-14 1.08D-09 XBig12= 1.15D-05 4.07D-04.
     87 vectors produced by pass  4 Test12= 1.69D-14 1.08D-09 XBig12= 1.55D-07 5.43D-05.
     87 vectors produced by pass  5 Test12= 1.69D-14 1.08D-09 XBig12= 1.11D-09 4.43D-06.
     85 vectors produced by pass  6 Test12= 1.69D-14 1.08D-09 XBig12= 6.88D-12 2.53D-07.
     42 vectors produced by pass  7 Test12= 1.69D-14 1.08D-09 XBig12= 3.09D-14 1.70D-08.
      2 vectors produced by pass  8 Test12= 1.69D-14 1.08D-09 XBig12= 4.50D-16 1.75D-09.
 InvSVY:  IOpt=1 It=  1 EMax= 7.77D-16
 Solved reduced A of dimension   651 with    93 vectors.
 End of Minotr F.D. properties file   721 does not exist.
 End of Minotr F.D. properties file   722 does not exist.
 End of Minotr F.D. properties file   788 does not exist.

 **********************************************************************

            Population analysis using the SCF Density.

 **********************************************************************

 Orbital symmetries:
       Occupied  (A) (A) (A) (A) (A) (A) (A) (A) (A) (A) (A) (A)
                 (A) (A) (A) (A) (A) (A) (A) (A) (A) (A) (A) (A)
                 (A) (A) (A) (A) (A) (A) (A) (A) (A) (A) (A) (A)
                 (A) (A) (A) (A) (A) (A) (A) (A) (A) (A) (A) (A)
                 (A) (A) (A) (A) (A) (A) (A) (A) (A) (A) (A) (A)
                 (A) (A) (A) (A) (A)
       Virtual   (A) (A) (A) (A) (A) (A) (A) (A) (A) (A) (A) (A)
                 (A) (A) (A) (A) (A) (A) (A) (A) (A) (A) (A) (A)
                 (A) (A) (A) (A) (A) (A) (A) (A) (A) (A) (A) (A)
                 (A) (A) (A) (A) (A) (A) (A) (A) (A) (A) (A) (A)
                 (A) (A) (A) (A) (A) (A) (A) (A) (A) (A) (A) (A)
                 (A) (A) (A) (A) (A) (A) (A) (A) (A) (A) (A) (A)
                 (A) (A) (A) (A) (A) (A) (A) (A) (A) (A) (A) (A)
                 (A) (A) (A) (A) (A) (A) (A) (A) (A) (A) (A) (A)
                 (A) (A) (A) (A) (A) (A) (A) (A) (A) (A) (A) (A)
                 (A) (A) (A) (A) (A) (A) (A) (A) (A) (A) (A) (A)
                 (A) (A) (A) (A) (A) (A) (A) (A) (A) (A) (A) (A)
                 (A) (A) (A) (A) (A) (A) (A) (A) (A) (A) (A) (A)
                 (A) (A) (A) (A) (A) (A) (A) (A) (A) (A) (A) (A)
                 (A) (A) (A) (A) (A) (A) (A) (A) (A) (A) (A) (A)
                 (A) (A) (A) (A) (A) (A) (A) (A) (A) (A) (A) (A)
                 (A) (A) (A) (A) (A) (A) (A) (A) (A) (A) (A) (A)
                 (A) (A) (A) (A) (A) (A) (A) (A) (A) (A) (A) (A)
                 (A) (A) (A) (A) (A) (A) (A) (A) (A) (A) (A) (A)
                 (A) (A) (A) (A) (A) (A) (A) (A) (A) (A) (A) (A)
                 (A) (A) (A) (A) (A) (A) (A) (A) (A) (A) (A) (A)
                 (A) (A)
 The electronic state is 1-A.
 Alpha  occ. eigenvalues --  -89.25742 -19.26510 -19.25697 -14.49850 -10.35332
 Alpha  occ. eigenvalues --  -10.33523 -10.32750 -10.32460 -10.32298 -10.31615
 Alpha  occ. eigenvalues --  -10.31504 -10.30880 -10.30330 -10.30195 -10.29833
 Alpha  occ. eigenvalues --  -10.29379 -10.29092  -8.27574  -6.22993  -6.22901
 Alpha  occ. eigenvalues --   -6.22770  -1.20516  -1.09088  -1.05595  -0.98802
 Alpha  occ. eigenvalues --   -0.95230  -0.90404  -0.86527  -0.85018  -0.84606
 Alpha  occ. eigenvalues --   -0.81222  -0.75837  -0.72702  -0.71675  -0.70397
 Alpha  occ. eigenvalues --   -0.68177  -0.64508  -0.63687  -0.60315  -0.58887
 Alpha  occ. eigenvalues --   -0.58230  -0.56435  -0.54962  -0.53888  -0.53496
 Alpha  occ. eigenvalues --   -0.53041  -0.52947  -0.52708  -0.51120  -0.49657
 Alpha  occ. eigenvalues --   -0.48663  -0.47659  -0.46416  -0.45765  -0.44367
 Alpha  occ. eigenvalues --   -0.44143  -0.43903  -0.41424  -0.40259  -0.39398
 Alpha  occ. eigenvalues --   -0.38147  -0.35513  -0.34627  -0.33746  -0.30518
 Alpha virt. eigenvalues --    0.02666   0.04299   0.05985   0.06516   0.10155
 Alpha virt. eigenvalues --    0.12783   0.14123   0.15056   0.15381   0.15613
 Alpha virt. eigenvalues --    0.16923   0.17342   0.18707   0.19318   0.20262
 Alpha virt. eigenvalues --    0.21054   0.21409   0.23342   0.23731   0.24045
 Alpha virt. eigenvalues --    0.24501   0.25689   0.28972   0.29450   0.32812
 Alpha virt. eigenvalues --    0.35048   0.36116   0.37026   0.37296   0.37607
 Alpha virt. eigenvalues --    0.38168   0.39382   0.40148   0.41006   0.43519
 Alpha virt. eigenvalues --    0.46440   0.47328   0.47775   0.48391   0.49115
 Alpha virt. eigenvalues --    0.49418   0.51225   0.51948   0.52272   0.54277
 Alpha virt. eigenvalues --    0.54398   0.55026   0.55485   0.56178   0.57107
 Alpha virt. eigenvalues --    0.58123   0.58635   0.59326   0.60148   0.61958
 Alpha virt. eigenvalues --    0.62957   0.63982   0.64571   0.64734   0.65963
 Alpha virt. eigenvalues --    0.67568   0.68925   0.70048   0.70941   0.71152
 Alpha virt. eigenvalues --    0.72490   0.72890   0.73036   0.73491   0.74231
 Alpha virt. eigenvalues --    0.74655   0.75374   0.75778   0.76534   0.76950
 Alpha virt. eigenvalues --    0.77063   0.77731   0.78838   0.79433   0.79993
 Alpha virt. eigenvalues --    0.81807   0.82157   0.82660   0.82978   0.83414
 Alpha virt. eigenvalues --    0.84217   0.84882   0.86341   0.88297   0.90042
 Alpha virt. eigenvalues --    0.90501   0.92358   0.92921   0.95806   0.96680
 Alpha virt. eigenvalues --    0.98173   0.99553   1.00260   1.02910   1.06686
 Alpha virt. eigenvalues --    1.09283   1.10363   1.11390   1.11994   1.14185
 Alpha virt. eigenvalues --    1.14374   1.15200   1.20473   1.21205   1.21895
 Alpha virt. eigenvalues --    1.25082   1.26034   1.26649   1.28179   1.30288
 Alpha virt. eigenvalues --    1.30885   1.31112   1.31724   1.32837   1.33122
 Alpha virt. eigenvalues --    1.34504   1.35556   1.36694   1.37406   1.38547
 Alpha virt. eigenvalues --    1.39546   1.40000   1.41572   1.44456   1.50767
 Alpha virt. eigenvalues --    1.55236   1.56464   1.57051   1.59990   1.60329
 Alpha virt. eigenvalues --    1.62286   1.62993   1.69820   1.75225   1.75975
 Alpha virt. eigenvalues --    1.76827   1.77934   1.78367   1.80388   1.81241
 Alpha virt. eigenvalues --    1.81787   1.82656   1.83849   1.84076   1.84453
 Alpha virt. eigenvalues --    1.84631   1.86346   1.86458   1.87229   1.87893
 Alpha virt. eigenvalues --    1.88121   1.88461   1.90562   1.91647   1.92947
 Alpha virt. eigenvalues --    1.93872   1.97366   1.97628   1.99125   2.02566
 Alpha virt. eigenvalues --    2.04232   2.04846   2.05001   2.06056   2.08204
 Alpha virt. eigenvalues --    2.10329   2.10760   2.13266   2.14023   2.15723
 Alpha virt. eigenvalues --    2.18485   2.20112   2.20907   2.21116   2.23142
 Alpha virt. eigenvalues --    2.24776   2.25666   2.29368   2.30264   2.31492
 Alpha virt. eigenvalues --    2.33137   2.34579   2.36050   2.38270   2.38737
 Alpha virt. eigenvalues --    2.40751   2.42469   2.43310   2.44850   2.45317
 Alpha virt. eigenvalues --    2.46139   2.51441   2.55117   2.56153   2.57394
 Alpha virt. eigenvalues --    2.59458   2.61564   2.68341   2.68956   2.71369
 Alpha virt. eigenvalues --    2.71873   2.73041   2.73183   2.73749   2.74160
 Alpha virt. eigenvalues --    2.74827   2.75316   2.76269   2.78869   2.82058
 Alpha virt. eigenvalues --    2.82889   2.83145   2.84433   2.85574   2.86452
 Alpha virt. eigenvalues --    2.91790   2.94448   2.94792   2.97334   2.99396
 Alpha virt. eigenvalues --    3.00441   3.00825   3.02110   3.02691   3.04719
 Alpha virt. eigenvalues --    3.06932   3.08575   3.22532   3.23553   3.25973
 Alpha virt. eigenvalues --    3.32085   3.33684   3.34720   3.45441   3.47080
 Alpha virt. eigenvalues --    3.69564   3.78736
          Condensed to atoms (all electrons):
               1          2          3          4          5          6
     1  O    8.162747   0.429826  -0.059290   0.006021  -0.000284  -0.000002
     2  S    0.429826  13.949155   0.210010  -0.040683  -0.000541  -0.000160
     3  N   -0.059290   0.210010   6.826884   0.264770  -0.067109   0.006675
     4  C    0.006021  -0.040683   0.264770   5.210684   0.262744   0.107825
     5  C   -0.000284  -0.000541  -0.067109   0.262744   5.131893   0.312941
     6  C   -0.000002  -0.000160   0.006675   0.107825   0.312941   5.006997
     7  C    0.000001   0.000025  -0.000526  -0.162622   0.085194   0.286226
     8  C   -0.000117  -0.001233   0.008010   0.106729  -0.145985   0.096044
     9  C   -0.000552   0.001968  -0.089989   0.255520   0.075907  -0.145677
    10  C   -0.070759   0.224709  -0.086947   0.008109  -0.000722  -0.000001
    11  C    0.004999  -0.024999  -0.002658  -0.000311  -0.000011   0.000000
    12  C    0.001563   0.003002  -0.000022  -0.000021   0.000001   0.000000
    13  C   -0.000037   0.000860  -0.000028   0.000004  -0.000000  -0.000000
    14  C    0.000000   0.000007  -0.000000  -0.000000   0.000000   0.000000
    15  C    0.000015  -0.001252  -0.000299   0.000036   0.000001  -0.000000
    16  C    0.004725  -0.041988   0.006136   0.000054   0.000079  -0.000000
    17  O   -0.028038   0.391001  -0.034041  -0.006549  -0.000088   0.000005
    18  H    0.012767  -0.007220   0.326078  -0.006123  -0.013196   0.000339
    19  H   -0.000014  -0.000127  -0.009387  -0.080897   0.451109  -0.059947
    20  H   -0.000000   0.000004  -0.000114   0.015558  -0.069561   0.453866
    21  H    0.000000   0.000000   0.000011  -0.001418   0.014382  -0.070419
    22  H   -0.000000  -0.000003  -0.000104   0.015210  -0.001947   0.014110
    23  H    0.000544  -0.008307  -0.014471  -0.071587   0.012799  -0.002151
    24  H    0.018163  -0.012588   0.000709  -0.000078   0.000002   0.000000
    25  H   -0.000009  -0.000160   0.000003  -0.000000   0.000000   0.000000
    26  H   -0.000000   0.000000  -0.000000   0.000000  -0.000000  -0.000000
    27  H    0.000000  -0.000000   0.000000  -0.000000   0.000000   0.000000
    28  H    0.000000  -0.000000   0.000000  -0.000000   0.000000  -0.000000
    29  H    0.000000  -0.000156  -0.000002  -0.000001   0.000000   0.000000
    30  H    0.000226  -0.005911   0.002588  -0.000056  -0.000011   0.000000
               7          8          9         10         11         12
     1  O    0.000001  -0.000117  -0.000552  -0.070759   0.004999   0.001563
     2  S    0.000025  -0.001233   0.001968   0.224709  -0.024999   0.003002
     3  N   -0.000526   0.008010  -0.089989  -0.086947  -0.002658  -0.000022
     4  C   -0.162622   0.106729   0.255520   0.008109  -0.000311  -0.000021
     5  C    0.085194  -0.145985   0.075907  -0.000722  -0.000011   0.000001
     6  C    0.286226   0.096044  -0.145677  -0.000001   0.000000   0.000000
     7  C    5.104630   0.272045   0.088872   0.000001  -0.000000  -0.000000
     8  C    0.272045   5.064120   0.251586  -0.000030   0.000001   0.000000
     9  C    0.088872   0.251586   5.233577  -0.000373  -0.000036   0.000000
    10  C    0.000001  -0.000030  -0.000373   5.766972   0.281059   0.086362
    11  C   -0.000000   0.000001  -0.000036   0.281059   5.053212   0.266189
    12  C   -0.000000   0.000000   0.000000   0.086362   0.266189   5.122101
    13  C    0.000000  -0.000000  -0.000000  -0.185319   0.101222   0.276356
    14  C   -0.000000   0.000000  -0.000000   0.000598   0.008798  -0.077606
    15  C    0.000000  -0.000000   0.000000   0.087829  -0.123643   0.051308
    16  C    0.000001   0.000000   0.000028   0.163274   0.043232  -0.122021
    17  O   -0.000037   0.002471  -0.020319  -0.055796  -0.001292  -0.000052
    18  H   -0.000043  -0.000058   0.003751   0.002407   0.001541  -0.000046
    19  H    0.014941  -0.002320   0.016944  -0.000002  -0.000006  -0.000000
    20  H   -0.069181   0.013805  -0.001894  -0.000000   0.000000   0.000000
    21  H    0.451537  -0.067831   0.014769   0.000000   0.000000  -0.000000
    22  H   -0.074048   0.457269  -0.066880  -0.000001   0.000000   0.000000
    23  H    0.013596  -0.049982   0.448319   0.001599  -0.000057  -0.000001
    24  H   -0.000000   0.000000   0.000001  -0.068412   0.447454  -0.053068
    25  H    0.000000  -0.000000   0.000000   0.016794  -0.066552   0.462160
    26  H    0.000000  -0.000000   0.000000   0.000130  -0.000022  -0.004645
    27  H   -0.000000   0.000000  -0.000000   0.000013   0.000660  -0.007427
    28  H   -0.000000  -0.000000  -0.000000  -0.000022  -0.000523   0.008351
    29  H   -0.000000  -0.000000   0.000000   0.016320  -0.001996   0.014633
    30  H   -0.000000  -0.000007  -0.000047  -0.081711   0.011571  -0.001346
              13         14         15         16         17         18
     1  O   -0.000037   0.000000   0.000015   0.004725  -0.028038   0.012767
     2  S    0.000860   0.000007  -0.001252  -0.041988   0.391001  -0.007220
     3  N   -0.000028  -0.000000  -0.000299   0.006136  -0.034041   0.326078
     4  C    0.000004  -0.000000   0.000036   0.000054  -0.006549  -0.006123
     5  C   -0.000000   0.000000   0.000001   0.000079  -0.000088  -0.013196
     6  C   -0.000000   0.000000  -0.000000  -0.000000   0.000005   0.000339
     7  C    0.000000  -0.000000   0.000000   0.000001  -0.000037  -0.000043
     8  C   -0.000000   0.000000  -0.000000   0.000000   0.002471  -0.000058
     9  C   -0.000000  -0.000000   0.000000   0.000028  -0.020319   0.003751
    10  C   -0.185319   0.000598   0.087829   0.163274  -0.055796   0.002407
    11  C    0.101222   0.008798  -0.123643   0.043232  -0.001292   0.001541
    12  C    0.276356  -0.077606   0.051308  -0.122021  -0.000052  -0.000046
    13  C    5.262169   0.406927   0.300991   0.085590  -0.000022   0.000009
    14  C    0.406927   4.549128  -0.076026   0.010930  -0.000000  -0.000000
    15  C    0.300991  -0.076026   5.038485   0.338009   0.000575  -0.000064
    16  C    0.085590   0.010930   0.338009   5.059584   0.006299  -0.001560
    17  O   -0.000022  -0.000000   0.000575   0.006299   8.158164   0.002606
    18  H    0.000009  -0.000000  -0.000064  -0.001560   0.002606   0.514602
    19  H    0.000000  -0.000000   0.000001   0.000021   0.000003   0.002989
    20  H   -0.000000  -0.000000  -0.000000  -0.000000  -0.000000  -0.000023
    21  H    0.000000   0.000000   0.000000   0.000000   0.000000  -0.000001
    22  H    0.000000  -0.000000  -0.000000   0.000000   0.000010   0.000013
    23  H    0.000001   0.000000   0.000002  -0.000113   0.036162  -0.000743
    24  H    0.013594  -0.000197  -0.001911   0.013570   0.000199   0.000046
    25  H   -0.078877  -0.012352   0.014339  -0.001986   0.000001  -0.000001
    26  H   -0.012867   0.389601  -0.001370  -0.000493   0.000000   0.000000
    27  H   -0.018189   0.391787   0.005813  -0.000515  -0.000000  -0.000000
    28  H   -0.018168   0.392718  -0.010379   0.000873   0.000000  -0.000000
    29  H   -0.073543  -0.014884   0.459072  -0.066454  -0.000004   0.000000
    30  H    0.014378  -0.000254  -0.048050   0.452586   0.005278   0.000079
              19         20         21         22         23         24
     1  O   -0.000014  -0.000000   0.000000  -0.000000   0.000544   0.018163
     2  S   -0.000127   0.000004   0.000000  -0.000003  -0.008307  -0.012588
     3  N   -0.009387  -0.000114   0.000011  -0.000104  -0.014471   0.000709
     4  C   -0.080897   0.015558  -0.001418   0.015210  -0.071587  -0.000078
     5  C    0.451109  -0.069561   0.014382  -0.001947   0.012799   0.000002
     6  C   -0.059947   0.453866  -0.070419   0.014110  -0.002151   0.000000
     7  C    0.014941  -0.069181   0.451537  -0.074048   0.013596  -0.000000
     8  C   -0.002320   0.013805  -0.067831   0.457269  -0.049982   0.000000
     9  C    0.016944  -0.001894   0.014769  -0.066880   0.448319   0.000001
    10  C   -0.000002  -0.000000   0.000000  -0.000001   0.001599  -0.068412
    11  C   -0.000006   0.000000   0.000000   0.000000  -0.000057   0.447454
    12  C   -0.000000   0.000000  -0.000000   0.000000  -0.000001  -0.053068
    13  C    0.000000  -0.000000   0.000000   0.000000   0.000001   0.013594
    14  C   -0.000000  -0.000000   0.000000  -0.000000   0.000000  -0.000197
    15  C    0.000001  -0.000000   0.000000  -0.000000   0.000002  -0.001911
    16  C    0.000021  -0.000000   0.000000   0.000000  -0.000113   0.013570
    17  O    0.000003  -0.000000   0.000000   0.000010   0.036162   0.000199
    18  H    0.002989  -0.000023  -0.000001   0.000013  -0.000743   0.000046
    19  H    0.687484  -0.013185  -0.000233   0.000023  -0.000080  -0.000001
    20  H   -0.013185   0.668932  -0.012391  -0.000258   0.000011   0.000000
    21  H   -0.000233  -0.012391   0.673290  -0.012024  -0.000186  -0.000000
    22  H    0.000023  -0.000258  -0.012024   0.664824  -0.012673  -0.000000
    23  H   -0.000080   0.000011  -0.000186  -0.012673   0.606150  -0.000010
    24  H   -0.000001   0.000000  -0.000000  -0.000000  -0.000010   0.618298
    25  H    0.000000   0.000000  -0.000000  -0.000000  -0.000000  -0.011135
    26  H   -0.000000  -0.000000  -0.000000  -0.000000  -0.000000   0.000001
    27  H    0.000000   0.000000   0.000000   0.000000   0.000000  -0.000002
    28  H    0.000000   0.000000   0.000000   0.000000  -0.000000   0.000007
    29  H   -0.000000   0.000000  -0.000000  -0.000000  -0.000000   0.000022
    30  H   -0.000001  -0.000000   0.000000   0.000000  -0.000164  -0.000233
              25         26         27         28         29         30
     1  O   -0.000009  -0.000000   0.000000   0.000000   0.000000   0.000226
     2  S   -0.000160   0.000000  -0.000000  -0.000000  -0.000156  -0.005911
     3  N    0.000003  -0.000000   0.000000   0.000000  -0.000002   0.002588
     4  C   -0.000000   0.000000  -0.000000  -0.000000  -0.000001  -0.000056
     5  C    0.000000  -0.000000   0.000000   0.000000   0.000000  -0.000011
     6  C    0.000000  -0.000000   0.000000  -0.000000   0.000000   0.000000
     7  C    0.000000   0.000000  -0.000000  -0.000000  -0.000000  -0.000000
     8  C   -0.000000  -0.000000   0.000000  -0.000000  -0.000000  -0.000007
     9  C    0.000000   0.000000  -0.000000  -0.000000   0.000000  -0.000047
    10  C    0.016794   0.000130   0.000013  -0.000022   0.016320  -0.081711
    11  C   -0.066552  -0.000022   0.000660  -0.000523  -0.001996   0.011571
    12  C    0.462160  -0.004645  -0.007427   0.008351   0.014633  -0.001346
    13  C   -0.078877  -0.012867  -0.018189  -0.018168  -0.073543   0.014378
    14  C   -0.012352   0.389601   0.391787   0.392718  -0.014884  -0.000254
    15  C    0.014339  -0.001370   0.005813  -0.010379   0.459072  -0.048050
    16  C   -0.001986  -0.000493  -0.000515   0.000873  -0.066454   0.452586
    17  O    0.000001   0.000000  -0.000000   0.000000  -0.000004   0.005278
    18  H   -0.000001   0.000000  -0.000000  -0.000000   0.000000   0.000079
    19  H    0.000000  -0.000000   0.000000   0.000000  -0.000000  -0.000001
    20  H    0.000000  -0.000000   0.000000   0.000000   0.000000  -0.000000
    21  H   -0.000000  -0.000000   0.000000   0.000000  -0.000000   0.000000
    22  H   -0.000000  -0.000000   0.000000   0.000000  -0.000000   0.000000
    23  H   -0.000000  -0.000000   0.000000  -0.000000  -0.000000  -0.000164
    24  H   -0.011135   0.000001  -0.000002   0.000007   0.000022  -0.000233
    25  H    0.665324   0.001084   0.003549   0.000130  -0.000224   0.000025
    26  H    0.001084   0.600307  -0.017100  -0.017690   0.000526   0.000005
    27  H    0.003549  -0.017100   0.613782  -0.021675   0.000198   0.000007
    28  H    0.000130  -0.017690  -0.021675   0.622507   0.005171   0.000004
    29  H   -0.000224   0.000526   0.000198   0.005171   0.664275  -0.011806
    30  H    0.000025   0.000005   0.000007   0.000004  -0.011806   0.636596
 Mulliken charges:
               1
     1  O   -0.482496
     2  S    0.934759
     3  N   -0.286887
     4  C    0.117083
     5  C   -0.047598
     6  C   -0.006671
     7  C   -0.010611
     8  C   -0.004517
     9  C   -0.065474
    10  C   -0.106080
    11  C    0.002170
    12  C   -0.025769
    13  C   -0.075049
    14  C    0.030824
    15  C   -0.033481
    16  C    0.050140
    17  O   -0.456537
    18  H    0.161851
    19  H   -0.007313
    20  H    0.014432
    21  H    0.010513
    22  H    0.016479
    23  H    0.041344
    24  H    0.035567
    25  H    0.007886
    26  H    0.062535
    27  H    0.049100
    28  H    0.038696
    29  H    0.008854
    30  H    0.026251
 Sum of Mulliken charges =  -0.00000
 Mulliken charges with hydrogens summed into heavy atoms:
               1
     1  O   -0.482496
     2  S    0.934759
     3  N   -0.125036
     4  C    0.117083
     5  C   -0.054912
     6  C    0.007761
     7  C   -0.000098
     8  C    0.011962
     9  C   -0.024130
    10  C   -0.106080
    11  C    0.037737
    12  C   -0.017883
    13  C   -0.075049
    14  C    0.181155
    15  C   -0.024627
    16  C    0.076391
    17  O   -0.456537
 APT charges:
               1
     1  O   -0.063740
     2  S    0.165497
     3  N   -0.383054
     4  C   -0.751715
     5  C   -0.377154
     6  C   -0.487180
     7  C   -0.644936
     8  C   -0.462401
     9  C   -0.330089
    10  C   -0.540829
    11  C   -0.358958
    12  C   -0.721133
    13  C    0.220392
    14  C   -1.072531
    15  C   -0.627427
    16  C   -0.333827
    17  O   -0.166002
    18  H    0.417587
    19  H    0.247871
    20  H    0.901170
    21  H    1.106382
    22  H    0.704926
    23  H    0.054247
    24  H    0.372569
    25  H    0.803637
    26  H    0.450122
    27  H    0.713674
    28  H    0.484989
    29  H    0.562857
    30  H    0.115058
 Sum of APT charges =  -0.00000
 APT charges with hydrogens summed into heavy atoms:
               1
     1  O   -0.063740
     2  S    0.165497
     3  N    0.034532
     4  C   -0.751715
     5  C   -0.129283
     6  C    0.413990
     7  C    0.461446
     8  C    0.242524
     9  C   -0.275842
    10  C   -0.540829
    11  C    0.013611
    12  C    0.082504
    13  C    0.220392
    14  C    0.576255
    15  C   -0.064571
    16  C   -0.218769
    17  O   -0.166002
 Electronic spatial extent (au):  <R**2>=           5527.8809
 Charge=             -0.0000 electrons
 Dipole moment (field-independent basis, Debye):
    X=              2.5664    Y=             -3.5358    Z=             -1.4194  Tot=              4.5938
 Quadrupole moment (field-independent basis, Debye-Ang):
   XX=            -85.0711   YY=           -111.6309   ZZ=           -105.0923
   XY=             -0.3425   XZ=             -1.2166   YZ=              0.5425
 Traceless Quadrupole moment (field-independent basis, Debye-Ang):
   XX=             15.5270   YY=            -11.0328   ZZ=             -4.4942
   XY=             -0.3425   XZ=             -1.2166   YZ=              0.5425
 Octapole moment (field-independent basis, Debye-Ang**2):
  XXX=             41.7330  YYY=             -4.0881  ZZZ=             -9.1475  XYY=             12.8091
  XXY=            -18.3933  XXZ=             -0.3411  XZZ=             -2.9233  YZZ=             -6.7632
  YYZ=              2.9761  XYZ=            -20.0499
 Hexadecapole moment (field-independent basis, Debye-Ang**3):
 XXXX=          -5532.7025 YYYY=           -917.0663 ZZZZ=           -505.9057 XXXY=              2.8852
 XXXZ=            -97.5427 YYYX=            -18.2158 YYYZ=             13.1836 ZZZX=             -5.2577
 ZZZY=              1.1659 XXYY=          -1132.1804 XXZZ=          -1088.2580 YYZZ=           -231.0530
 XXYZ=             17.2285 YYXZ=             20.8555 ZZXY=             -1.7537
 N-N= 1.294035389093D+03 E-N=-5.176836901453D+03  KE= 1.097924796492D+03
  Exact polarizability:       0.000       0.000       0.000       0.000       0.000       0.000
 Approx polarizability:     212.193       2.473     163.079     -20.670      -1.487     170.652
   1 Symmetry operations used in ECPInt.
 ECPInt:  NShTT=   10296 NPrTT=   38220 LenC2=    9195 LenP2D=   24140.
 LDataN:  DoStor=T MaxTD1= 6 Len=  172
 Calling FoFJK, ICntrl=    100127 FMM=F ISym2X=0 I1Cent= 0 IOpClX= 0 NMat=1 NMatS=1 NMatT=0.
 ***** Axes restored to original set *****
 -------------------------------------------------------------------
 Center     Atomic                   Forces (Hartrees/Bohr)
 Number     Number              X              Y              Z
 -------------------------------------------------------------------
      1        8           0.005271081   -0.031073512   -0.040852727
      2       16          -0.030415237    0.036553339   -0.002849430
      3        7          -0.002756573    0.018018696   -0.032461752
      4        6           0.032889890   -0.007356151   -0.002899018
      5        6          -0.015501313    0.005928801   -0.000406702
      6        6           0.003545494   -0.000298149   -0.000715595
      7        6           0.007632702   -0.000920395   -0.002103339
      8        6           0.004958211   -0.005195992    0.002657639
      9        6          -0.013455644    0.000918903    0.002555307
     10        6           0.011116020    0.010142954    0.002925524
     11        6          -0.001042456    0.009704859    0.008000517
     12        6           0.001323553   -0.001273971   -0.002210894
     13        6          -0.003938542   -0.002080295    0.001495123
     14        6          -0.003517474   -0.000558798   -0.003692486
     15        6           0.002628296    0.002493392    0.000560711
     16        6           0.004492474   -0.007101789   -0.009321264
     17        8          -0.007734697   -0.013042550    0.053689409
     18        1          -0.001217257   -0.005111129    0.022787045
     19        1          -0.004702804   -0.006853398    0.010192139
     20        1           0.004806987   -0.006768567    0.006355058
     21        1           0.010301911   -0.001838343   -0.001931923
     22        1           0.003161804    0.005528620   -0.007975985
     23        1           0.000381874    0.005406610   -0.006191058
     24        1           0.001583636    0.008184981    0.006399164
     25        1          -0.007909872    0.005564806    0.006782947
     26        1          -0.001726466   -0.004264466    0.006042518
     27        1          -0.005138729    0.003738137    0.001214704
     28        1          -0.001113511   -0.004153750   -0.004108356
     29        1          -0.000866408   -0.009000425   -0.007425901
     30        1           0.006943051   -0.005292419   -0.006511374
 -------------------------------------------------------------------
 Cartesian Forces:  Max     0.053689409 RMS     0.012270273
 FormGI is forming the generalized inverse of G from B-inverse, IUseBI=4.

 GradGradGradGradGradGradGradGradGradGradGradGradGradGradGradGradGradGrad
 Berny optimization.
 Internal  Forces:  Max     0.059034062 RMS     0.010725303
 Search for a local minimum.
 Step number   1 out of a maximum of  162
 All quantities printed in internal units (Hartrees-Bohrs-Radians)
 Mixed Optimization -- RFO/linear search
 Second derivative matrix not updated -- analytic derivatives used.
 ITU=  0
     Eigenvalues ---   -0.01453  -0.00453  -0.00023   0.00129   0.01461
     Eigenvalues ---    0.01637   0.01770   0.01843   0.01866   0.01961
     Eigenvalues ---    0.02008   0.02104   0.02252   0.02447   0.02473
     Eigenvalues ---    0.02487   0.02710   0.02749   0.02958   0.03005
     Eigenvalues ---    0.03022   0.03074   0.03189   0.05650   0.05773
     Eigenvalues ---    0.08991   0.11328   0.11464   0.11698   0.11750
     Eigenvalues ---    0.11803   0.12081   0.12349   0.12449   0.12460
     Eigenvalues ---    0.12843   0.13166   0.13478   0.14623   0.14922
     Eigenvalues ---    0.16220   0.16705   0.17440   0.18767   0.18902
     Eigenvalues ---    0.19577   0.19644   0.20152   0.20419   0.21024
     Eigenvalues ---    0.21402   0.21939   0.24600   0.31768   0.32722
     Eigenvalues ---    0.33709   0.35952   0.36499   0.36620   0.36843
     Eigenvalues ---    0.39140   0.39396   0.39458   0.39543   0.39598
     Eigenvalues ---    0.39710   0.39762   0.39784   0.39871   0.40220
     Eigenvalues ---    0.44900   0.46226   0.46428   0.46581   0.47477
     Eigenvalues ---    0.48496   0.51704   0.52638   0.52980   0.53225
     Eigenvalues ---    0.53826   0.57012   0.57101   1.12168
 RFO step:  Lambda=-3.57042881D-02 EMin=-1.45302626D-02
 Linear search not attempted -- first point.
 Maximum step size (   0.300) exceeded in Quadratic search.
    -- Step size scaled by   0.860
 Iteration  1 RMS(Cart)=  0.25957409 RMS(Int)=  0.02521729
 Iteration  2 RMS(Cart)=  0.09640177 RMS(Int)=  0.00254672
 Iteration  3 RMS(Cart)=  0.00504397 RMS(Int)=  0.00077613
 Iteration  4 RMS(Cart)=  0.00001342 RMS(Int)=  0.00077611
 Iteration  5 RMS(Cart)=  0.00000002 RMS(Int)=  0.00077611
 Variable       Old X    -DE/DX   Delta X   Delta X   Delta X     New X
                                 (Linear)    (Quad)   (Total)
    R1        2.83879  -0.05103   0.00000  -0.09101  -0.09101   2.74778
    R2        3.22400   0.00947   0.00000  -0.04517  -0.04517   3.17883
    R3        3.39415  -0.00514   0.00000  -0.02506  -0.02506   3.36909
    R4        2.83796  -0.05558   0.00000  -0.09333  -0.09333   2.74463
    R5        2.63785   0.03432   0.00000   0.04637   0.04637   2.68422
    R6        1.88407   0.02194   0.00000   0.03101   0.03101   1.91507
    R7        2.64753   0.00409   0.00000   0.00074   0.00078   2.64831
    R8        2.64771   0.00678   0.00000   0.00089   0.00094   2.64865
    R9        2.59858   0.01569   0.00000   0.02240   0.02240   2.62098
   R10        2.03281   0.01310   0.00000   0.02465   0.02465   2.05746
   R11        2.60893   0.01070   0.00000   0.02009   0.02004   2.62897
   R12        2.03634   0.01041   0.00000   0.02097   0.02097   2.05732
   R13        2.60831   0.01213   0.00000   0.01778   0.01773   2.62604
   R14        2.03620   0.01064   0.00000   0.02036   0.02036   2.05656
   R15        2.59629   0.01976   0.00000   0.02961   0.02960   2.62590
   R16        2.03647   0.01012   0.00000   0.02074   0.02074   2.05721
   R17        2.03016   0.00665   0.00000   0.02116   0.02116   2.05131
   R18        2.59628   0.01708   0.00000   0.02561   0.02562   2.62190
   R19        2.59626   0.01928   0.00000   0.03016   0.03017   2.62643
   R20        2.60801   0.01233   0.00000   0.01876   0.01876   2.62677
   R21        2.03678   0.01050   0.00000   0.01952   0.01952   2.05630
   R22        2.62150   0.01463   0.00000   0.01847   0.01846   2.63996
   R23        2.03399   0.01173   0.00000   0.02353   0.02353   2.05752
   R24        2.81180   0.01264   0.00000   0.02468   0.02468   2.83648
   R25        2.62269   0.01555   0.00000   0.02200   0.02199   2.64468
   R26        2.06041   0.00756   0.00000   0.01670   0.01670   2.07711
   R27        2.06057   0.00630   0.00000   0.01270   0.01270   2.07328
   R28        2.06038   0.00584   0.00000   0.01235   0.01235   2.07272
   R29        2.60839   0.01007   0.00000   0.01362   0.01363   2.62201
   R30        2.03387   0.01163   0.00000   0.02348   0.02348   2.05735
   R31        2.03633   0.01073   0.00000   0.01973   0.01973   2.05606
    A1        1.85618  -0.00009   0.00000   0.06823   0.06705   1.92323
    A2        1.87478  -0.00021   0.00000   0.00693   0.00453   1.87930
    A3        2.13218  -0.00198   0.00000   0.00310   0.00222   2.13440
    A4        1.68113   0.01587   0.00000   0.04380   0.04336   1.72449
    A5        2.01076  -0.00918   0.00000  -0.14131  -0.14140   1.86936
    A6        1.85027   0.00063   0.00000   0.03718   0.03864   1.88891
    A7        2.06370   0.05903   0.00000   0.05351   0.05185   2.11556
    A8        1.76827  -0.01182   0.00000   0.09981   0.09950   1.86777
    A9        2.00015  -0.02114   0.00000  -0.05490  -0.05969   1.94046
   A10        2.07771  -0.02568   0.00000  -0.04857  -0.04892   2.02879
   A11        2.15624   0.02384   0.00000   0.02603   0.02559   2.18183
   A12        2.04917   0.00183   0.00000   0.02304   0.02278   2.07195
   A13        2.11373   0.00289   0.00000  -0.00508  -0.00504   2.10869
   A14        2.06847  -0.00031   0.00000   0.00684   0.00682   2.07529
   A15        2.10098  -0.00257   0.00000  -0.00177  -0.00181   2.09917
   A16        2.09835   0.00028   0.00000  -0.00035  -0.00040   2.09795
   A17        2.09258  -0.00116   0.00000  -0.00492  -0.00490   2.08768
   A18        2.09226   0.00089   0.00000   0.00527   0.00529   2.09755
   A19        2.09191  -0.00544   0.00000  -0.00930  -0.00940   2.08251
   A20        2.09575   0.00234   0.00000   0.00448   0.00452   2.10027
   A21        2.09552   0.00310   0.00000   0.00483   0.00486   2.10038
   A22        2.09669   0.00482   0.00000   0.01445   0.01439   2.11108
   A23        2.09386  -0.00104   0.00000  -0.00000   0.00000   2.09386
   A24        2.09264  -0.00378   0.00000  -0.01444  -0.01443   2.07821
   A25        2.11649  -0.00438   0.00000  -0.02254  -0.02247   2.09402
   A26        2.07084   0.00708   0.00000   0.02517   0.02513   2.09597
   A27        2.09584  -0.00271   0.00000  -0.00264  -0.00267   2.09317
   A28        2.09084  -0.00265   0.00000  -0.00825  -0.00828   2.08256
   A29        2.09170  -0.00127   0.00000  -0.00234  -0.00238   2.08932
   A30        2.10064   0.00392   0.00000   0.01060   0.01059   2.11123
   A31        2.09319  -0.00421   0.00000  -0.01136  -0.01136   2.08184
   A32        2.07775   0.00260   0.00000   0.00709   0.00709   2.08484
   A33        2.11224   0.00161   0.00000   0.00427   0.00427   2.11651
   A34        2.10399   0.00225   0.00000   0.00716   0.00715   2.11114
   A35        2.09682  -0.00251   0.00000  -0.01011  -0.01010   2.08672
   A36        2.08237   0.00026   0.00000   0.00295   0.00296   2.08533
   A37        2.10114   0.00016   0.00000   0.00350   0.00350   2.10464
   A38        2.07175  -0.00030   0.00000  -0.00261  -0.00262   2.06912
   A39        2.11002   0.00014   0.00000  -0.00089  -0.00089   2.10913
   A40        1.93352   0.00024   0.00000  -0.00292  -0.00292   1.93060
   A41        1.93679   0.00100   0.00000   0.00540   0.00539   1.94218
   A42        1.94239   0.00099   0.00000   0.00254   0.00252   1.94491
   A43        1.88561  -0.00133   0.00000  -0.00625  -0.00624   1.87937
   A44        1.88427  -0.00090   0.00000  -0.00496  -0.00496   1.87932
   A45        1.87897  -0.00012   0.00000   0.00590   0.00586   1.88483
   A46        2.10484   0.00231   0.00000   0.00731   0.00730   2.11215
   A47        2.08320   0.00012   0.00000   0.00140   0.00141   2.08461
   A48        2.09514  -0.00243   0.00000  -0.00871  -0.00871   2.08643
   A49        2.09190  -0.00396   0.00000  -0.01103  -0.01102   2.08088
   A50        2.08154   0.00385   0.00000   0.00899   0.00899   2.09053
   A51        2.10974   0.00010   0.00000   0.00204   0.00203   2.11177
    D1       -1.73018   0.00818   0.00000   0.24412   0.24285  -1.48734
    D2        0.47089   0.00881   0.00000   0.28774   0.29054   0.76143
    D3        2.62853   0.00282   0.00000   0.20579   0.20201   2.83054
    D4       -1.45359   0.00344   0.00000   0.24941   0.24970  -1.20388
    D5        0.69064  -0.00384   0.00000   0.18161   0.18056   0.87120
    D6        2.89171  -0.00322   0.00000   0.22523   0.22826   3.11997
    D7        0.12320  -0.00277   0.00000  -0.03630  -0.03631   0.08690
    D8       -3.01815  -0.00343   0.00000  -0.04913  -0.04907  -3.06723
    D9        2.03201   0.00298   0.00000   0.05473   0.05470   2.08671
   D10       -1.10935   0.00231   0.00000   0.04189   0.04194  -1.06741
   D11       -2.18246  -0.00059   0.00000  -0.07017  -0.07024  -2.25269
   D12        0.95937  -0.00126   0.00000  -0.08300  -0.08300   0.87637
   D13        2.86545   0.00627   0.00000   0.28157   0.27987  -3.13786
   D14       -0.28819   0.00558   0.00000   0.33248   0.33022   0.04203
   D15        0.78159  -0.00751   0.00000   0.14502   0.14729   0.92888
   D16       -2.37205  -0.00820   0.00000   0.19593   0.19763  -2.17442
   D17        3.13816  -0.00036   0.00000   0.02681   0.02583  -3.11919
   D18       -0.00166  -0.00035   0.00000   0.03324   0.03246   0.03080
   D19        0.00789   0.00012   0.00000  -0.02105  -0.02124  -0.01336
   D20       -3.13193   0.00014   0.00000  -0.01462  -0.01462   3.13664
   D21       -3.13857   0.00098   0.00000  -0.02074  -0.02194   3.12268
   D22       -0.00229   0.00082   0.00000  -0.02367  -0.02462  -0.02691
   D23       -0.00885   0.00012   0.00000   0.02894   0.02909   0.02025
   D24        3.12743  -0.00004   0.00000   0.02600   0.02641  -3.12935
   D25       -0.00210  -0.00020   0.00000   0.00074   0.00038  -0.00173
   D26        3.13902  -0.00006   0.00000   0.00441   0.00432  -3.13985
   D27        3.13768  -0.00021   0.00000  -0.00581  -0.00633   3.13135
   D28       -0.00438  -0.00007   0.00000  -0.00213  -0.00239  -0.00677
   D29       -0.00305   0.00010   0.00000   0.01294   0.01299   0.00995
   D30        3.13949   0.00009   0.00000   0.00426   0.00441  -3.13929
   D31        3.13901  -0.00004   0.00000   0.00926   0.00904  -3.13514
   D32       -0.00164  -0.00005   0.00000   0.00058   0.00045  -0.00119
   D33        0.00211   0.00011   0.00000  -0.00523  -0.00502  -0.00291
   D34       -3.13922  -0.00007   0.00000  -0.01512  -0.01513   3.12884
   D35       -3.14043   0.00013   0.00000   0.00345   0.00356  -3.13686
   D36        0.00143  -0.00005   0.00000  -0.00644  -0.00654  -0.00511
   D37        0.00400  -0.00023   0.00000  -0.01631  -0.01636  -0.01235
   D38       -3.13220  -0.00010   0.00000  -0.01342  -0.01376   3.13723
   D39       -3.13786  -0.00005   0.00000  -0.00643  -0.00634   3.13899
   D40        0.00913   0.00009   0.00000  -0.00354  -0.00374   0.00538
   D41        3.14073  -0.00044   0.00000  -0.01012  -0.01012   3.13061
   D42        0.00032  -0.00045   0.00000  -0.00840  -0.00840  -0.00808
   D43       -0.00110   0.00023   0.00000   0.00278   0.00281   0.00171
   D44       -3.14151   0.00022   0.00000   0.00450   0.00453  -3.13698
   D45       -3.14105   0.00040   0.00000   0.00880   0.00885  -3.13220
   D46       -0.00228   0.00043   0.00000   0.00840   0.00844   0.00616
   D47        0.00078  -0.00027   0.00000  -0.00410  -0.00413  -0.00335
   D48        3.13955  -0.00024   0.00000  -0.00450  -0.00454   3.13501
   D49       -0.00461   0.00010   0.00000   0.00294   0.00295  -0.00167
   D50        3.13793   0.00010   0.00000   0.00302   0.00302   3.14095
   D51        3.13577   0.00011   0.00000   0.00118   0.00120   3.13697
   D52       -0.00487   0.00011   0.00000   0.00126   0.00127  -0.00360
   D53        3.12683  -0.00016   0.00000  -0.00744  -0.00744   3.11938
   D54        0.01043  -0.00038   0.00000  -0.00720  -0.00721   0.00322
   D55       -0.01571  -0.00017   0.00000  -0.00752  -0.00752  -0.02323
   D56       -3.13211  -0.00039   0.00000  -0.00729  -0.00729  -3.13939
   D57       -1.36295   0.00006   0.00000  -0.08646  -0.08646  -1.44941
   D58        0.73160  -0.00080   0.00000  -0.09269  -0.09271   0.63890
   D59        2.82367   0.00039   0.00000  -0.07994  -0.07992   2.74375
   D60        1.75290   0.00028   0.00000  -0.08673  -0.08672   1.66617
   D61       -2.43574  -0.00058   0.00000  -0.09295  -0.09297  -2.52871
   D62       -0.34368   0.00060   0.00000  -0.08020  -0.08019  -0.42386
   D63       -0.01075   0.00033   0.00000   0.00586   0.00585  -0.00490
   D64        3.13213   0.00037   0.00000   0.00728   0.00728   3.13941
   D65       -3.12702   0.00011   0.00000   0.00603   0.00602  -3.12100
   D66        0.01587   0.00015   0.00000   0.00745   0.00745   0.02331
   D67        0.00525  -0.00001   0.00000  -0.00027  -0.00027   0.00498
   D68       -3.13347  -0.00005   0.00000   0.00012   0.00013  -3.13334
   D69       -3.13764  -0.00005   0.00000  -0.00169  -0.00169  -3.13933
   D70        0.00682  -0.00009   0.00000  -0.00129  -0.00129   0.00553
         Item               Value     Threshold  Converged?
 Maximum Force            0.059034     0.000450     NO 
 RMS     Force            0.010725     0.000300     NO 
 Maximum Displacement     1.260611     0.001800     NO 
 RMS     Displacement     0.335043     0.001200     NO 
 Predicted change in Energy=-2.367496D-02
 GradGradGradGradGradGradGradGradGradGradGradGradGradGradGradGradGradGrad

                          Input orientation:                          
 ---------------------------------------------------------------------
 Center     Atomic      Atomic             Coordinates (Angstroms)
 Number     Number       Type             X           Y           Z
 ---------------------------------------------------------------------
      1          8           0        0.043143    2.146803    0.573461
      2         16           0       -0.001858    0.985565   -0.300496
      3          7           0        0.883944   -0.278752    0.367731
      4          6           0        2.286412   -0.381426    0.167338
      5          6           0        2.919411   -1.478377    0.767346
      6          6           0        4.290279   -1.656599    0.654968
      7          6           0        5.058331   -0.743960   -0.060990
      8          6           0        4.439401    0.351703   -0.650520
      9          6           0        3.067949    0.544494   -0.537193
     10          6           0       -1.631738    0.274487   -0.172414
     11          6           0       -2.597590    0.921226    0.585126
     12          6           0       -3.871855    0.372967    0.673665
     13          6           0       -4.190909   -0.814611    0.010723
     14          6           0       -5.561269   -1.414329    0.135045
     15          6           0       -3.196843   -1.446795   -0.744783
     16          6           0       -1.921863   -0.908188   -0.842326
     17          8           0        0.352546    1.058853   -1.707081
     18          1           0        0.651264   -0.315381    1.353390
     19          1           0        2.315906   -2.197038    1.319348
     20          1           0        4.761521   -2.516709    1.127597
     21          1           0        6.133843   -0.882857   -0.152350
     22          1           0        5.031920    1.078802   -1.203114
     23          1           0        2.602319    1.408448   -1.000984
     24          1           0       -2.344843    1.848186    1.095935
     25          1           0       -4.633134    0.876376    1.267388
     26          1           0       -5.640320   -2.011738    1.054289
     27          1           0       -6.334057   -0.636607    0.175615
     28          1           0       -5.788465   -2.073884   -0.711373
     29          1           0       -3.429153   -2.374131   -1.265698
     30          1           0       -1.151482   -1.395936   -1.435963
 ---------------------------------------------------------------------
                    Distance matrix (angstroms):
                    1          2          3          4          5
     1  O    0.000000
     2  S    1.454063   0.000000
     3  N    2.575381   1.682162   0.000000
     4  C    3.404282   2.706236   1.420428   0.000000
     5  C    4.631677   3.968010   2.396229   1.401427   0.000000
     6  C    5.701813   5.129949   3.685659   2.424733   1.386965
     7  C    5.823328   5.352955   4.222052   2.804835   2.408420
     8  C    4.903835   4.499898   3.751744   2.416968   2.769460
     9  C    3.598666   3.110351   2.503297   1.401603   2.411616
    10  C    2.620520   1.782848   2.631822   3.987173   4.966753
    11  C    2.911297   2.743409   3.688942   5.071975   6.019020
    12  C    4.299272   4.037467   4.809985   6.224927   7.039711
    13  C    5.197484   4.570081   5.115538   6.493678   7.181205
    14  C    6.654570   6.070934   6.548622   7.915430   8.504460
    15  C    5.014900   4.040012   4.388033   5.659775   6.300483
    16  C    3.898548   2.750692   3.119773   4.359642   5.133624
    17  O    2.545632   1.452397   2.525157   3.054127   4.375971
    18  H    2.653385   2.203263   1.013413   2.021086   2.615434
    19  H    4.958907   4.257333   2.576026   2.150452   1.088760
    20  H    6.657215   6.082364   4.541085   3.407007   2.145061
    21  H    6.841219   6.415588   5.310072   3.893117   3.396036
    22  H    5.402290   5.114912   4.638556   3.398267   3.858053
    23  H    3.094096   2.729698   2.769989   2.160654   3.400190
    24  H    2.462647   2.860719   3.934363   5.223216   6.235893
    25  H    4.895211   4.890695   5.708052   7.118447   7.926906
    26  H    7.058782   6.527750   6.785324   8.141110   8.581130
    27  H    6.969529   6.553997   7.229420   8.624249   9.310499
    28  H    7.312499   6.558496   6.993426   8.296998   8.852589
    29  H    5.989840   4.895460   5.065719   6.220301   6.726061
    30  H    4.244516   2.877928   2.940131   3.926693   4.629636
[...]
     2  S    0.000428  -0.000048  -0.009340   0.308064  -0.052447   0.006865
     3  N    0.002743   0.000670  -0.002682  -0.039288  -0.003276   0.001171
     4  C   -0.089952   0.010105   0.422343  -0.006296  -0.002365   0.000207
     5  C    0.019841  -0.077054   0.017722  -0.000098   0.000585  -0.000039
     6  C    0.453091   0.012524  -0.075745  -0.000042   0.000026  -0.000001
     7  C    4.951026   0.427562   0.038922   0.000062  -0.000003  -0.000000
     8  C    0.427562   4.924085   0.424545  -0.000347   0.000011   0.000000
     9  C    0.038922   0.424545   5.048276   0.002384  -0.000404   0.000017
    10  C    0.000062  -0.000347   0.002384   5.340704   0.267140   0.046371
    11  C   -0.000003   0.000011  -0.000404   0.267140   5.204793   0.337035
    12  C   -0.000000   0.000000   0.000017   0.046371   0.337035   5.095804
    13  C    0.000000  -0.000000   0.000003  -0.102537   0.046406   0.439251
    14  C    0.000000  -0.000000  -0.000000  -0.005372   0.018076  -0.074443
    15  C    0.000000   0.000002  -0.000042   0.033362  -0.074405  -0.002961
    16  C   -0.000008   0.000055  -0.000583   0.396583  -0.042847  -0.050410
    17  O    0.000189  -0.000979   0.003575  -0.064104   0.007190  -0.000720
    18  H    0.000073  -0.000512   0.001485   0.003971   0.000701  -0.000267
    19  H    0.007696  -0.002175   0.008101  -0.000017   0.000013  -0.000002
    20  H   -0.057631   0.011371  -0.004228  -0.000002  -0.000000   0.000000
    21  H    0.443334  -0.056909   0.011737   0.000000  -0.000000   0.000000
    22  H   -0.057742   0.443111  -0.056778  -0.000002   0.000000  -0.000000
    23  H    0.006881  -0.038087   0.416480  -0.001050  -0.000111   0.000000
    24  H   -0.000000   0.000001  -0.000021  -0.046538   0.437933  -0.052233
    25  H   -0.000000   0.000000  -0.000000   0.011044  -0.046614   0.436781
    26  H   -0.000000   0.000000  -0.000000   0.000235  -0.000888   0.003133
    27  H   -0.000000   0.000000  -0.000000  -0.000224   0.002912  -0.005741
    28  H    0.000000  -0.000000   0.000000   0.000229  -0.000898  -0.003761
    29  H   -0.000000   0.000000  -0.000001   0.010987  -0.003499   0.011936
    30  H   -0.000000   0.000014   0.000247  -0.052416   0.013514  -0.003993
              13         14         15         16         17         18
     1  O    0.000156   0.000000  -0.000631   0.007784  -0.049058   0.000920
     2  S   -0.001255  -0.000002   0.006896  -0.014331   0.539417  -0.010549
     3  N   -0.000954  -0.000013  -0.000811   0.002983  -0.052647   0.361715
     4  C   -0.000082  -0.000001   0.000172   0.002080  -0.012509  -0.065878
     5  C    0.000012   0.000000  -0.000007  -0.000284   0.001786   0.014732
     6  C    0.000000   0.000000  -0.000001   0.000006   0.000015   0.002190
     7  C    0.000000   0.000000   0.000000  -0.000008   0.000189   0.000073
     8  C   -0.000000  -0.000000   0.000002   0.000055  -0.000979  -0.000512
     9  C    0.000003  -0.000000  -0.000042  -0.000583   0.003575   0.001485
    10  C   -0.102537  -0.005372   0.033362   0.396583  -0.064104   0.003971
    11  C    0.046406   0.018076  -0.074405  -0.042847   0.007190   0.000701
    12  C    0.439251  -0.074443  -0.002961  -0.050410  -0.000720  -0.000267
    13  C    4.969668   0.296995   0.394255   0.017698   0.000195   0.000113
    14  C    0.296995   4.957772  -0.070143   0.008949   0.000001   0.000001
    15  C    0.394255  -0.070143   5.098805   0.399096   0.002033  -0.000106
    16  C    0.017698   0.008949   0.399096   5.028140   0.021757  -0.000741
    17  O    0.000195   0.000001   0.002033   0.021757   8.050280   0.002776
    18  H    0.000113   0.000001  -0.000106  -0.000741   0.002776   0.448893
    19  H    0.000001   0.000000   0.000000  -0.000004  -0.000006   0.004370
    20  H   -0.000000  -0.000000  -0.000000   0.000000  -0.000001  -0.000070
    21  H   -0.000000   0.000000   0.000000  -0.000000   0.000001  -0.000003
    22  H   -0.000000  -0.000000  -0.000000  -0.000000  -0.000087   0.000017
    23  H    0.000003   0.000000   0.000023   0.000589   0.007250  -0.000237
    24  H    0.009676   0.000028  -0.002978   0.008467   0.000713   0.000290
    25  H   -0.056712  -0.009160   0.013219  -0.003157   0.000003  -0.000006
    26  H   -0.041796   0.417494  -0.006185   0.000710   0.000000  -0.000000
    27  H   -0.059735   0.429756   0.008802  -0.000188   0.000000  -0.000000
    28  H   -0.024640   0.398189  -0.003382  -0.000289  -0.000000   0.000000
    29  H   -0.061155  -0.003404   0.446453  -0.052796  -0.000022   0.000002
    30  H    0.010602   0.000008  -0.056416   0.438590   0.008845   0.000021
              19         20         21         22         23         24
     1  O    0.000223  -0.000005   0.000000  -0.000002   0.000537   0.015539
     2  S    0.000190  -0.000015   0.000002  -0.000003  -0.001868  -0.006221
     3  N    0.000676  -0.000320   0.000017  -0.000199   0.000579   0.000678
     4  C   -0.066953   0.014395  -0.003892   0.013407  -0.033029  -0.000547
     5  C    0.425287  -0.054266   0.012093  -0.003088   0.007390   0.000086
     6  C   -0.024134   0.438653  -0.056672   0.010540  -0.002167   0.000005
     7  C    0.007696  -0.057631   0.443334  -0.057742   0.006881  -0.000000
     8  C   -0.002175   0.011371  -0.056909   0.443111  -0.038087   0.000001
     9  C    0.008101  -0.004228   0.011737  -0.056778   0.416480  -0.000021
    10  C   -0.000017  -0.000002   0.000000  -0.000002  -0.001050  -0.046538
    11  C    0.000013  -0.000000  -0.000000   0.000000  -0.000111   0.437933
    12  C   -0.000002   0.000000   0.000000  -0.000000   0.000000  -0.052233
    13  C    0.000001  -0.000000  -0.000000  -0.000000   0.000003   0.009676
    14  C    0.000000  -0.000000   0.000000  -0.000000   0.000000   0.000028
    15  C    0.000000  -0.000000   0.000000  -0.000000   0.000023  -0.002978
    16  C   -0.000004   0.000000  -0.000000  -0.000000   0.000589   0.008467
    17  O   -0.000006  -0.000001   0.000001  -0.000087   0.007250   0.000713
    18  H    0.004370  -0.000070  -0.000003   0.000017  -0.000237   0.000290
    19  H    0.540333  -0.007250  -0.000130   0.000034  -0.000113   0.000000
    20  H   -0.007250   0.544869  -0.006760  -0.000121   0.000024  -0.000000
    21  H   -0.000130  -0.006760   0.543125  -0.006924  -0.000055  -0.000000
    22  H    0.000034  -0.000121  -0.006924   0.540709  -0.006035   0.000000
    23  H   -0.000113   0.000024  -0.000055  -0.006035   0.485290  -0.000005
    24  H    0.000000  -0.000000  -0.000000   0.000000  -0.000005   0.470814
    25  H   -0.000000   0.000000  -0.000000   0.000000   0.000000  -0.005226
    26  H   -0.000000   0.000000  -0.000000   0.000000  -0.000000   0.000002
    27  H    0.000000  -0.000000  -0.000000  -0.000000  -0.000000  -0.000016
    28  H    0.000000   0.000000   0.000000  -0.000000   0.000000   0.000005
    29  H   -0.000000   0.000000  -0.000000   0.000000  -0.000002   0.000027
    30  H    0.000001   0.000000  -0.000000  -0.000000   0.000463   0.000001
              25         26         27         28         29         30
     1  O   -0.000023   0.000000   0.000000  -0.000000   0.000003   0.000394
     2  S   -0.000157   0.000001  -0.000000  -0.000001  -0.000111  -0.004432
     3  N    0.000015   0.000000  -0.000000   0.000000   0.000016   0.000290
     4  C    0.000003   0.000000  -0.000000  -0.000000   0.000001  -0.000283
     5  C   -0.000000  -0.000000   0.000000  -0.000000   0.000000  -0.000007
     6  C   -0.000000   0.000000   0.000000  -0.000000   0.000000  -0.000001
     7  C   -0.000000  -0.000000  -0.000000   0.000000  -0.000000  -0.000000
     8  C    0.000000   0.000000   0.000000  -0.000000   0.000000   0.000014
     9  C   -0.000000  -0.000000  -0.000000   0.000000  -0.000001   0.000247
    10  C    0.011044   0.000235  -0.000224   0.000229   0.010987  -0.052416
    11  C   -0.046614  -0.000888   0.002912  -0.000898  -0.003499   0.013514
    12  C    0.436781   0.003133  -0.005741  -0.003761   0.011936  -0.003993
    13  C   -0.056712  -0.041796  -0.059735  -0.024640  -0.061155   0.010602
    14  C   -0.009160   0.417494   0.429756   0.398189  -0.003404   0.000008
    15  C    0.013219  -0.006185   0.008802  -0.003382   0.446453  -0.056416
    16  C   -0.003157   0.000710  -0.000188  -0.000289  -0.052796   0.438590
    17  O    0.000003   0.000000   0.000000  -0.000000  -0.000022   0.008845
    18  H   -0.000006  -0.000000  -0.000000   0.000000   0.000002   0.000021
    19  H   -0.000000  -0.000000   0.000000   0.000000  -0.000000   0.000001
    20  H    0.000000   0.000000  -0.000000   0.000000   0.000000   0.000000
    21  H   -0.000000  -0.000000  -0.000000   0.000000  -0.000000  -0.000000
    22  H    0.000000   0.000000  -0.000000  -0.000000   0.000000  -0.000000
    23  H    0.000000  -0.000000  -0.000000   0.000000  -0.000002   0.000463
    24  H   -0.005226   0.000002  -0.000016   0.000005   0.000027   0.000001
    25  H    0.531465   0.000076   0.002125   0.000147  -0.000062   0.000027
    26  H    0.000076   0.542280  -0.021712  -0.028220   0.000098  -0.000015
    27  H    0.002125  -0.021712   0.536765  -0.019589   0.000090   0.000006
    28  H    0.000147  -0.028220  -0.019589   0.542244   0.000018  -0.000003
    29  H   -0.000062   0.000098   0.000090   0.000018   0.529199  -0.006214
    30  H    0.000027  -0.000015   0.000006  -0.000003  -0.006214   0.495714
 Mulliken charges:
               1
     1  O   -0.458700
     2  S    0.839119
     3  N   -0.331252
     4  C    0.256002
     5  C   -0.249157
     6  C   -0.090627
     7  C   -0.146674
     8  C   -0.077593
     9  C   -0.249349
    10  C   -0.000333
    11  C   -0.138393
    12  C   -0.186819
    13  C    0.163830
    14  C   -0.364731
    15  C   -0.185046
    16  C   -0.167847
    17  O   -0.465893
    18  H    0.236098
    19  H    0.113856
    20  H    0.121355
    21  H    0.121035
    22  H    0.123162
    23  H    0.157249
    24  H    0.169522
    25  H    0.126213
    26  H    0.134786
    27  H    0.126752
    28  H    0.139953
    29  H    0.128437
    30  H    0.155044
 Sum of Mulliken charges =  -0.00000
 Mulliken charges with hydrogens summed into heavy atoms:
               1
     1  O   -0.458700
     2  S    0.839119
     3  N   -0.095155
     4  C    0.256002
     5  C   -0.135301
     6  C    0.030728
     7  C   -0.025639
     8  C    0.045569
     9  C   -0.092100
    10  C   -0.000333
    11  C    0.031130
    12  C   -0.060606
    13  C    0.163830
    14  C    0.036760
    15  C   -0.056610
    16  C   -0.012803
    17  O   -0.465893
 Electronic spatial extent (au):  <R**2>=           5712.2750
 Charge=             -0.0000 electrons
 Dipole moment (field-independent basis, Debye):
    X=              3.0415    Y=              0.1488    Z=              3.9276  Tot=              4.9698
 Quadrupole moment (field-independent basis, Debye-Ang):
   XX=            -81.5796   YY=           -101.8452   ZZ=           -114.0647
   XY=              0.0193   XZ=              0.7035   YZ=             -4.7125
 Traceless Quadrupole moment (field-independent basis, Debye-Ang):
   XX=             17.5836   YY=             -2.6820   ZZ=            -14.9016
   XY=              0.0193   XZ=              0.7035   YZ=             -4.7125
 Octapole moment (field-independent basis, Debye-Ang**2):
  XXX=             32.3225  YYY=              4.2830  ZZZ=             -3.2343  XYY=             10.2917
  XXY=              3.4631  XXZ=             17.1038  XZZ=              5.7375  YZZ=             -5.9282
  YYZ=              6.2894  XYZ=             18.8834
 Hexadecapole moment (field-independent basis, Debye-Ang**3):
 XXXX=          -5809.7737 YYYY=           -658.1404 ZZZZ=           -613.1653 XXXY=            -12.1136
 XXXZ=             61.3406 YYYX=             -7.9918 YYYZ=            -16.8887 ZZZX=             16.4306
 ZZZY=             -2.9291 XXYY=          -1127.6332 XXZZ=          -1235.1980 YYZZ=           -221.1043
 XXYZ=            -47.2147 YYXZ=              7.1535 ZZXY=             23.9522
 N-N= 1.287196555070D+03 E-N=-5.169925448244D+03  KE= 1.102021129201D+03
 Breneman (CHELPG) radii used.
 Read replacement radii for each type of atom:
 Atom Element Radius
    1     8    1.70
    2    16    2.00
    3     7    1.70
    4     6    1.50
    5     6    1.50
    6     6    1.50
    7     6    1.50
    8     6    1.50
    9     6    1.50
   10     6    1.50
   11     6    1.50
   12     6    1.50
   13     6    1.50
   14     6    1.50
   15     6    1.50
   16     6    1.50
   17     8    1.70
   18     1    1.45
   19     1    1.45
   20     1    1.45
   21     1    1.45
   22     1    1.45
   23     1    1.45
   24     1    1.45
   25     1    1.45
   26     1    1.45
   27     1    1.45
   28     1    1.45
   29     1    1.45
   30     1    1.45
 Generate Potential Derived Charges using the Breneman model, NDens= 1.
 Grid spacing= 0.300 Box extension= 2.800
 NStep X,Y,Z=   61     35     33   Total possible points=       70455
 Number of Points to Fit=   19060

 **********************************************************************

            Electrostatic Properties Using The SCF Density.

 **********************************************************************

       Atomic Center    1 is at  -0.224839 -1.613717 -1.453744
       Atomic Center    2 is at  -0.067093 -0.264451 -0.936351
       Atomic Center    3 is at  -0.900497 -0.094416  0.532869
       Atomic Center    4 is at  -2.319116  0.015691  0.507727
       Atomic Center    5 is at  -3.102766 -0.951808  1.144485
       Atomic Center    6 is at  -4.488895 -0.819755  1.178423
       Atomic Center    7 is at  -5.105143  0.263839  0.556037
       Atomic Center    8 is at  -4.322111  1.221072 -0.089034
       Atomic Center    9 is at  -2.934594  1.112262 -0.106455
       Atomic Center   10 is at   1.598384 -0.087344 -0.345161
       Atomic Center   11 is at   2.417514 -1.208332 -0.268006
       Atomic Center   12 is at   3.725258 -1.057878  0.190789
       Atomic Center   13 is at   4.218900  0.195191  0.566934
       Atomic Center   14 is at   5.635964  0.364118  1.045089
       Atomic Center   15 is at   3.368245  1.308222  0.471372
       Atomic Center   16 is at   2.063806  1.177986  0.015004
       Atomic Center   17 is at  -0.416930  0.881539 -1.755436
       Atomic Center   18 is at  -0.581379 -0.831021  1.159575
       Atomic Center   19 is at  -2.623193 -1.814990  1.613407
       Atomic Center   20 is at  -5.089370 -1.578152  1.685239
       Atomic Center   21 is at  -6.192248  0.362797  0.573674
       Atomic Center   22 is at  -4.795858  2.075354 -0.577373
       Atomic Center   23 is at  -2.319729  1.863792 -0.599899
       Atomic Center   24 is at   2.030733 -2.181694 -0.574894
       Atomic Center   25 is at   4.374603 -1.934431  0.252999
       Atomic Center   26 is at   5.672961  0.948644  1.976321
       Atomic Center   27 is at   6.120067 -0.604696  1.227924
       Atomic Center   28 is at   6.235639  0.904605  0.295855
       Atomic Center   29 is at   3.740606  2.295215  0.757229
       Atomic Center   30 is at   1.405604  2.044532 -0.068304
   19060 points will be used for fitting atomic charges
 Fitting point charges to electrostatic potential
 Charges from ESP fit, RMS=   0.00374 RRMS=   0.22254:
 ESP charges:
               1
     1  O   -0.511710
     2  S    0.998566
     3  N   -0.781522
     4  C    0.550132
     5  C   -0.310726
     6  C   -0.043809
     7  C   -0.152717
     8  C   -0.033946
     9  C   -0.297673
    10  C   -0.033559
    11  C   -0.057078
    12  C   -0.227400
    13  C    0.258436
    14  C   -0.315476
    15  C   -0.215047
    16  C   -0.061016
    17  O   -0.498190
    18  H    0.336425
    19  H    0.146207
    20  H    0.094696
    21  H    0.103784
    22  H    0.088645
    23  H    0.189922
    24  H    0.120057
    25  H    0.125469
    26  H    0.087300
    27  H    0.095147
    28  H    0.097265
    29  H    0.128537
    30  H    0.119282
 Sum of ESP charges =   0.00000
 ESP charges with hydrogens summed into heavy atoms:
               1
     1  O   -0.511710
     2  S    0.998566
     3  N   -0.445096
     4  C    0.550132
     5  C   -0.164519
     6  C    0.050888
     7  C   -0.048933
     8  C    0.054699
     9  C   -0.107751
    10  C   -0.033559
    11  C    0.062979
    12  C   -0.101931
    13  C    0.258436
    14  C   -0.035764
    15  C   -0.086511
    16  C    0.058266
    17  O   -0.498190
 Charge=   0.00000 Dipole=     2.9946     0.2273     4.0200 Tot=     5.0179
 -----------------------------------------------------------------

              Electrostatic Properties (Atomic Units)

 -----------------------------------------------------------------
    Center     Electric         -------- Electric Field --------
               Potential          X             Y             Z
 -----------------------------------------------------------------
    1 Atom    -22.374980
    2 Atom    -59.026929
    3 Atom    -18.348208
    4 Atom    -14.717763
    5 Atom    -14.762857
    6 Atom    -14.764195
    7 Atom    -14.769314
    8 Atom    -14.766657
    9 Atom    -14.770060
   10 Atom    -14.728568
   11 Atom    -14.741273
   12 Atom    -14.749270
   13 Atom    -14.732806
   14 Atom    -14.752668
   15 Atom    -14.749115
   16 Atom    -14.741043
   17 Atom    -22.374571
   18 Atom     -1.004601
   19 Atom     -1.094142
   20 Atom     -1.103246
   21 Atom     -1.106800
   22 Atom     -1.107201
   23 Atom     -1.108738
   24 Atom     -1.083640
   25 Atom     -1.087863
   26 Atom     -1.096457
   27 Atom     -1.098942
   28 Atom     -1.095388
   29 Atom     -1.087442
   30 Atom     -1.083550
 -----------------------------------------------------------------
 Unable to Open any file for archive entry.
 1\1\GINC-NOTCH210\SP\RwB97XD\def2TZVP\C13H13N1O2S1\U1366379\19-Feb-202
 6\0\\#N Guess=Read Geom=Check Integral(Ultrafine) Density Pop=(ChelpG,
 ReadRadii) NMR wB97XD def2TZVP\\prod_5l_12\\0,1\O,0,0.1437140529,1.819
 5518602,1.0570499658\S,0,0.0241144724,0.8953325722,-0.0585718779\N,0,0
 .8903714285,-0.5295590363,0.259804465\C,0,2.3101480113,-0.5043642715,0
 .1658082352\C,0,3.086552344,-0.7792965388,1.2959542398\C,0,4.475496062
 5,-0.817908867,1.1995874821\C,0,5.1010775209,-0.5576119651,-0.01786629
 33\C,0,4.3249130738,-0.2715158349,-1.1409283498\C,0,2.9353909603,-0.25
 59947224,-1.0613373136\C,0,-1.6250901649,0.2359311109,-0.059367549\C,0
 ,-2.4652635077,0.4989571264,1.016953802\C,0,-3.7601061971,-0.017310329
 2,1.0038098117\C,0,-4.220288992,-0.7856738048,-0.0700603174\C,0,-5.623
 6367971,-1.3289806512,-0.0959492719\C,0,-3.3491386808,-1.0279133044,-1
 .1443059398\C,0,-2.0571365107,-0.5204723226,-1.1495904154\O,0,0.380692
 8446,1.3152803989,-1.4013579327\H,0,0.5689866723,-0.8968763496,1.15365
 77689\H,0,2.5989965406,-0.9609002584,2.2573443338\H,0,5.0704516873,-1.
 0410511283,2.0877514851\H,0,6.1901146746,-0.5779185704,-0.0919425639\H
 ,0,4.8060701956,-0.0688279852,-2.1001547804\H,0,2.3261814076,-0.043704
 7093,-1.9389129249\H,0,-2.1047716974,1.109827633,1.8464701322\H,0,-4.4
 258636784,0.1863548097,1.8459209516\H,0,-5.6298189879,-2.3985513133,-0
 .3532705834\H,0,-6.1236699928,-1.2059671674,0.8742155185\H,0,-6.227156
 1268,-0.8066866379,-0.8549359302\H,0,-3.6953635756,-1.6228285566,-1.99
 32616004\H,0,-1.3831570399,-0.7007311868,-1.9888345477\\Version=ES64L-
 G16RevC.01\State=1-A\HF=-1106.6230552\RMSD=1.952e-09\Dipole=-1.1636812
 ,-1.51356,0.4220009\Quadrupole=13.0321309,-12.2305024,-0.8016284,1.151
 3685,0.0272968,-0.036055\PG=C01 [X(C13H13N1O2S1)]\\@
 The archive entry for this job was punched.


 HONESTY IN A LAWYER IS LIKE A HEN'S HIND LEGS.
  -- MAGNUS OLESON, LAKE WOBEGON PATRIARCH, C.1875
 Job cpu time:       0 days  2 hours  9 minutes 33.7 seconds.
 Elapsed time:       0 days  0 hours  8 minutes 29.3 seconds.
 File lengths (MBytes):  RWF=    226 Int=      0 D2E=      0 Chk=     36 Scr=      2
 Normal termination of Gaussian 16 at Thu Feb 19 06:27:00 2026.
