 Entering Gaussian System, Link 0=g16
 Input=prod_3f_1.com
 Output=prod_3f_1.log
 Initial command:
 /uufs/chpc.utah.edu/sys/installdir/gaussian16/C01/AVX/g16/l1.exe "/scratch/general/vast/u1366379/GAUSSSCRDIR/11028606-notchpeak.peaks/Gau-3057048.inp" -scrdir="/scratch/general/vast/u1366379/GAUSSSCRDIR/11028606-notchpeak.peaks/"
 Entering Link 1 = /uufs/chpc.utah.edu/sys/installdir/gaussian16/C01/AVX/g16/l1.exe PID=   3057050.
  
 Copyright (c) 1988-2019, Gaussian, Inc.  All Rights Reserved.
  
 This is part of the Gaussian(R) 16 program.  It is based on
 the Gaussian(R) 09 system (copyright 2009, Gaussian, Inc.),
 the Gaussian(R) 03 system (copyright 2003, Gaussian, Inc.),
 the Gaussian(R) 98 system (copyright 1998, Gaussian, Inc.),
 the Gaussian(R) 94 system (copyright 1995, Gaussian, Inc.),
 the Gaussian 92(TM) system (copyright 1992, Gaussian, Inc.),
 the Gaussian 90(TM) system (copyright 1990, Gaussian, Inc.),
 the Gaussian 88(TM) system (copyright 1988, Gaussian, Inc.),
 the Gaussian 86(TM) system (copyright 1986, Carnegie Mellon
 University), and the Gaussian 82(TM) system (copyright 1983,
 Carnegie Mellon University). Gaussian is a federally registered
 trademark of Gaussian, Inc.
  
 This software contains proprietary and confidential information,
 including trade secrets, belonging to Gaussian, Inc.
  
 This software is provided under written license and may be
 used, copied, transmitted, or stored only in accord with that
 written license.
  
 The following legend is applicable only to US Government
 contracts under FAR:
  
                    RESTRICTED RIGHTS LEGEND
  
 Use, reproduction and disclosure by the US Government is
 subject to restrictions as set forth in subparagraphs (a)
 and (c) of the Commercial Computer Software - Restricted
 Rights clause in FAR 52.227-19.
  
 Gaussian, Inc.
 340 Quinnipiac St., Bldg. 40, Wallingford CT 06492
  
  
 ---------------------------------------------------------------
 Warning -- This program may not be used in any manner that
 competes with the business of Gaussian, Inc. or will provide
 assistance to any competitor of Gaussian, Inc.  The licensee
 of this program is prohibited from giving any competitor of
 Gaussian, Inc. access to this program.  By using this program,
 the user acknowledges that Gaussian, Inc. is engaged in the
 business of creating and licensing software in the field of
 computational chemistry and represents and warrants to the
 licensee that it is not a competitor of Gaussian, Inc. and that
 it will not use this program in any manner prohibited above.
 ---------------------------------------------------------------
  

 Cite this work as:
 Gaussian 16, Revision C.01,
 M. J. Frisch, G. W. Trucks, H. B. Schlegel, G. E. Scuseria, 
 M. A. Robb, J. R. Cheeseman, G. Scalmani, V. Barone, 
 G. A. Petersson, H. Nakatsuji, X. Li, M. Caricato, A. V. Marenich, 
 J. Bloino, B. G. Janesko, R. Gomperts, B. Mennucci, H. P. Hratchian, 
 J. V. Ortiz, A. F. Izmaylov, J. L. Sonnenberg, D. Williams-Young, 
 F. Ding, F. Lipparini, F. Egidi, J. Goings, B. Peng, A. Petrone, 
 T. Henderson, D. Ranasinghe, V. G. Zakrzewski, J. Gao, N. Rega, 
 G. Zheng, W. Liang, M. Hada, M. Ehara, K. Toyota, R. Fukuda, 
 J. Hasegawa, M. Ishida, T. Nakajima, Y. Honda, O. Kitao, H. Nakai, 
 T. Vreven, K. Throssell, J. A. Montgomery, Jr., J. E. Peralta, 
 F. Ogliaro, M. J. Bearpark, J. J. Heyd, E. N. Brothers, K. N. Kudin, 
 V. N. Staroverov, T. A. Keith, R. Kobayashi, J. Normand, 
 K. Raghavachari, A. P. Rendell, J. C. Burant, S. S. Iyengar, 
 J. Tomasi, M. Cossi, J. M. Millam, M. Klene, C. Adamo, R. Cammi, 
 J. W. Ochterski, R. L. Martin, K. Morokuma, O. Farkas, 
 J. B. Foresman, and D. J. Fox, Gaussian, Inc., Wallingford CT, 2019.
 
 ******************************************
 Gaussian 16:  ES64L-G16RevC.01  3-Jul-2019
                17-Feb-2026 
 ******************************************
 %NProcShared=8
 Will use up to    8 processors via shared memory.
 %Mem=8GB
 %chk=prod_3f_1.chk
 ------------------------------------------------------
 #N OPT FREQ=NORAMAN Integral(Ultrafine) wB97XD def2SVP
 ------------------------------------------------------
 1/18=20,19=15,26=4,38=1/1,3;
 2/9=110,12=2,17=6,18=5,40=1/2;
 3/5=43,7=101,11=2,25=1,30=1,71=1,74=-58,75=-5/1,2,3;
 4//1;
 5/5=2,38=5/2;
 6/7=2,8=2,9=2,10=2,28=1/1;
 7//1,2,3,16;
 1/18=20,19=15,26=4/3(2);
 2/9=110/2;
 99//99;
 2/9=110/2;
 3/5=43,7=101,11=2,25=1,30=1,71=1,74=-58,75=-5/1,2,3;
 4/5=5,16=3,69=1/1;
 5/5=2,38=5/2;
 7//1,2,3,16;
 1/18=20,19=15,26=4/3(-5);
 2/9=110/2;
 6/7=2,8=2,9=2,10=2,19=2,28=1/1;
 99/9=1/99;
 ---------
 prod_3f_1
 ---------
 Symbolic Z-matrix:
 Charge =  0 Multiplicity = 1
 C                    -3.332    -2.3636    0.427 
 O                    -2.07505  -1.78473   0.16785 
 C                    -2.09252  -0.38948   0.03467 
 C                    -3.22274   0.41404   0.12855 
 C                    -3.13431   1.7815   -0.04329 
 C                    -1.91955   2.37158  -0.3211 
 C                    -0.7813    1.59655  -0.41479 
 C                    -0.84407   0.22614  -0.22162 
 N                     0.27992  -0.61727  -0.32029 
 C                     1.64685  -0.32333  -0.12493 
 C                     2.0671    0.7989    0.58851 
 C                     3.40715   1.04903   0.77969 
 C                     4.35452   0.18262   0.26925 
 C                     3.95525  -0.94221  -0.42646 
 C                     2.6162   -1.19693  -0.61786 
 H                    -3.73205  -1.97755   1.36522 
 H                    -3.20636  -3.44329   0.51376 
 H                    -4.01526  -2.15192  -0.39621 
 H                    -4.17877  -0.03233   0.33266 
 H                    -4.02119   2.38941   0.03086 
 H                    -1.85918   3.43708  -0.47088 
 H                     0.15895   2.04809  -0.67599 
 H                     0.03666  -1.60612  -0.4001 
 H                     1.33039   1.44783   1.02663 
 H                     3.71806   1.91888   1.33491 
 H                     5.40326   0.38024   0.41949 
 H                     4.69368  -1.62182  -0.81936 
 H                     2.3003   -2.07066  -1.16073 
 

 GradGradGradGradGradGradGradGradGradGradGradGradGradGradGradGradGradGrad
 Berny optimization.
 Initialization pass.
                           ----------------------------
                           !    Initial Parameters    !
                           ! (Angstroms and Degrees)  !
 --------------------------                            --------------------------
 ! Name  Definition              Value          Derivative Info.                !
 --------------------------------------------------------------------------------
 ! R1    R(1,2)                  1.4079         estimate D2E/DX2                !
 ! R2    R(1,16)                 1.0906         estimate D2E/DX2                !
 ! R3    R(1,17)                 1.0904         estimate D2E/DX2                !
 ! R4    R(1,18)                 1.0906         estimate D2E/DX2                !
 ! R5    R(2,3)                  1.4017         estimate D2E/DX2                !
 ! R6    R(3,4)                  1.3899         estimate D2E/DX2                !
 ! R7    R(3,8)                  1.4154         estimate D2E/DX2                !
 ! R8    R(4,5)                  1.381          estimate D2E/DX2                !
 ! R9    R(4,19)                 1.0747         estimate D2E/DX2                !
 ! R10   R(5,6)                  1.3788         estimate D2E/DX2                !
 ! R11   R(5,20)                 1.0778         estimate D2E/DX2                !
 ! R12   R(6,7)                  1.3802         estimate D2E/DX2                !
 ! R13   R(6,21)                 1.0777         estimate D2E/DX2                !
 ! R14   R(7,8)                  1.3854         estimate D2E/DX2                !
 ! R15   R(7,22)                 1.0753         estimate D2E/DX2                !
 ! R16   R(8,9)                  1.4087         estimate D2E/DX2                !
 ! R17   R(9,10)                 1.4118         estimate D2E/DX2                !
 ! R18   R(9,23)                 1.0215         estimate D2E/DX2                !
 ! R19   R(10,11)                1.3946         estimate D2E/DX2                !
 ! R20   R(10,15)                1.3949         estimate D2E/DX2                !
 ! R21   R(11,12)                1.3765         estimate D2E/DX2                !
 ! R22   R(11,24)                1.0751         estimate D2E/DX2                !
 ! R23   R(12,13)                1.3816         estimate D2E/DX2                !
 ! R24   R(12,25)                1.0778         estimate D2E/DX2                !
 ! R25   R(13,14)                1.3815         estimate D2E/DX2                !
 ! R26   R(13,26)                1.0777         estimate D2E/DX2                !
 ! R27   R(14,15)                1.3764         estimate D2E/DX2                !
 ! R28   R(14,27)                1.0777         estimate D2E/DX2                !
 ! R29   R(15,28)                1.0761         estimate D2E/DX2                !
 ! A1    A(2,1,16)             109.8956         estimate D2E/DX2                !
 ! A2    A(2,1,17)             108.5956         estimate D2E/DX2                !
 ! A3    A(2,1,18)             109.9133         estimate D2E/DX2                !
 ! A4    A(16,1,17)            108.9244         estimate D2E/DX2                !
 ! A5    A(16,1,18)            110.5403         estimate D2E/DX2                !
 ! A6    A(17,1,18)            108.9314         estimate D2E/DX2                !
 ! A7    A(1,2,3)              114.5589         estimate D2E/DX2                !
 ! A8    A(2,3,4)              125.3919         estimate D2E/DX2                !
 ! A9    A(2,3,8)              116.0503         estimate D2E/DX2                !
 ! A10   A(4,3,8)              118.5573         estimate D2E/DX2                !
 ! A11   A(3,4,5)              120.7937         estimate D2E/DX2                !
 ! A12   A(3,4,19)             119.7423         estimate D2E/DX2                !
 ! A13   A(5,4,19)             119.4633         estimate D2E/DX2                !
 ! A14   A(4,5,6)              120.3479         estimate D2E/DX2                !
 ! A15   A(4,5,20)             119.8175         estimate D2E/DX2                !
 ! A16   A(6,5,20)             119.832          estimate D2E/DX2                !
 ! A17   A(5,6,7)              119.9958         estimate D2E/DX2                !
 ! A18   A(5,6,21)             120.0332         estimate D2E/DX2                !
 ! A19   A(7,6,21)             119.97           estimate D2E/DX2                !
 ! A20   A(6,7,8)              120.572          estimate D2E/DX2                !
 ! A21   A(6,7,22)             120.1203         estimate D2E/DX2                !
 ! A22   A(8,7,22)             119.2676         estimate D2E/DX2                !
 ! A23   A(3,8,7)              119.7003         estimate D2E/DX2                !
 ! A24   A(3,8,9)              117.1332         estimate D2E/DX2                !
 ! A25   A(7,8,9)              123.1155         estimate D2E/DX2                !
 ! A26   A(8,9,10)             129.6582         estimate D2E/DX2                !
 ! A27   A(8,9,23)             113.2697         estimate D2E/DX2                !
 ! A28   A(10,9,23)            116.2931         estimate D2E/DX2                !
 ! A29   A(9,10,11)            122.0119         estimate D2E/DX2                !
 ! A30   A(9,10,15)            119.5744         estimate D2E/DX2                !
 ! A31   A(11,10,15)           118.3801         estimate D2E/DX2                !
 ! A32   A(10,11,12)           120.7046         estimate D2E/DX2                !
 ! A33   A(10,11,24)           119.189          estimate D2E/DX2                !
 ! A34   A(12,11,24)           120.054          estimate D2E/DX2                !
 ! A35   A(11,12,13)           120.1509         estimate D2E/DX2                !
 ! A36   A(11,12,25)           119.9362         estimate D2E/DX2                !
 ! A37   A(13,12,25)           119.9114         estimate D2E/DX2                !
 ! A38   A(12,13,14)           119.8987         estimate D2E/DX2                !
 ! A39   A(12,13,26)           120.0518         estimate D2E/DX2                !
 ! A40   A(14,13,26)           120.0481         estimate D2E/DX2                !
 ! A41   A(13,14,15)           120.1223         estimate D2E/DX2                !
 ! A42   A(13,14,27)           119.9327         estimate D2E/DX2                !
 ! A43   A(15,14,27)           119.945          estimate D2E/DX2                !
 ! A44   A(10,15,14)           120.7309         estimate D2E/DX2                !
 ! A45   A(10,15,28)           118.8675         estimate D2E/DX2                !
 ! A46   A(14,15,28)           120.3986         estimate D2E/DX2                !
 ! D1    D(16,1,2,3)           -60.8465         estimate D2E/DX2                !
 ! D2    D(17,1,2,3)          -179.9028         estimate D2E/DX2                !
 ! D3    D(18,1,2,3)            61.0219         estimate D2E/DX2                !
 ! D4    D(1,2,3,4)             -0.5012         estimate D2E/DX2                !
 ! D5    D(1,2,3,8)            179.7755         estimate D2E/DX2                !
 ! D6    D(2,3,4,5)           -178.8004         estimate D2E/DX2                !
 ! D7    D(2,3,4,19)             0.9105         estimate D2E/DX2                !
 ! D8    D(8,3,4,5)              0.9166         estimate D2E/DX2                !
 ! D9    D(8,3,4,19)          -179.3725         estimate D2E/DX2                !
 ! D10   D(2,3,8,7)            177.6682         estimate D2E/DX2                !
 ! D11   D(2,3,8,9)              0.1839         estimate D2E/DX2                !
 ! D12   D(4,3,8,7)             -2.075          estimate D2E/DX2                !
 ! D13   D(4,3,8,9)           -179.5593         estimate D2E/DX2                !
 ! D14   D(3,4,5,6)              0.4591         estimate D2E/DX2                !
 ! D15   D(3,4,5,20)           179.8728         estimate D2E/DX2                !
 ! D16   D(19,4,5,6)          -179.2526         estimate D2E/DX2                !
 ! D17   D(19,4,5,20)            0.1611         estimate D2E/DX2                !
 ! D18   D(4,5,6,7)             -0.6858         estimate D2E/DX2                !
 ! D19   D(4,5,6,21)           178.9559         estimate D2E/DX2                !
 ! D20   D(20,5,6,7)           179.9006         estimate D2E/DX2                !
 ! D21   D(20,5,6,21)           -0.4577         estimate D2E/DX2                !
 ! D22   D(5,6,7,8)             -0.5026         estimate D2E/DX2                !
 ! D23   D(5,6,7,22)           177.1758         estimate D2E/DX2                !
 ! D24   D(21,6,7,8)           179.8555         estimate D2E/DX2                !
 ! D25   D(21,6,7,22)           -2.4662         estimate D2E/DX2                !
 ! D26   D(6,7,8,3)              1.8883         estimate D2E/DX2                !
 ! D27   D(6,7,8,9)            179.2151         estimate D2E/DX2                !
 ! D28   D(22,7,8,3)          -175.8098         estimate D2E/DX2                !
 ! D29   D(22,7,8,9)             1.5171         estimate D2E/DX2                !
 ! D30   D(3,8,9,10)          -156.5374         estimate D2E/DX2                !
 ! D31   D(3,8,9,23)            12.8273         estimate D2E/DX2                !
 ! D32   D(7,8,9,10)            26.0717         estimate D2E/DX2                !
 ! D33   D(7,8,9,23)          -164.5636         estimate D2E/DX2                !
 ! D34   D(8,9,10,11)           19.4664         estimate D2E/DX2                !
 ! D35   D(8,9,10,15)         -162.6762         estimate D2E/DX2                !
 ! D36   D(23,9,10,11)        -149.6328         estimate D2E/DX2                !
 ! D37   D(23,9,10,15)          28.2246         estimate D2E/DX2                !
 ! D38   D(9,10,11,12)         179.0289         estimate D2E/DX2                !
 ! D39   D(9,10,11,24)           1.6606         estimate D2E/DX2                !
 ! D40   D(15,10,11,12)          1.147          estimate D2E/DX2                !
 ! D41   D(15,10,11,24)       -176.2214         estimate D2E/DX2                !
 ! D42   D(9,10,15,14)        -179.1881         estimate D2E/DX2                !
 ! D43   D(9,10,15,28)           1.4424         estimate D2E/DX2                !
 ! D44   D(11,10,15,14)         -1.2531         estimate D2E/DX2                !
 ! D45   D(11,10,15,28)        179.3774         estimate D2E/DX2                !
 ! D46   D(10,11,12,13)         -0.3067         estimate D2E/DX2                !
 ! D47   D(10,11,12,25)       -179.8644         estimate D2E/DX2                !
 ! D48   D(24,11,12,13)        177.0389         estimate D2E/DX2                !
 ! D49   D(24,11,12,25)         -2.5187         estimate D2E/DX2                !
 ! D50   D(11,12,13,14)         -0.4563         estimate D2E/DX2                !
 ! D51   D(11,12,13,26)        179.9721         estimate D2E/DX2                !
 ! D52   D(25,12,13,14)        179.1015         estimate D2E/DX2                !
 ! D53   D(25,12,13,26)         -0.4701         estimate D2E/DX2                !
 ! D54   D(12,13,14,15)          0.3508         estimate D2E/DX2                !
 ! D55   D(12,13,14,27)       -179.6032         estimate D2E/DX2                !
 ! D56   D(26,13,14,15)        179.9225         estimate D2E/DX2                !
 ! D57   D(26,13,14,27)         -0.0315         estimate D2E/DX2                !
 ! D58   D(13,14,15,10)          0.5183         estimate D2E/DX2                !
 ! D59   D(13,14,15,28)        179.8782         estimate D2E/DX2                !
 ! D60   D(27,14,15,10)       -179.5277         estimate D2E/DX2                !
 ! D61   D(27,14,15,28)         -0.1678         estimate D2E/DX2                !
 --------------------------------------------------------------------------------
 Trust Radius=3.00D-01 FncErr=1.00D-07 GrdErr=1.00D-06 EigMax=2.50D+02 EigMin=1.00D-04
 Number of steps in this run=    146 maximum allowed number of steps=    168.
 GradGradGradGradGradGradGradGradGradGradGradGradGradGradGradGradGradGrad

                          Input orientation:                          
 ---------------------------------------------------------------------
 Center     Atomic      Atomic             Coordinates (Angstroms)
 Number     Number       Type             X           Y           Z
 ---------------------------------------------------------------------
      1          6           0       -3.332000   -2.363600    0.427000
      2          8           0       -2.075050   -1.784730    0.167850
      3          6           0       -2.092520   -0.389480    0.034670
      4          6           0       -3.222740    0.414040    0.128550
      5          6           0       -3.134310    1.781500   -0.043290
      6          6           0       -1.919550    2.371580   -0.321100
      7          6           0       -0.781300    1.596550   -0.414790
      8          6           0       -0.844070    0.226140   -0.221620
      9          7           0        0.279920   -0.617270   -0.320290
     10          6           0        1.646850   -0.323330   -0.124930
     11          6           0        2.067100    0.798900    0.588510
     12          6           0        3.407150    1.049030    0.779690
     13          6           0        4.354520    0.182620    0.269250
     14          6           0        3.955250   -0.942210   -0.426460
     15          6           0        2.616200   -1.196930   -0.617860
     16          1           0       -3.732050   -1.977550    1.365220
     17          1           0       -3.206360   -3.443290    0.513760
     18          1           0       -4.015260   -2.151920   -0.396210
     19          1           0       -4.178770   -0.032330    0.332660
     20          1           0       -4.021190    2.389410    0.030860
     21          1           0       -1.859180    3.437080   -0.470880
     22          1           0        0.158950    2.048090   -0.675990
     23          1           0        0.036660   -1.606120   -0.400100
     24          1           0        1.330390    1.447830    1.026630
     25          1           0        3.718060    1.918880    1.334910
     26          1           0        5.403260    0.380240    0.419490
     27          1           0        4.693680   -1.621820   -0.819360
     28          1           0        2.300300   -2.070660   -1.160730
 ---------------------------------------------------------------------
                    Distance matrix (angstroms):
                    1          2          3          4          5
     1  C    0.000000
     2  O    1.407896   0.000000
     3  C    2.363765   1.401701   0.000000
     4  C    2.795764   2.480590   1.389912   0.000000
     5  C    4.176375   3.726206   2.409265   1.381049   0.000000
     6  C    4.997659   4.187859   2.789255   2.394254   1.378773
     7  C    4.785130   3.666921   2.421906   2.766618   2.389325
     8  C    3.649282   2.389686   1.415380   2.411638   2.774193
     9  N    4.080941   2.673411   2.409638   3.678816   4.181841
    10  C    5.408907   4.009233   3.743359   4.931620   5.224602
    11  C    6.259215   4.899950   4.361356   5.323729   5.330979
    12  C    7.562181   6.201537   5.733301   6.691983   6.633589
    13  C    8.098809   6.724591   6.476623   7.582099   7.663985
    14  C    7.473470   6.117807   6.090458   7.326049   7.604425
    15  C    6.150930   4.792773   4.821806   6.102915   6.501503
    16  H    1.090565   2.053418   2.642042   2.740155   4.058528
    17  H    1.090433   2.037238   3.285715   3.876551   5.254895
    18  H    1.090563   2.053633   2.643630   2.736350   4.046285
    19  H    2.482084   2.742937   2.137474   1.074663   2.126550
    20  H    4.819026   4.607567   3.382604   2.132874   1.077780
    21  H    6.051717   5.265157   3.866858   3.370072   2.133011
    22  H    5.732916   4.515898   3.393509   3.840994   3.364066
    23  H    3.550456   2.194035   2.490511   3.870944   4.653851
    24  H    6.051813   4.773256   4.009489   4.754604   4.603217
    25  H    8.298631   6.974158   6.386078   7.203787   6.990943
    26  H    9.156063   7.789450   7.545016   8.630971   8.664167
    27  H    8.155685   6.842282   6.949859   8.228789   8.571015
    28  H    5.859138   4.581547   4.853062   6.191926   6.754465
                    6          7          8          9         10
     6  C    0.000000
     7  C    1.380240   0.000000
     8  C    2.401971   1.385380   0.000000
     9  N    3.710915   2.456851   1.408698   0.000000
    10  C    4.474397   3.108998   2.552636   1.411759   0.000000
    11  C    4.381106   3.123498   3.075594   2.454683   1.394635
    12  C    5.597733   4.389724   4.444394   3.710267   2.408395
    13  C    6.671133   5.370638   5.221895   4.194013   2.782596
    14  C    6.745782   5.374044   4.943731   3.691193   2.408868
    15  C    5.778872   4.403155   3.762393   2.425440   1.394918
    16  H    5.004374   4.964832   3.964182   4.559299   5.821474
    17  H    6.013783   5.669489   4.425598   4.564666   5.804802
    18  H    4.985950   4.950744   3.967631   4.561742   5.956242
    19  H    3.363073   3.841189   3.390318   4.544053   5.850805
    20  H    2.130982   3.365133   3.851957   5.259561   6.285691
    21  H    1.077668   2.133664   3.376791   4.586522   5.152923
    22  H    2.133250   1.075260   2.128850   2.691710   2.853269
    23  H    4.433407   3.305506   2.040764   1.021455   2.077012
    24  H    3.637554   2.561063   2.789073   2.679985   2.136175
    25  H    5.893212   4.838345   5.108932   4.581763   3.383571
    26  H    7.624792   6.358004   6.282030   5.271709   3.860313
    27  H    7.741467   6.363724   5.868469   4.554061   3.384004
    28  H    6.184303   4.847795   4.005531   2.626903   2.133786
                   11         12         13         14         15
    11  C    0.000000
    12  C    1.376535   0.000000
    13  C    2.390401   1.381566   0.000000
    14  C    2.761655   2.391704   1.381547   0.000000
    15  C    2.395867   2.760993   2.389954   1.376434   0.000000
    16  H    6.476272   7.776324   8.441570   7.960944   6.696436
    17  H    6.768393   7.999386   8.388916   7.643826   6.342626
    18  H    6.831699   8.168292   8.714708   8.061845   6.703536
    19  H    6.306132   7.675634   8.536232   8.219880   6.959267
    20  H    6.317276   7.585354   8.664829   8.656352   7.572161
    21  H    4.847471   5.916159   7.053323   7.279269   6.443964
    22  H    2.607772   3.697016   4.687885   4.839014   4.070824
    23  H    3.299115   4.449936   4.721391   3.974521   2.620855
    24  H    1.075082   2.129073   3.364483   3.835838   3.369334
    25  H    2.130056   1.077763   2.134318   3.368163   3.838708
    26  H    3.366572   2.135762   1.077720   2.135706   3.366194
    27  H    3.839389   3.368317   2.134503   1.077738   2.130037
    28  H    3.368768   3.837032   3.367779   2.133404   1.076060
                   16         17         18         19         20
    16  H    0.000000
    17  H    1.774747   0.000000
    18  H    1.792554   1.774824   0.000000
    19  H    2.247136   3.551482   2.247365   0.000000
    20  H    4.575419   5.909106   4.561371   2.445555   0.000000
    21  H    6.016405   7.079824   5.990925   4.250056   2.454311
    22  H    5.959211   6.549509   5.928102   4.915418   4.253200
    23  H    4.178216   3.837644   4.088517   4.558904   5.711054
    24  H    6.121778   6.690904   6.599898   5.746591   5.524268
    25  H    8.407569   8.796292   8.909120   8.195831   7.862438
    26  H    9.481955   9.420925   9.787018   9.591301   9.644068
    27  H    8.711593   8.216179   8.735313   9.087024   9.631293
    28  H    6.540515   5.917038   6.362185   6.954376   7.827729
                   21         22         23         24         25
    21  H    0.000000
    22  H    2.458498   0.000000
    23  H    5.388236   3.666650   0.000000
    24  H    4.046357   2.152092   3.610527   0.000000
    25  H    6.055693   4.089948   5.384105   2.453139   0.000000
    26  H    7.929695   5.611113   5.780809   4.254014   2.458720
    27  H    8.285764   5.835458   4.675881   4.913466   4.257848
    28  H    6.936308   4.667382   2.432781   4.255002   4.914742
                   26         27         28
    26  H    0.000000
    27  H    2.458963   0.000000
    28  H    4.258212   2.458914   0.000000
 Stoichiometry    C13H13NO
 Framework group  C1[X(C13H13NO)]
 Deg. of freedom    78
 Full point group                 C1      NOp   1
 Largest Abelian subgroup         C1      NOp   1
 Largest concise Abelian subgroup C1      NOp   1
                         Standard orientation:                         
 ---------------------------------------------------------------------
 Center     Atomic      Atomic             Coordinates (Angstroms)
 Number     Number       Type             X           Y           Z
 ---------------------------------------------------------------------
      1          6           0       -3.337822   -2.325785    0.426001
      2          8           0       -2.075166   -1.759428    0.166943
      3          6           0       -2.079963   -0.364806    0.026333
      4          6           0       -3.203257    0.449155    0.113121
      5          6           0       -3.102309    1.814847   -0.065735
      6          6           0       -1.881696    2.392687   -0.343618
      7          6           0       -0.750120    1.607144   -0.430347
      8          6           0       -0.825488    0.238389   -0.230081
      9          7           0        0.291236   -0.615430   -0.321464
     10          6           0        1.660228   -0.332543   -0.124236
     11          6           0        2.088633    0.789708    0.584304
     12          6           0        3.430369    1.029003    0.777517
     13          6           0        4.371290    0.151556    0.274050
     14          6           0        3.963797   -0.973386   -0.416693
     15          6           0        2.623021   -1.217281   -0.610100
     16          1           0       -3.736749   -1.931233    1.361157
     17          1           0       -3.221953   -3.406067    0.518792
     18          1           0       -4.017154   -2.112458   -0.400030
     19          1           0       -4.163698    0.012340    0.317194
     20          1           0       -3.983956    2.430954    0.002970
     21          1           0       -1.811533    3.456801   -0.498886
     22          1           0        0.194728    2.048965   -0.691576
     23          1           0        0.039434   -1.602503   -0.396647
     24          1           0        1.356617    1.447442    1.017132
     25          1           0        3.747595    1.899013    1.328901
     26          1           0        5.421364    0.340699    0.425871
     27          1           0        4.697150   -1.661573   -0.804135
     28          1           0        2.300740   -2.091061   -1.149126
 ---------------------------------------------------------------------
 Rotational constants (GHZ):           1.2382680           0.3448723           0.2804645
 Standard basis: def2SVP (5D, 7F)
 There are   290 symmetry adapted cartesian basis functions of A   symmetry.
 There are   275 symmetry adapted basis functions of A   symmetry.
   275 basis functions,   466 primitive gaussians,   290 cartesian basis functions
    53 alpha electrons       53 beta electrons
       nuclear repulsion energy       912.9001082625 Hartrees.
 NAtoms=   28 NActive=   28 NUniq=   28 SFac= 1.00D+00 NAtFMM=   60 NAOKFM=F Big=F
 Integral buffers will be    131072 words long.
 Raffenetti 2 integral format.
 Two-electron integral symmetry is turned on.
 Nuclear repulsion after empirical dispersion term =      912.8835559445 Hartrees.
 One-electron integrals computed using PRISM.
   1 Symmetry operations used in ECPInt.
 ECPInt:  NShTT=    8385 NPrTT=   30369 LenC2=    7802 LenP2D=   20521.
 LDataN:  DoStor=T MaxTD1= 4 Len=   56
 NBasis=   275 RedAO= T EigKep=  1.96D-04  NBF=   275
 NBsUse=   275 1.00D-06 EigRej= -1.00D+00 NBFU=   275
 ExpMin= 1.22D-01 ExpMax= 2.27D+03 ExpMxC= 3.41D+02 IAcc=3 IRadAn=         5 AccDes= 0.00D+00
 Harris functional with IExCor= 4639 and IRadAn=       5 diagonalized for initial guess.
 HarFok:  IExCor= 4639 AccDes= 0.00D+00 IRadAn=         5 IDoV= 1 UseB2=F ITyADJ=14
 ICtDFT=  3500011 ScaDFX=  1.000000  1.000000  1.000000  1.000000
 FoFCou: FMM=F IPFlag=           0 FMFlag=      100000 FMFlg1=           0
         NFxFlg=           0 DoJE=T BraDBF=F KetDBF=T FulRan=T
         wScrn=  0.000000 ICntrl=       500 IOpCl=  0 I1Cent=   200000004 NGrid=           0
         NMat0=    1 NMatS0=      1 NMatT0=    0 NMatD0=    1 NMtDS0=    0 NMtDT0=    0
 Petite list used in FoFCou.
 Requested convergence on RMS density matrix=1.00D-08 within 128 cycles.
 Requested convergence on MAX density matrix=1.00D-06.
 Requested convergence on             energy=1.00D-06.
 No special actions if energy rises.
 Integral accuracy reduced to 1.0D-05 until final iterations.
 Initial convergence to 1.0D-05 achieved.  Increase integral accuracy.
 SCF Done:  E(RwB97XD) =  -632.510373511     A.U. after   15 cycles
            NFock= 15  Conv=0.67D-08     -V/T= 2.0103

 **********************************************************************

            Population analysis using the SCF Density.

 **********************************************************************

 Orbital symmetries:
       Occupied  (A) (A) (A) (A) (A) (A) (A) (A) (A) (A) (A) (A)
                 (A) (A) (A) (A) (A) (A) (A) (A) (A) (A) (A) (A)
                 (A) (A) (A) (A) (A) (A) (A) (A) (A) (A) (A) (A)
                 (A) (A) (A) (A) (A) (A) (A) (A) (A) (A) (A) (A)
                 (A) (A) (A) (A) (A)
       Virtual   (A) (A) (A) (A) (A) (A) (A) (A) (A) (A) (A) (A)
                 (A) (A) (A) (A) (A) (A) (A) (A) (A) (A) (A) (A)
                 (A) (A) (A) (A) (A) (A) (A) (A) (A) (A) (A) (A)
                 (A) (A) (A) (A) (A) (A) (A) (A) (A) (A) (A) (A)
                 (A) (A) (A) (A) (A) (A) (A) (A) (A) (A) (A) (A)
                 (A) (A) (A) (A) (A) (A) (A) (A) (A) (A) (A) (A)
                 (A) (A) (A) (A) (A) (A) (A) (A) (A) (A) (A) (A)
                 (A) (A) (A) (A) (A) (A) (A) (A) (A) (A) (A) (A)
                 (A) (A) (A) (A) (A) (A) (A) (A) (A) (A) (A) (A)
                 (A) (A) (A) (A) (A) (A) (A) (A) (A) (A) (A) (A)
                 (A) (A) (A) (A) (A) (A) (A) (A) (A) (A) (A) (A)
                 (A) (A) (A) (A) (A) (A) (A) (A) (A) (A) (A) (A)
                 (A) (A) (A) (A) (A) (A) (A) (A) (A) (A) (A) (A)
                 (A) (A) (A) (A) (A) (A) (A) (A) (A) (A) (A) (A)
                 (A) (A) (A) (A) (A) (A) (A) (A) (A) (A) (A) (A)
                 (A) (A) (A) (A) (A) (A) (A) (A) (A) (A) (A) (A)
                 (A) (A) (A) (A) (A) (A) (A) (A) (A) (A) (A) (A)
                 (A) (A) (A) (A) (A) (A) (A) (A) (A) (A) (A) (A)
                 (A) (A) (A) (A) (A) (A)
 The electronic state is 1-A.
 Alpha  occ. eigenvalues --  -19.29478 -14.46156 -10.35910 -10.35500 -10.34273
 Alpha  occ. eigenvalues --  -10.34076 -10.29975 -10.29476 -10.29401 -10.29263
 Alpha  occ. eigenvalues --  -10.29216 -10.29140 -10.29109 -10.28842 -10.28543
 Alpha  occ. eigenvalues --   -1.15755  -1.03258  -0.95542  -0.93485  -0.85615
 Alpha  occ. eigenvalues --   -0.84590  -0.83758  -0.81143  -0.78889  -0.71514
 Alpha  occ. eigenvalues --   -0.70744  -0.68335  -0.67375  -0.63276  -0.62025
 Alpha  occ. eigenvalues --   -0.60051  -0.57458  -0.56726  -0.55672  -0.54565
 Alpha  occ. eigenvalues --   -0.53439  -0.52288  -0.51606  -0.50808  -0.50588
 Alpha  occ. eigenvalues --   -0.48694  -0.46523  -0.46364  -0.44556  -0.43395
 Alpha  occ. eigenvalues --   -0.42675  -0.41733  -0.41003  -0.40469  -0.33466
 Alpha  occ. eigenvalues --   -0.33106  -0.31230  -0.25756
 Alpha virt. eigenvalues --    0.05592   0.06751   0.07297   0.09929   0.14225
 Alpha virt. eigenvalues --    0.15058   0.15230   0.17401   0.18548   0.19556
 Alpha virt. eigenvalues --    0.20339   0.20424   0.21438   0.22164   0.23678
 Alpha virt. eigenvalues --    0.23943   0.24268   0.25063   0.25791   0.27193
 Alpha virt. eigenvalues --    0.28816   0.32378   0.34933   0.35913   0.37596
 Alpha virt. eigenvalues --    0.38204   0.38767   0.39273   0.40087   0.40949
 Alpha virt. eigenvalues --    0.42532   0.44024   0.45290   0.47443   0.48932
 Alpha virt. eigenvalues --    0.49576   0.50291   0.51816   0.52522   0.53431
 Alpha virt. eigenvalues --    0.53995   0.55810   0.56245   0.56778   0.57012
 Alpha virt. eigenvalues --    0.58516   0.58858   0.59817   0.60049   0.61426
 Alpha virt. eigenvalues --    0.62913   0.63371   0.64727   0.65088   0.65546
 Alpha virt. eigenvalues --    0.67043   0.69686   0.70020   0.71341   0.71531
 Alpha virt. eigenvalues --    0.72728   0.73491   0.74145   0.74506   0.75340
 Alpha virt. eigenvalues --    0.75812   0.76268   0.76835   0.77998   0.78693
 Alpha virt. eigenvalues --    0.79291   0.79922   0.81158   0.81823   0.82461
 Alpha virt. eigenvalues --    0.83068   0.83705   0.84454   0.85602   0.86226
 Alpha virt. eigenvalues --    0.88118   0.89649   0.92042   0.93021   0.93565
 Alpha virt. eigenvalues --    0.94692   0.95904   1.00432   1.02277   1.03866
 Alpha virt. eigenvalues --    1.06243   1.07500   1.11692   1.14192   1.15695
 Alpha virt. eigenvalues --    1.18204   1.20159   1.22757   1.25312   1.27184
 Alpha virt. eigenvalues --    1.28366   1.30480   1.31127   1.31225   1.33353
 Alpha virt. eigenvalues --    1.33856   1.34649   1.36323   1.37317   1.38249
 Alpha virt. eigenvalues --    1.38903   1.40181   1.42499   1.44726   1.47712
 Alpha virt. eigenvalues --    1.54043   1.54737   1.56148   1.59625   1.60056
 Alpha virt. eigenvalues --    1.63388   1.68582   1.74109   1.75498   1.76534
 Alpha virt. eigenvalues --    1.77479   1.78477   1.79203   1.80166   1.80864
 Alpha virt. eigenvalues --    1.82198   1.83636   1.83942   1.84380   1.84950
 Alpha virt. eigenvalues --    1.85613   1.86322   1.87138   1.87580   1.87987
 Alpha virt. eigenvalues --    1.89322   1.90474   1.91040   1.92237   1.93583
 Alpha virt. eigenvalues --    1.94995   1.96223   1.97556   1.99927   2.00706
 Alpha virt. eigenvalues --    2.02473   2.03232   2.04937   2.05254   2.08805
 Alpha virt. eigenvalues --    2.10020   2.10531   2.13395   2.14926   2.18320
 Alpha virt. eigenvalues --    2.19608   2.20187   2.21908   2.23359   2.24070
 Alpha virt. eigenvalues --    2.24134   2.25727   2.27954   2.28979   2.30023
 Alpha virt. eigenvalues --    2.32025   2.32990   2.36829   2.38196   2.39745
 Alpha virt. eigenvalues --    2.40830   2.41432   2.42039   2.42566   2.43661
 Alpha virt. eigenvalues --    2.46109   2.48597   2.49656   2.51496   2.57559
 Alpha virt. eigenvalues --    2.60151   2.65976   2.66722   2.71250   2.71639
 Alpha virt. eigenvalues --    2.72783   2.74326   2.76563   2.77598   2.78089
 Alpha virt. eigenvalues --    2.84039   2.85038   2.85298   2.85906   2.87923
 Alpha virt. eigenvalues --    2.89404   2.91748   2.94596   2.96843   2.97442
 Alpha virt. eigenvalues --    3.00111   3.01289   3.05860   3.09943   3.12974
 Alpha virt. eigenvalues --    3.13572   3.16765   3.20699   3.24331   3.26129
 Alpha virt. eigenvalues --    3.29657   3.37008   3.49965   3.52981   3.61401
 Alpha virt. eigenvalues --    3.80693   3.83785
          Condensed to atoms (all electrons):
               1          2          3          4          5          6
     1  C    4.389535   0.297844  -0.055496   0.000111   0.000938   0.000033
     2  O    0.297844   7.939423   0.381888  -0.076311   0.004314  -0.000233
     3  C   -0.055496   0.381888   5.146630   0.243897   0.107933  -0.164346
     4  C    0.000111  -0.076311   0.243897   5.264442   0.241645   0.100329
     5  C    0.000938   0.004314   0.107933   0.241645   5.097273   0.274302
     6  C    0.000033  -0.000233  -0.164346   0.100329   0.274302   5.080956
     7  C   -0.000221   0.003116   0.059922  -0.142123   0.082440   0.263845
     8  C    0.007143  -0.084987   0.233147   0.071103  -0.146034   0.122002
     9  N    0.000157  -0.006803  -0.093900   0.007489  -0.000286   0.006999
    10  C    0.000015  -0.000099   0.009324  -0.000254   0.000017   0.000209
    11  C    0.000001   0.000003  -0.000335   0.000028  -0.000025  -0.000027
    12  C    0.000000   0.000000   0.000010   0.000000   0.000001  -0.000023
    13  C    0.000000  -0.000000   0.000001   0.000000  -0.000000   0.000001
    14  C    0.000000  -0.000001  -0.000013  -0.000000   0.000000  -0.000000
    15  C   -0.000001  -0.000086  -0.000115  -0.000008  -0.000000   0.000015
    16  H    0.404423  -0.029875  -0.008873   0.005905   0.000692  -0.000069
    17  H    0.397923  -0.020659   0.005062   0.000286  -0.000038   0.000003
    18  H    0.405125  -0.030527  -0.009093   0.006826   0.000651  -0.000079
    19  H    0.008103  -0.008209  -0.095219   0.467621  -0.063387   0.015861
    20  H   -0.000042  -0.000052   0.015709  -0.071607   0.457385  -0.072769
    21  H    0.000000   0.000004  -0.001588   0.015106  -0.072196   0.454661
    22  H    0.000010  -0.000045   0.018332  -0.003044   0.015765  -0.070892
    23  H   -0.000752   0.025911  -0.029309   0.001514  -0.000157  -0.000163
    24  H    0.000000   0.000003  -0.000450   0.000024  -0.000129   0.001409
    25  H    0.000000  -0.000000   0.000000  -0.000000   0.000000  -0.000003
    26  H   -0.000000   0.000000   0.000000  -0.000000   0.000000  -0.000000
    27  H   -0.000000   0.000000  -0.000000   0.000000  -0.000000   0.000000
    28  H    0.000001  -0.000070  -0.000032  -0.000004   0.000000  -0.000001
               7          8          9         10         11         12
     1  C   -0.000221   0.007143   0.000157   0.000015   0.000001   0.000000
     2  O    0.003116  -0.084987  -0.006803  -0.000099   0.000003   0.000000
     3  C    0.059922   0.233147  -0.093900   0.009324  -0.000335   0.000010
     4  C   -0.142123   0.071103   0.007489  -0.000254   0.000028   0.000000
     5  C    0.082440  -0.146034  -0.000286   0.000017  -0.000025   0.000001
     6  C    0.263845   0.122002   0.006999   0.000209  -0.000027  -0.000023
     7  C    5.185127   0.305074  -0.075682  -0.013584  -0.003710  -0.000217
     8  C    0.305074   5.107700   0.384068  -0.035225  -0.011378   0.000271
     9  N   -0.075682   0.384068   6.421968   0.350468  -0.078138   0.007343
    10  C   -0.013584  -0.035225   0.350468   5.066510   0.255212   0.115081
    11  C   -0.003710  -0.011378  -0.078138   0.255212   5.195424   0.295048
    12  C   -0.000217   0.000271   0.007343   0.115081   0.295048   5.019937
    13  C   -0.000063   0.000050  -0.000297  -0.159763   0.078209   0.290617
    14  C    0.000085  -0.000274   0.007602   0.111763  -0.144334   0.093493
    15  C   -0.000065   0.007421  -0.081261   0.279550   0.058303  -0.145051
    16  H   -0.000025  -0.000223  -0.000068  -0.000002   0.000000   0.000000
    17  H    0.000017   0.000010   0.000010  -0.000001  -0.000000  -0.000000
    18  H   -0.000013  -0.000388   0.000018   0.000002   0.000000   0.000000
    19  H   -0.002303   0.015298  -0.000094   0.000005  -0.000000  -0.000000
    20  H    0.015851  -0.002381   0.000005  -0.000000   0.000000  -0.000000
    21  H   -0.070017   0.015564  -0.000106  -0.000016   0.000027  -0.000002
    22  H    0.471643  -0.080861  -0.012155   0.003399   0.002037   0.001191
    23  H    0.008543  -0.015385   0.359861  -0.021104   0.007284  -0.000090
    24  H    0.002533   0.003105  -0.011642  -0.072944   0.458570  -0.064404
    25  H    0.000047  -0.000018  -0.000118   0.015190  -0.067701   0.452803
    26  H    0.000000   0.000000   0.000010  -0.001636   0.015000  -0.069715
    27  H   -0.000000   0.000004  -0.000116   0.015238  -0.001963   0.014058
    28  H    0.000020   0.000204  -0.009162  -0.079492   0.017240  -0.002584
              13         14         15         16         17         18
     1  C    0.000000   0.000000  -0.000001   0.404423   0.397923   0.405125
     2  O   -0.000000  -0.000001  -0.000086  -0.029875  -0.020659  -0.030527
     3  C    0.000001  -0.000013  -0.000115  -0.008873   0.005062  -0.009093
     4  C    0.000000  -0.000000  -0.000008   0.005905   0.000286   0.006826
     5  C   -0.000000   0.000000  -0.000000   0.000692  -0.000038   0.000651
     6  C    0.000001  -0.000000   0.000015  -0.000069   0.000003  -0.000079
     7  C   -0.000063   0.000085  -0.000065  -0.000025   0.000017  -0.000013
     8  C    0.000050  -0.000274   0.007421  -0.000223   0.000010  -0.000388
     9  N   -0.000297   0.007602  -0.081261  -0.000068   0.000010   0.000018
    10  C   -0.159763   0.111763   0.279550  -0.000002  -0.000001   0.000002
    11  C    0.078209  -0.144334   0.058303   0.000000  -0.000000   0.000000
    12  C    0.290617   0.093493  -0.145051   0.000000  -0.000000   0.000000
    13  C    5.101591   0.287771   0.080023  -0.000000   0.000000  -0.000000
    14  C    0.287771   5.024129   0.295728  -0.000000   0.000000  -0.000000
    15  C    0.080023   0.295728   5.165721   0.000000   0.000001  -0.000001
    16  H   -0.000000  -0.000000   0.000000   0.652995  -0.023223  -0.042074
    17  H    0.000000   0.000000   0.000001  -0.023223   0.610851  -0.023453
    18  H   -0.000000  -0.000000  -0.000001  -0.042074  -0.023453   0.653649
    19  H    0.000000   0.000000  -0.000000   0.000089  -0.000213  -0.000216
    20  H    0.000000  -0.000000   0.000000   0.000028  -0.000001   0.000030
    21  H    0.000000  -0.000000   0.000000  -0.000000  -0.000000   0.000000
    22  H   -0.000108   0.000022  -0.000510   0.000000  -0.000000  -0.000000
    23  H   -0.000046   0.000386  -0.014747   0.000271  -0.000367   0.000065
    24  H    0.014700  -0.002309   0.015072  -0.000000  -0.000000   0.000000
    25  H   -0.071750   0.014191  -0.001931   0.000000   0.000000  -0.000000
    26  H    0.452735  -0.070633   0.014614   0.000000  -0.000000  -0.000000
    27  H   -0.069984   0.451597  -0.067744   0.000000  -0.000000   0.000000
    28  H    0.015259  -0.062524   0.451202  -0.000000   0.000001  -0.000000
              19         20         21         22         23         24
     1  C    0.008103  -0.000042   0.000000   0.000010  -0.000752   0.000000
     2  O   -0.008209  -0.000052   0.000004  -0.000045   0.025911   0.000003
     3  C   -0.095219   0.015709  -0.001588   0.018332  -0.029309  -0.000450
     4  C    0.467621  -0.071607   0.015106  -0.003044   0.001514   0.000024
     5  C   -0.063387   0.457385  -0.072196   0.015765  -0.000157  -0.000129
     6  C    0.015861  -0.072769   0.454661  -0.070892  -0.000163   0.001409
     7  C   -0.002303   0.015851  -0.070017   0.471643   0.008543   0.002533
     8  C    0.015298  -0.002381   0.015564  -0.080861  -0.015385   0.003105
     9  N   -0.000094   0.000005  -0.000106  -0.012155   0.359861  -0.011642
    10  C    0.000005  -0.000000  -0.000016   0.003399  -0.021104  -0.072944
    11  C   -0.000000   0.000000   0.000027   0.002037   0.007284   0.458570
    12  C   -0.000000  -0.000000  -0.000002   0.001191  -0.000090  -0.064404
    13  C    0.000000   0.000000   0.000000  -0.000108  -0.000046   0.014700
    14  C    0.000000  -0.000000  -0.000000   0.000022   0.000386  -0.002309
    15  C   -0.000000   0.000000   0.000000  -0.000510  -0.014747   0.015072
    16  H    0.000089   0.000028  -0.000000   0.000000   0.000271  -0.000000
    17  H   -0.000213  -0.000001  -0.000000  -0.000000  -0.000367  -0.000000
    18  H   -0.000216   0.000030   0.000000  -0.000000   0.000065   0.000000
    19  H    0.682576  -0.013981  -0.000274   0.000002  -0.000008  -0.000001
    20  H   -0.013981   0.677423  -0.012594  -0.000254   0.000002  -0.000002
    21  H   -0.000274  -0.012594   0.675651  -0.012720   0.000008   0.000059
    22  H    0.000002  -0.000254  -0.012720   0.662863  -0.000156  -0.003528
    23  H   -0.000008   0.000002   0.000008  -0.000156   0.528260  -0.000225
    24  H   -0.000001  -0.000002   0.000059  -0.003528  -0.000225   0.665056
    25  H   -0.000000   0.000000  -0.000000   0.000050   0.000009  -0.013160
    26  H    0.000000  -0.000000   0.000000  -0.000001  -0.000001  -0.000236
    27  H   -0.000000   0.000000   0.000000  -0.000001  -0.000013   0.000021
    28  H   -0.000000  -0.000000   0.000000  -0.000011   0.004430  -0.000196
              25         26         27         28
     1  C    0.000000  -0.000000  -0.000000   0.000001
     2  O   -0.000000   0.000000   0.000000  -0.000070
     3  C    0.000000   0.000000  -0.000000  -0.000032
     4  C   -0.000000  -0.000000   0.000000  -0.000004
     5  C    0.000000   0.000000  -0.000000   0.000000
     6  C   -0.000003  -0.000000   0.000000  -0.000001
     7  C    0.000047   0.000000  -0.000000   0.000020
     8  C   -0.000018   0.000000   0.000004   0.000204
     9  N   -0.000118   0.000010  -0.000116  -0.009162
    10  C    0.015190  -0.001636   0.015238  -0.079492
    11  C   -0.067701   0.015000  -0.001963   0.017240
    12  C    0.452803  -0.069715   0.014058  -0.002584
    13  C   -0.071750   0.452735  -0.069984   0.015259
    14  C    0.014191  -0.070633   0.451597  -0.062524
    15  C   -0.001931   0.014614  -0.067744   0.451202
    16  H    0.000000   0.000000   0.000000  -0.000000
    17  H    0.000000  -0.000000  -0.000000   0.000001
    18  H   -0.000000  -0.000000   0.000000  -0.000000
    19  H   -0.000000   0.000000  -0.000000  -0.000000
    20  H    0.000000  -0.000000   0.000000  -0.000000
    21  H   -0.000000   0.000000   0.000000   0.000000
    22  H    0.000050  -0.000001  -0.000001  -0.000011
    23  H    0.000009  -0.000001  -0.000013   0.004430
    24  H   -0.013160  -0.000236   0.000021  -0.000196
    25  H    0.675171  -0.012442  -0.000271   0.000027
    26  H   -0.012442   0.679217  -0.012495  -0.000241
    27  H   -0.000271  -0.012495   0.674251  -0.013275
    28  H    0.000027  -0.000241  -0.013275   0.690418
 Mulliken charges:
               1
     1  C    0.145152
     2  O   -0.394550
     3  C    0.236918
     4  C   -0.132975
     5  C   -0.001105
     6  C   -0.012018
     7  C   -0.090239
     8  C    0.104991
     9  N   -0.176172
    10  C    0.162137
    11  C   -0.074773
    12  C   -0.007767
    13  C   -0.018947
    14  C   -0.006680
    15  C   -0.056130
    16  H    0.040031
    17  H    0.053791
    18  H    0.039477
    19  H   -0.005649
    20  H    0.007248
    21  H    0.008432
    22  H    0.008972
    23  H    0.145977
    24  H    0.008672
    25  H    0.009905
    26  H    0.005822
    27  H    0.010690
    28  H   -0.011212
 Sum of Mulliken charges =  -0.00000
 Mulliken charges with hydrogens summed into heavy atoms:
               1
     1  C    0.278452
     2  O   -0.394550
     3  C    0.236918
     4  C   -0.138624
     5  C    0.006144
     6  C   -0.003586
     7  C   -0.081266
     8  C    0.104991
     9  N   -0.030195
    10  C    0.162137
    11  C   -0.066101
    12  C    0.002138
    13  C   -0.013125
    14  C    0.004010
    15  C   -0.067342
 Electronic spatial extent (au):  <R**2>=           3846.0510
 Charge=             -0.0000 electrons
 Dipole moment (field-independent basis, Debye):
    X=             -1.6949    Y=             -1.1032    Z=              0.2341  Tot=              2.0358
 Quadrupole moment (field-independent basis, Debye-Ang):
   XX=            -75.7301   YY=            -78.9281   ZZ=            -91.8058
   XY=              4.3432   XZ=             -1.8698   YZ=              1.9390
 Traceless Quadrupole moment (field-independent basis, Debye-Ang):
   XX=              6.4245   YY=              3.2266   ZZ=             -9.6511
   XY=              4.3432   XZ=             -1.8698   YZ=              1.9390
 Octapole moment (field-independent basis, Debye-Ang**2):
  XXX=            -36.2769  YYY=            -16.1021  ZZZ=              2.8116  XYY=            -15.9091
  XXY=            -22.7640  XXZ=              8.9246  XZZ=             -4.0029  YZZ=             -7.3181
  YYZ=             -1.7475  XYZ=             12.9400
 Hexadecapole moment (field-independent basis, Debye-Ang**3):
 XXXX=          -3617.6495 YYYY=          -1010.3780 ZZZZ=           -208.0830 XXXY=             72.4722
 XXXZ=            -28.1417 YYYX=             43.4744 YYYZ=             -3.7165 ZZZX=             -8.4891
 ZZZY=              3.1486 XXYY=           -759.8472 XXZZ=           -729.2217 YYZZ=           -218.4489
 XXYZ=             27.0609 YYXZ=             -8.3988 ZZXY=             23.5692
 N-N= 9.128835559445D+02 E-N=-3.293144792804D+03  KE= 6.260487038199D+02
   1 Symmetry operations used in ECPInt.
 ECPInt:  NShTT=    8385 NPrTT=   30369 LenC2=    7802 LenP2D=   20521.
 LDataN:  DoStor=T MaxTD1= 5 Len=  102
 Calling FoFJK, ICntrl=      2127 FMM=F ISym2X=0 I1Cent= 0 IOpClX= 0 NMat=1 NMatS=1 NMatT=0.
 ***** Axes restored to original set *****
 -------------------------------------------------------------------
 Center     Atomic                   Forces (Hartrees/Bohr)
 Number     Number              X              Y              Z
 -------------------------------------------------------------------
      1        6           0.011802117    0.000880657   -0.002247081
      2        8          -0.003598544    0.030673120   -0.001966007
      3        6           0.006810465   -0.018133346    0.002028108
      4        6           0.003639141   -0.015012505   -0.000202739
      5        6          -0.000470297    0.007692124   -0.000345341
      6        6          -0.003617499    0.002009148    0.000823047
      7        6          -0.000042885   -0.001277723   -0.001527146
      8        6           0.019802212   -0.025462030    0.000169307
      9        7          -0.001527775   -0.002665505    0.000826066
     10        6          -0.022467297   -0.000341158   -0.000428375
     11        6          -0.006840017   -0.000952302    0.000706863
     12        6           0.003126338   -0.000927987   -0.001342633
     13        6           0.007903992    0.002203013    0.000909151
     14        6           0.001438265    0.000152607    0.001816070
     15        6          -0.007970252   -0.000584947   -0.002077608
     16        1          -0.006403747    0.001206538    0.006342784
     17        1           0.003663620   -0.004021279   -0.000146865
     18        1          -0.008258406    0.000156285   -0.004164936
     19        1          -0.010394397   -0.003355141    0.002085709
     20        1          -0.008867314    0.004651906    0.001097729
     21        1           0.001133280    0.009975264   -0.001743161
     22        1           0.009001077    0.004439435   -0.002135972
     23        1           0.002748493    0.007956315    0.000549509
     24        1          -0.006369251    0.007376024    0.004650520
     25        1           0.002235829    0.008435803    0.005765373
     26        1           0.010164836    0.001975831    0.001214110
     27        1           0.006589904   -0.007069179   -0.003983922
     28        1          -0.003231889   -0.009980968   -0.006672562
 -------------------------------------------------------------------
 Cartesian Forces:  Max     0.030673120 RMS     0.007607872

 GradGradGradGradGradGradGradGradGradGradGradGradGradGradGradGradGradGrad
 Berny optimization.
 FormGI is forming the generalized inverse of G from B-inverse, IUseBI=4.
 Internal  Forces:  Max     0.028999571 RMS     0.006268016
 Search for a local minimum.
 Step number   1 out of a maximum of  146
 All quantities printed in internal units (Hartrees-Bohrs-Radians)
 Mixed Optimization -- RFO/linear search
 Second derivative matrix not updated -- first step.
 ITU=  0
     Eigenvalues ---    0.01536   0.01577   0.01587   0.01614   0.01669
     Eigenvalues ---    0.01945   0.01976   0.02013   0.02055   0.02186
     Eigenvalues ---    0.02268   0.02278   0.02289   0.02296   0.02317
     Eigenvalues ---    0.02333   0.02335   0.02350   0.02352   0.02353
     Eigenvalues ---    0.02361   0.02368   0.02372   0.10346   0.10561
     Eigenvalues ---    0.15889   0.15984   0.15988   0.15999   0.15999
     Eigenvalues ---    0.15999   0.16000   0.16000   0.16000   0.16000
     Eigenvalues ---    0.16000   0.16000   0.16000   0.21999   0.22000
     Eigenvalues ---    0.22000   0.22048   0.22483   0.23464   0.24458
     Eigenvalues ---    0.24973   0.24982   0.25000   0.25000   0.34747
     Eigenvalues ---    0.34748   0.34763   0.36264   0.36266   0.36269
     Eigenvalues ---    0.36271   0.36278   0.36475   0.36573   0.36595
     Eigenvalues ---    0.36647   0.41228   0.43049   0.43622   0.43726
     Eigenvalues ---    0.43773   0.44107   0.44209   0.44337   0.45340
     Eigenvalues ---    0.46423   0.47333   0.47890   0.48199   0.48523
     Eigenvalues ---    0.49052   0.49124   0.49751
 RFO step:  Lambda=-1.40785959D-02 EMin= 1.53622947D-02
 Linear search not attempted -- first point.
 Iteration  1 RMS(Cart)=  0.09441568 RMS(Int)=  0.00309886
 Iteration  2 RMS(Cart)=  0.00800844 RMS(Int)=  0.00012154
 Iteration  3 RMS(Cart)=  0.00003934 RMS(Int)=  0.00011996
 Iteration  4 RMS(Cart)=  0.00000001 RMS(Int)=  0.00011996
 Variable       Old X    -DE/DX   Delta X   Delta X   Delta X     New X
                                 (Linear)    (Quad)   (Total)
    R1        2.66054  -0.00003   0.00000  -0.00006  -0.00006   2.66048
    R2        2.06087   0.00823   0.00000   0.02277   0.02277   2.08364
    R3        2.06062   0.00439   0.00000   0.01215   0.01215   2.07276
    R4        2.06087   0.00835   0.00000   0.02309   0.02309   2.08395
    R5        2.64883  -0.02900   0.00000  -0.06203  -0.06203   2.58680
    R6        2.62655   0.00301   0.00000   0.00527   0.00530   2.63186
    R7        2.67468  -0.00194   0.00000  -0.00586  -0.00583   2.66885
    R8        2.60980   0.01564   0.00000   0.03153   0.03154   2.64134
    R9        2.03082   0.01104   0.00000   0.02900   0.02900   2.05982
   R10        2.60550   0.01100   0.00000   0.02299   0.02297   2.62847
   R11        2.03671   0.01000   0.00000   0.02653   0.02653   2.06324
   R12        2.60828   0.01566   0.00000   0.03193   0.03189   2.64017
   R13        2.03650   0.01017   0.00000   0.02698   0.02698   2.06348
   R14        2.61799   0.01196   0.00000   0.02373   0.02372   2.64170
   R15        2.03195   0.01025   0.00000   0.02700   0.02700   2.05894
   R16        2.66205  -0.01481   0.00000  -0.03247  -0.03247   2.62959
   R17        2.66784  -0.01479   0.00000  -0.03277  -0.03277   2.63507
   R18        1.93027  -0.00840   0.00000  -0.01846  -0.01846   1.91181
   R19        2.63548   0.01054   0.00000   0.02167   0.02167   2.65714
   R20        2.63601   0.00878   0.00000   0.01787   0.01786   2.65387
   R21        2.60127   0.01668   0.00000   0.03275   0.03275   2.63403
   R22        2.03161   0.01071   0.00000   0.02819   0.02819   2.05980
   R23        2.61078   0.01296   0.00000   0.02626   0.02627   2.63705
   R24        2.03668   0.01042   0.00000   0.02767   0.02767   2.06435
   R25        2.61075   0.01318   0.00000   0.02655   0.02655   2.63730
   R26        2.03660   0.01042   0.00000   0.02766   0.02766   2.06426
   R27        2.60108   0.01542   0.00000   0.03001   0.03000   2.63109
   R28        2.03663   0.01042   0.00000   0.02767   0.02767   2.06430
   R29        2.03346   0.01242   0.00000   0.03278   0.03278   2.06624
    A1        1.91804   0.00567   0.00000   0.03381   0.03352   1.95156
    A2        1.89535  -0.00709   0.00000  -0.04329  -0.04308   1.85227
    A3        1.91835   0.00592   0.00000   0.03543   0.03514   1.95349
    A4        1.90109  -0.00048   0.00000  -0.00552  -0.00531   1.89577
    A5        1.92929  -0.00376   0.00000  -0.01663  -0.01731   1.91198
    A6        1.90121  -0.00046   0.00000  -0.00509  -0.00487   1.89634
    A7        1.99943   0.01881   0.00000   0.07124   0.07124   2.07067
    A8        2.18850   0.00114   0.00000   0.00629   0.00626   2.19476
    A9        2.02546  -0.01108   0.00000  -0.03998  -0.04001   1.98545
   A10        2.06922   0.00995   0.00000   0.03367   0.03372   2.10293
   A11        2.10825  -0.00290   0.00000  -0.01302  -0.01298   2.09526
   A12        2.08990   0.00283   0.00000   0.01444   0.01440   2.10430
   A13        2.08503   0.00007   0.00000  -0.00138  -0.00141   2.08361
   A14        2.10047  -0.00283   0.00000  -0.00791  -0.00792   2.09255
   A15        2.09121   0.00016   0.00000  -0.00327  -0.00327   2.08794
   A16        2.09146   0.00267   0.00000   0.01116   0.01117   2.10263
   A17        2.09432  -0.00034   0.00000   0.00372   0.00365   2.09797
   A18        2.09497   0.00079   0.00000   0.00170   0.00173   2.09670
   A19        2.09387  -0.00045   0.00000  -0.00545  -0.00542   2.08845
   A20        2.10438  -0.00008   0.00000   0.00110   0.00104   2.10542
   A21        2.09649  -0.00006   0.00000  -0.00099  -0.00097   2.09552
   A22        2.08161   0.00014   0.00000   0.00010   0.00013   2.08174
   A23        2.08916  -0.00380   0.00000  -0.01757  -0.01758   2.07158
   A24        2.04436  -0.00387   0.00000  -0.01326  -0.01328   2.03108
   A25        2.14877   0.00765   0.00000   0.03040   0.03037   2.17914
   A26        2.26296   0.00156   0.00000   0.00681   0.00681   2.26977
   A27        1.97693   0.00014   0.00000   0.00223   0.00222   1.97915
   A28        2.02970  -0.00166   0.00000  -0.00823  -0.00823   2.02146
   A29        2.12951   0.00629   0.00000   0.02447   0.02448   2.15399
   A30        2.08697  -0.00768   0.00000  -0.02844  -0.02843   2.05854
   A31        2.06612   0.00138   0.00000   0.00380   0.00377   2.06989
   A32        2.10669  -0.00169   0.00000  -0.00744  -0.00746   2.09924
   A33        2.08024   0.00221   0.00000   0.01165   0.01165   2.09189
   A34        2.09534  -0.00051   0.00000  -0.00396  -0.00397   2.09137
   A35        2.09703   0.00252   0.00000   0.01211   0.01211   2.10914
   A36        2.09328  -0.00207   0.00000  -0.01074  -0.01075   2.08253
   A37        2.09285  -0.00045   0.00000  -0.00141  -0.00142   2.09143
   A38        2.09263  -0.00396   0.00000  -0.01520  -0.01519   2.07744
   A39        2.09530   0.00205   0.00000   0.00800   0.00799   2.10329
   A40        2.09523   0.00191   0.00000   0.00718   0.00718   2.10241
   A41        2.09653   0.00180   0.00000   0.00813   0.00810   2.10463
   A42        2.09322  -0.00013   0.00000   0.00035   0.00035   2.09357
   A43        2.09343  -0.00167   0.00000  -0.00847  -0.00848   2.08495
   A44        2.10715  -0.00006   0.00000  -0.00139  -0.00143   2.10572
   A45        2.07463   0.00046   0.00000   0.00318   0.00320   2.07783
   A46        2.10135  -0.00040   0.00000  -0.00175  -0.00174   2.09961
    D1       -1.06197  -0.00145   0.00000  -0.01218  -0.01287  -1.07484
    D2       -3.13990   0.00007   0.00000   0.00072   0.00071  -3.13919
    D3        1.06503   0.00141   0.00000   0.01218   0.01288   1.07791
    D4       -0.00875   0.00013   0.00000   0.00333   0.00338  -0.00537
    D5        3.13767   0.00025   0.00000   0.00889   0.00884  -3.13667
    D6       -3.12066  -0.00023   0.00000  -0.00512  -0.00512  -3.12578
    D7        0.01589   0.00013   0.00000   0.00363   0.00367   0.01956
    D8        0.01600  -0.00040   0.00000  -0.01100  -0.01111   0.00489
    D9       -3.13064  -0.00004   0.00000  -0.00225  -0.00232  -3.13296
   D10        3.10089   0.00001   0.00000  -0.00132  -0.00122   3.09967
   D11        0.00321   0.00015   0.00000   0.00865   0.00853   0.01174
   D12       -0.03622   0.00014   0.00000   0.00391   0.00399  -0.03223
   D13       -3.13390   0.00028   0.00000   0.01388   0.01374  -3.12016
   D14        0.00801   0.00042   0.00000   0.00967   0.00959   0.01761
   D15        3.13937   0.00034   0.00000   0.00773   0.00767  -3.13615
   D16       -3.12855   0.00006   0.00000   0.00089   0.00087  -3.12768
   D17        0.00281  -0.00002   0.00000  -0.00105  -0.00106   0.00175
   D18       -0.01197   0.00004   0.00000  -0.00030  -0.00034  -0.01231
   D19        3.12337  -0.00021   0.00000  -0.00545  -0.00548   3.11789
   D20        3.13986   0.00013   0.00000   0.00173   0.00169   3.14155
   D21       -0.00799  -0.00012   0.00000  -0.00342  -0.00345  -0.01144
   D22       -0.00877  -0.00029   0.00000  -0.00696  -0.00697  -0.01575
   D23        3.09230  -0.00011   0.00000  -0.00093  -0.00094   3.09136
   D24        3.13907  -0.00004   0.00000  -0.00184  -0.00188   3.13719
   D25       -0.04304   0.00014   0.00000   0.00419   0.00415  -0.03889
   D26        0.03296   0.00010   0.00000   0.00463   0.00466   0.03762
   D27        3.12789  -0.00037   0.00000  -0.00722  -0.00727   3.12062
   D28       -3.06846  -0.00008   0.00000  -0.00133  -0.00130  -3.06976
   D29        0.02648  -0.00055   0.00000  -0.01317  -0.01324   0.01324
   D30       -2.73209   0.00071   0.00000   0.02499   0.02492  -2.70717
   D31        0.22388   0.00080   0.00000   0.02955   0.02950   0.25338
   D32        0.45504   0.00118   0.00000   0.03670   0.03675   0.49179
   D33       -2.87218   0.00126   0.00000   0.04126   0.04133  -2.83085
   D34        0.33975   0.00117   0.00000   0.03807   0.03807   0.37782
   D35       -2.83924   0.00101   0.00000   0.03276   0.03275  -2.80649
   D36       -2.61158   0.00091   0.00000   0.03243   0.03244  -2.57914
   D37        0.49261   0.00075   0.00000   0.02712   0.02712   0.51973
   D38        3.12464  -0.00015   0.00000  -0.00099  -0.00111   3.12354
   D39        0.02898  -0.00032   0.00000  -0.00696  -0.00706   0.02193
   D40        0.02002   0.00019   0.00000   0.00493   0.00490   0.02492
   D41       -3.07564   0.00003   0.00000  -0.00103  -0.00104  -3.07669
   D42       -3.12742   0.00027   0.00000   0.01053   0.01040  -3.11702
   D43        0.02517   0.00015   0.00000   0.00684   0.00673   0.03190
   D44       -0.02187   0.00023   0.00000   0.00589   0.00583  -0.01604
   D45        3.13073   0.00011   0.00000   0.00219   0.00216   3.13289
   D46       -0.00535  -0.00029   0.00000  -0.00767  -0.00767  -0.01302
   D47       -3.13923  -0.00004   0.00000  -0.00110  -0.00109  -3.14032
   D48        3.08991  -0.00006   0.00000  -0.00125  -0.00131   3.08860
   D49       -0.04396   0.00020   0.00000   0.00532   0.00526  -0.03870
   D50       -0.00796   0.00001   0.00000  -0.00028  -0.00025  -0.00821
   D51        3.14111   0.00008   0.00000   0.00187   0.00188  -3.14020
   D52        3.12591  -0.00025   0.00000  -0.00689  -0.00690   3.11901
   D53       -0.00820  -0.00018   0.00000  -0.00474  -0.00477  -0.01298
   D54        0.00612   0.00042   0.00000   0.01108   0.01109   0.01721
   D55       -3.13467   0.00003   0.00000   0.00133   0.00127  -3.13339
   D56        3.14024   0.00035   0.00000   0.00894   0.00896  -3.13398
   D57       -0.00055  -0.00004   0.00000  -0.00081  -0.00085  -0.00140
   D58        0.00905  -0.00056   0.00000  -0.01401  -0.01406  -0.00502
   D59        3.13947  -0.00043   0.00000  -0.01023  -0.01031   3.12916
   D60       -3.13335  -0.00017   0.00000  -0.00426  -0.00429  -3.13764
   D61       -0.00293  -0.00004   0.00000  -0.00048  -0.00054  -0.00347
         Item               Value     Threshold  Converged?
 Maximum Force            0.029000     0.000450     NO 
 RMS     Force            0.006268     0.000300     NO 
 Maximum Displacement     0.573787     0.001800     NO 
 RMS     Displacement     0.100784     0.001200     NO 
 Predicted change in Energy=-7.395271D-03
 GradGradGradGradGradGradGradGradGradGradGradGradGradGradGradGradGradGrad

                          Input orientation:                          
 ---------------------------------------------------------------------
 Center     Atomic      Atomic             Coordinates (Angstroms)
 Number     Number       Type             X           Y           Z
 ---------------------------------------------------------------------
      1          6           0       -3.197704   -2.399894    0.454622
      2          8           0       -2.015422   -1.683166    0.188931
      3          6           0       -2.092047   -0.325191    0.034503
      4          6           0       -3.254545    0.438052    0.110154
      5          6           0       -3.198007    1.820790   -0.086092
      6          6           0       -1.982313    2.430437   -0.377813
      7          6           0       -0.815168    1.667005   -0.460752
      8          6           0       -0.848501    0.287952   -0.234234
      9          7           0        0.252923   -0.558416   -0.316967
     10          6           0        1.605706   -0.293652   -0.106539
     11          6           0        2.072958    0.794080    0.652165
     12          6           0        3.441077    0.984938    0.838415
     13          6           0        4.368325    0.096788    0.291854
     14          6           0        3.907137   -0.998143   -0.440353
     15          6           0        2.543154   -1.192171   -0.641425
     16          1           0       -3.663154   -2.085296    1.403380
     17          1           0       -2.902725   -3.452771    0.541451
     18          1           0       -3.929678   -2.305106   -0.364740
     19          1           0       -4.213766   -0.032772    0.325430
     20          1           0       -4.112761    2.413203   -0.020177
     21          1           0       -1.937322    3.507182   -0.553711
     22          1           0        0.127559    2.139188   -0.735380
     23          1           0        0.003493   -1.534927   -0.404849
     24          1           0        1.361672    1.469455    1.127601
     25          1           0        3.786794    1.834550    1.431702
     26          1           0        5.439240    0.250895    0.442328
     27          1           0        4.619479   -1.707119   -0.868390
     28          1           0        2.187536   -2.045241   -1.225674
 ---------------------------------------------------------------------
                    Distance matrix (angstroms):
                    1          2          3          4          5
     1  C    0.000000
     2  O    1.407865   0.000000
     3  C    2.388174   1.368874   0.000000
     4  C    2.859341   2.457884   1.392718   0.000000
     5  C    4.255179   3.708349   2.417214   1.397739   0.000000
     6  C    5.049973   4.152592   2.788464   2.413770   1.390928
     7  C    4.801465   3.617505   2.417549   2.790488   2.417011
     8  C    3.635629   2.329394   1.412293   2.435196   2.809219
     9  N    3.986630   2.581934   2.382605   3.671200   4.197957
    10  C    5.274837   3.889809   3.700576   4.919796   5.248518
    11  C    6.166067   4.802727   4.356781   5.366826   5.420537
    12  C    7.461757   6.108518   5.742663   6.757278   6.755057
    13  C    7.968985   6.628051   6.479252   7.632669   7.769453
    14  C    7.296894   5.995162   6.055458   7.324985   7.652121
    15  C    5.968029   4.659525   4.763782   6.069251   6.507476
    16  H    1.102614   2.086053   2.727667   2.864730   4.206233
    17  H    1.096860   2.010742   3.270467   3.930432   5.318971
    18  H    1.102781   2.087520   2.730632   2.864655   4.199525
    19  H    2.579213   2.752299   2.161444   1.090011   2.153325
    20  H    4.922263   4.606820   3.403686   2.157485   1.091821
    21  H    6.123631   5.243790   3.880338   3.405195   2.156829
    22  H    5.751239   4.478516   3.404781   3.879100   3.403283
    23  H    3.425569   2.109636   2.459224   3.843525   4.648876
    24  H    6.017697   4.714327   4.042746   4.838228   4.731507
    25  H    8.226082   6.898153   6.416963   7.299120   7.147820
    26  H    9.034580   7.705633   7.564289   8.702141   8.794647
    27  H    7.958558   6.718661   6.911550   8.219462   8.612271
    28  H    5.652432   4.449388   4.781365   6.129227   6.726731
                    6          7          8          9         10
     6  C    0.000000
     7  C    1.397117   0.000000
     8  C    2.428247   1.397930   0.000000
     9  N    3.732723   2.472648   1.391517   0.000000
    10  C    4.513107   3.135327   2.525411   1.394418   0.000000
    11  C    4.492632   3.215875   3.094639   2.465967   1.406100
    12  C    5.742982   4.502074   4.476254   3.725745   2.428234
    13  C    6.798896   5.468144   5.246770   4.211472   2.818373
    14  C    6.815035   5.422508   4.930784   3.682644   2.429882
    15  C    5.802812   4.414278   3.722888   2.398348   1.404367
    16  H    5.137092   5.066140   4.029436   4.541653   5.766344
    17  H    6.025308   5.619112   4.337573   4.367183   5.543093
    18  H    5.120329   5.048472   4.029223   4.532920   5.895176
    19  H    3.397253   3.880438   3.426528   4.543158   5.841311
    20  H    2.160326   3.409551   3.901013   5.289404   6.327352
    21  H    1.091946   2.157342   3.413362   4.624101   5.215300
    22  H    2.159685   1.089546   2.151956   2.732737   2.915317
    23  H    4.434892   3.305405   2.019380   1.011688   2.048619
    24  H    3.791041   2.701948   2.852264   2.725502   2.165918
    25  H    6.075527   4.978705   5.162681   4.612199   3.413587
    26  H    7.778334   6.475996   6.324144   5.303715   3.910725
    27  H    7.806644   6.409857   5.855021   4.548670   3.414840
    28  H    6.175613   4.835504   3.955283   2.603675   2.158484
                   11         12         13         14         15
    11  C    0.000000
    12  C    1.393867   0.000000
    13  C    2.425851   1.395467   0.000000
    14  C    2.787450   2.405217   1.395599   0.000000
    15  C    2.416538   2.781366   2.421503   1.392311   0.000000
    16  H    6.462051   7.759873   8.396525   7.867055   6.595237
    17  H    6.542586   7.747599   8.095051   7.305023   6.013909
    18  H    6.831595   8.160883   8.663549   7.945411   6.573639
    19  H    6.349279   7.739219   8.583135   8.213857   6.923509
    20  H    6.429364   7.735476   8.797270   8.725400   7.595121
    21  H    4.989730   6.101386   7.218515   7.380279   6.493557
    22  H    2.742112   3.845586   4.817749   4.920885   4.116051
    23  H    3.290022   4.439867   4.711651   3.940538   2.573582
    24  H    1.089999   2.154602   3.409201   3.876457   3.407287
    25  H    2.151160   1.092406   2.158066   3.397532   3.873698
    26  H    3.416275   2.165261   1.092359   2.164846   3.412371
    27  H    3.879801   3.398380   2.159473   1.092379   2.151235
    28  H    3.406046   3.874766   3.412773   2.161058   1.093407
                   16         17         18         19         20
    16  H    0.000000
    17  H    1.786382   0.000000
    18  H    1.801555   1.786883   0.000000
    19  H    2.382856   3.669045   2.391766   0.000000
    20  H    4.739742   6.015752   4.734415   2.472335   0.000000
    21  H    6.171265   7.111423   6.147186   4.299577   2.492786
    22  H    6.065481   6.487136   6.029121   4.968886   4.308934
    23  H    4.125154   3.608284   4.008069   4.535973   5.716577
    24  H    6.161265   6.538881   6.668792   5.829723   5.672519
    25  H    8.418297   8.573097   8.939122   8.289734   8.052687
    26  H    9.446427   9.127724   9.744800   9.657880   9.804601
    27  H    8.596858   7.849746   8.584832   9.069447   9.692705
    28  H    6.414366   5.569078   6.182964   6.887134   7.811830
                   21         22         23         24         25
    21  H    0.000000
    22  H    2.483575   0.000000
    23  H    5.404794   3.691039   0.000000
    24  H    4.226406   2.332869   3.635845   0.000000
    25  H    6.285307   4.263690   5.388847   2.471233   0.000000
    26  H    8.124602   5.759045   5.783962   4.310573   2.493471
    27  H    8.383293   5.915160   4.642397   4.968693   4.304324
    28  H    6.949489   4.689706   2.388350   4.309645   4.967097
                   26         27         28
    26  H    0.000000
    27  H    2.494756   0.000000
    28  H    4.316022   2.481194   0.000000
 Stoichiometry    C13H13NO
 Framework group  C1[X(C13H13NO)]
 Deg. of freedom    78
 Full point group                 C1      NOp   1
 Largest Abelian subgroup         C1      NOp   1
 Largest concise Abelian subgroup C1      NOp   1
                         Standard orientation:                         
 ---------------------------------------------------------------------
 Center     Atomic      Atomic             Coordinates (Angstroms)
 Number     Number       Type             X           Y           Z
 ---------------------------------------------------------------------
      1          6           0       -3.134899   -2.463854    0.439923
      2          8           0       -1.965572   -1.725614    0.175800
      3          6           0       -2.064696   -0.367574    0.035383
      4          6           0       -3.238881    0.376104    0.124242
      5          6           0       -3.205464    1.761459   -0.058378
      6          6           0       -2.001144    2.393432   -0.349763
      7          6           0       -0.822345    1.649712   -0.445934
      8          6           0       -0.832471    0.268113   -0.233118
      9          7           0        0.281945   -0.559587   -0.329601
     10          6           0        1.631336   -0.275236   -0.122986
     11          6           0        2.084846    0.812249    0.644363
     12          6           0        3.450636    1.023195    0.825986
     13          6           0        4.389281    0.155544    0.266115
     14          6           0        3.942080   -0.939306   -0.474839
     15          6           0        2.580403   -1.153206   -0.671336
     16          1           0       -3.600640   -2.166240    1.394002
     17          1           0       -2.822670   -3.512669    0.514767
     18          1           0       -3.872331   -2.372678   -0.374943
     19          1           0       -4.189365   -0.112189    0.339356
     20          1           0       -4.129252    2.338415    0.017847
     21          1           0       -1.974272    3.472460   -0.515055
     22          1           0        0.111331    2.139690   -0.720305
     23          1           0        0.047756   -1.539055   -0.426092
     24          1           0        1.365190    1.471341    1.129946
     25          1           0        3.785625    1.872297    1.426116
     26          1           0        5.458319    0.325327    0.413015
     27          1           0        4.663564   -1.632448   -0.913369
     28          1           0        2.235615   -2.006016   -1.262416
 ---------------------------------------------------------------------
 Rotational constants (GHZ):           1.2128949           0.3462953           0.2816294
 Standard basis: def2SVP (5D, 7F)
 There are   290 symmetry adapted cartesian basis functions of A   symmetry.
 There are   275 symmetry adapted basis functions of A   symmetry.
   275 basis functions,   466 primitive gaussians,   290 cartesian basis functions
    53 alpha electrons       53 beta electrons
       nuclear repulsion energy       910.6573640277 Hartrees.
 NAtoms=   28 NActive=   28 NUniq=   28 SFac= 1.00D+00 NAtFMM=   60 NAOKFM=F Big=F
 Integral buffers will be    131072 words long.
 Raffenetti 2 integral format.
 Two-electron integral symmetry is turned on.
 Nuclear repulsion after empirical dispersion term =      910.6407607850 Hartrees.
 One-electron integrals computed using PRISM.
   1 Symmetry operations used in ECPInt.
 ECPInt:  NShTT=    8385 NPrTT=   30369 LenC2=    7798 LenP2D=   20510.
 LDataN:  DoStor=T MaxTD1= 4 Len=   56
 NBasis=   275 RedAO= T EigKep=  2.10D-04  NBF=   275
 NBsUse=   275 1.00D-06 EigRej= -1.00D+00 NBFU=   275
 Initial guess from the checkpoint file:  "prod_3f_1.chk"
 B after Tr=     0.000000   -0.000000   -0.000000
         Rot=    0.999924   -0.006298   -0.002683   -0.010244 Ang=  -1.41 deg.
 ExpMin= 1.22D-01 ExpMax= 2.27D+03 ExpMxC= 3.41D+02 IAcc=3 IRadAn=         5 AccDes= 0.00D+00
 Harris functional with IExCor= 4639 and IRadAn=       5 diagonalized for initial guess.
 HarFok:  IExCor= 4639 AccDes= 0.00D+00 IRadAn=         5 IDoV= 1 UseB2=F ITyADJ=14
 ICtDFT=  3500011 ScaDFX=  1.000000  1.000000  1.000000  1.000000
 FoFCou: FMM=F IPFlag=           0 FMFlag=      100000 FMFlg1=           0
         NFxFlg=           0 DoJE=T BraDBF=F KetDBF=T FulRan=T
         wScrn=  0.000000 ICntrl=       500 IOpCl=  0 I1Cent=   200000004 NGrid=           0
         NMat0=    1 NMatS0=      1 NMatT0=    0 NMatD0=    1 NMtDS0=    0 NMtDT0=    0
 Petite list used in FoFCou.
 Requested convergence on RMS density matrix=1.00D-08 within 128 cycles.
 Requested convergence on MAX density matrix=1.00D-06.
 Requested convergence on             energy=1.00D-06.
 No special actions if energy rises.
 Integral accuracy reduced to 1.0D-05 until final iterations.
 Initial convergence to 1.0D-05 achieved.  Increase integral accuracy.
 SCF Done:  E(RwB97XD) =  -632.517111576     A.U. after   13 cycles
            NFock= 13  Conv=0.95D-08     -V/T= 2.0110
   1 Symmetry operations used in ECPInt.
 ECPInt:  NShTT=    8385 NPrTT=   30369 LenC2=    7798 LenP2D=   20510.
 LDataN:  DoStor=T MaxTD1= 5 Len=  102
 Calling FoFJK, ICntrl=      2127 FMM=F ISym2X=0 I1Cent= 0 IOpClX= 0 NMat=1 NMatS=1 NMatT=0.
 ***** Axes restored to original set *****
 -------------------------------------------------------------------
 Center     Atomic                   Forces (Hartrees/Bohr)
 Number     Number              X              Y              Z
 -------------------------------------------------------------------
      1        6           0.005512616   -0.000373079   -0.000903552
      2        8          -0.008796865    0.006038942    0.000696372
      3        6          -0.001415071   -0.006005333    0.001630576
      4        6           0.000836179   -0.003577665    0.000050077
      5        6           0.001849909    0.002170588   -0.000694004
      6        6          -0.001426444   -0.001316021    0.000729892
      7        6          -0.000721514   -0.000914593   -0.000239680
      8        6           0.006903163   -0.000217696   -0.001007087
[...]
     8  C    0.001990  -0.063757   0.366759   0.073476  -0.113777   0.033944
     9  N   -0.000121  -0.020126  -0.100383   0.014382  -0.002527   0.005535
    10  C   -0.000262   0.002943   0.006852   0.003610  -0.001070   0.000259
    11  C    0.000008   0.000383  -0.002209   0.001506  -0.001078   0.006651
    12  C    0.000001  -0.000015   0.000026  -0.000064   0.000045  -0.000120
    13  C   -0.000000   0.000004  -0.000050   0.000013  -0.000007   0.000048
    14  C    0.000002  -0.000056   0.000077  -0.000046   0.000016  -0.000076
    15  C    0.000041  -0.001173  -0.002411  -0.000570   0.000185  -0.000393
    16  H    0.418658  -0.038450  -0.009994   0.002016   0.000862  -0.000390
    17  H    0.397565  -0.031021   0.007025  -0.000412   0.000157  -0.000019
    18  H    0.418257  -0.044934  -0.012843   0.012160  -0.001235   0.000296
    19  H    0.007196  -0.003737  -0.059977   0.425154  -0.020806   0.005308
    20  H   -0.000074  -0.000106   0.011679  -0.054809   0.439885  -0.056602
    21  H   -0.000003   0.000014  -0.004436   0.014722  -0.063531   0.450000
    22  H    0.000021  -0.000080   0.007634  -0.003071   0.007960  -0.033314
    23  H   -0.000251   0.025213  -0.024873  -0.000724   0.000123  -0.000726
    24  H   -0.000003   0.000084  -0.002023   0.000480  -0.000413   0.002622
    25  H    0.000000  -0.000000   0.000017  -0.000002   0.000002  -0.000021
    26  H   -0.000000   0.000000   0.000000   0.000000  -0.000000   0.000000
    27  H   -0.000000   0.000000  -0.000000   0.000000  -0.000000   0.000000
    28  H    0.000008  -0.000066  -0.000086  -0.000007   0.000001  -0.000002
               7          8          9         10         11         12
     1  C   -0.000996   0.001990  -0.000121  -0.000262   0.000008   0.000001
     2  O    0.005710  -0.063757  -0.020126   0.002943   0.000383  -0.000015
     3  C    0.094352   0.366759  -0.100383   0.006852  -0.002209   0.000026
     4  C   -0.157836   0.073476   0.014382   0.003610   0.001506  -0.000064
     5  C    0.075259  -0.113777  -0.002527  -0.001070  -0.001078   0.000045
     6  C    0.365115   0.033944   0.005535   0.000259   0.006651  -0.000120
     7  C    5.326101   0.285063  -0.053737  -0.007702  -0.015661   0.005640
     8  C    0.285063   5.010635   0.353179  -0.085550  -0.008342   0.000650
     9  N   -0.053737   0.353179   6.504714   0.261079  -0.035960   0.002580
    10  C   -0.007702  -0.085550   0.261079   4.964540   0.353820   0.005933
    11  C   -0.015661  -0.008342  -0.035960   0.353820   5.284941   0.406306
    12  C    0.005640   0.000650   0.002580   0.005933   0.406306   4.905504
    13  C   -0.000857  -0.000811   0.000738  -0.081837   0.037014   0.451187
    14  C    0.001194   0.001984   0.012465  -0.018742  -0.102115   0.014501
    15  C    0.008081   0.006295  -0.028993   0.374284   0.034297  -0.077111
    16  H    0.000580  -0.001340  -0.000475  -0.000142  -0.000014   0.000001
    17  H    0.000058   0.000086   0.000174  -0.000012  -0.000002  -0.000000
    18  H   -0.000666  -0.000605   0.000164   0.000149   0.000009  -0.000000
    19  H   -0.000695   0.005922  -0.000087   0.000034   0.000001  -0.000000
    20  H    0.013157  -0.003681   0.000004  -0.000003  -0.000003   0.000000
    21  H   -0.067032   0.017485  -0.000161   0.000011   0.000098  -0.000013
    22  H    0.436521  -0.054339   0.001023   0.002628  -0.008336   0.001440
    23  H    0.014131  -0.036468   0.395439  -0.067105   0.001942   0.000246
    24  H   -0.009339   0.001428   0.002993  -0.048836   0.431761  -0.027874
    25  H    0.000108   0.000068  -0.000220   0.014525  -0.058606   0.440175
    26  H   -0.000004  -0.000005  -0.000001  -0.004422   0.013698  -0.060174
    27  H   -0.000005  -0.000007  -0.000276   0.014411  -0.002728   0.010147
    28  H    0.000083   0.001313   0.003047  -0.076624   0.005585  -0.002051
              13         14         15         16         17         18
     1  C   -0.000000   0.000002   0.000041   0.418658   0.397565   0.418257
     2  O    0.000004  -0.000056  -0.001173  -0.038450  -0.031021  -0.044934
     3  C   -0.000050   0.000077  -0.002411  -0.009994   0.007025  -0.012843
     4  C    0.000013  -0.000046  -0.000570   0.002016  -0.000412   0.012160
     5  C   -0.000007   0.000016   0.000185   0.000862   0.000157  -0.001235
     6  C    0.000048  -0.000076  -0.000393  -0.000390  -0.000019   0.000296
     7  C   -0.000857   0.001194   0.008081   0.000580   0.000058  -0.000666
     8  C   -0.000811   0.001984   0.006295  -0.001340   0.000086  -0.000605
     9  N    0.000738   0.012465  -0.028993  -0.000475   0.000174   0.000164
    10  C   -0.081837  -0.018742   0.374284  -0.000142  -0.000012   0.000149
    11  C    0.037014  -0.102115   0.034297  -0.000014  -0.000002   0.000009
    12  C    0.451187   0.014501  -0.077111   0.000001  -0.000000  -0.000000
    13  C    4.951073   0.452748   0.015419  -0.000000   0.000000   0.000000
    14  C    0.452748   4.915235   0.433541   0.000000   0.000000  -0.000001
    15  C    0.015419   0.433541   5.155204   0.000008   0.000012  -0.000016
    16  H   -0.000000   0.000000   0.000008   0.578462  -0.020056  -0.055133
    17  H    0.000000   0.000000   0.000012  -0.020056   0.527592  -0.019659
    18  H    0.000000  -0.000001  -0.000016  -0.055133  -0.019659   0.578537
    19  H    0.000000  -0.000000  -0.000002  -0.002145   0.000108  -0.000938
    20  H   -0.000000   0.000000   0.000000   0.000017   0.000000  -0.000029
    21  H    0.000001  -0.000001   0.000004  -0.000001  -0.000000   0.000002
    22  H   -0.000227   0.000280  -0.000566   0.000003  -0.000000  -0.000004
    23  H   -0.000199   0.002031   0.003657   0.000475  -0.000529  -0.000254
    24  H    0.005718  -0.001481   0.002931  -0.000005  -0.000000   0.000002
    25  H   -0.055598   0.009997  -0.002836   0.000000   0.000000  -0.000000
    26  H    0.445602  -0.057923   0.012804  -0.000000  -0.000000   0.000000
    27  H   -0.057044   0.438315  -0.055948  -0.000000  -0.000000   0.000000
    28  H    0.008418  -0.030252   0.440779  -0.000001   0.000002   0.000002
              19         20         21         22         23         24
     1  C    0.007196  -0.000074  -0.000003   0.000021  -0.000251  -0.000003
     2  O   -0.003737  -0.000106   0.000014  -0.000080   0.025213   0.000084
     3  C   -0.059977   0.011679  -0.004436   0.007634  -0.024873  -0.002023
     4  C    0.425154  -0.054809   0.014722  -0.003071  -0.000724   0.000480
     5  C   -0.020806   0.439885  -0.063531   0.007960   0.000123  -0.000413
     6  C    0.005308  -0.056602   0.450000  -0.033314  -0.000726   0.002622
     7  C   -0.000695   0.013157  -0.067032   0.436521   0.014131  -0.009339
     8  C    0.005922  -0.003681   0.017485  -0.054339  -0.036468   0.001428
     9  N   -0.000087   0.000004  -0.000161   0.001023   0.395439   0.002993
    10  C    0.000034  -0.000003   0.000011   0.002628  -0.067105  -0.048836
    11  C    0.000001  -0.000003   0.000098  -0.008336   0.001942   0.431761
    12  C   -0.000000   0.000000  -0.000013   0.001440   0.000246  -0.027874
    13  C    0.000000  -0.000000   0.000001  -0.000227  -0.000199   0.005718
    14  C   -0.000000   0.000000  -0.000001   0.000280   0.002031  -0.001481
    15  C   -0.000002   0.000000   0.000004  -0.000566   0.003657   0.002931
    16  H   -0.002145   0.000017  -0.000001   0.000003   0.000475  -0.000005
    17  H    0.000108   0.000000  -0.000000  -0.000000  -0.000529  -0.000000
    18  H   -0.000938  -0.000029   0.000002  -0.000004  -0.000254   0.000002
    19  H    0.517663  -0.005225  -0.000181   0.000023  -0.000034   0.000001
    20  H   -0.005225   0.547901  -0.007523  -0.000107   0.000005  -0.000001
    21  H   -0.000181  -0.007523   0.551614  -0.006177   0.000006   0.000124
    22  H    0.000023  -0.000107  -0.006177   0.486711  -0.000130  -0.008115
    23  H   -0.000034   0.000005   0.000006  -0.000130   0.450352  -0.000533
    24  H    0.000001  -0.000001   0.000124  -0.008115  -0.000533   0.485582
    25  H   -0.000000   0.000000  -0.000001   0.000116   0.000020  -0.006145
    26  H    0.000000  -0.000000   0.000000  -0.000000  -0.000003  -0.000069
    27  H    0.000000  -0.000000   0.000000  -0.000002  -0.000049   0.000043
    28  H   -0.000000   0.000000   0.000000   0.000007   0.002947  -0.000179
              25         26         27         28
     1  C    0.000000  -0.000000  -0.000000   0.000008
     2  O   -0.000000   0.000000   0.000000  -0.000066
     3  C    0.000017   0.000000  -0.000000  -0.000086
     4  C   -0.000002   0.000000   0.000000  -0.000007
     5  C    0.000002  -0.000000  -0.000000   0.000001
     6  C   -0.000021   0.000000   0.000000  -0.000002
     7  C    0.000108  -0.000004  -0.000005   0.000083
     8  C    0.000068  -0.000005  -0.000007   0.001313
     9  N   -0.000220  -0.000001  -0.000276   0.003047
    10  C    0.014525  -0.004422   0.014411  -0.076624
    11  C   -0.058606   0.013698  -0.002728   0.005585
    12  C    0.440175  -0.060174   0.010147  -0.002051
    13  C   -0.055598   0.445602  -0.057044   0.008418
    14  C    0.009997  -0.057923   0.438315  -0.030252
    15  C   -0.002836   0.012804  -0.055948   0.440779
    16  H    0.000000  -0.000000  -0.000000  -0.000001
    17  H    0.000000  -0.000000  -0.000000   0.000002
    18  H   -0.000000   0.000000   0.000000   0.000002
    19  H   -0.000000   0.000000   0.000000  -0.000000
    20  H    0.000000  -0.000000  -0.000000   0.000000
    21  H   -0.000001   0.000000   0.000000   0.000000
    22  H    0.000116  -0.000000  -0.000002   0.000007
    23  H    0.000020  -0.000003  -0.000049   0.002947
    24  H   -0.006145  -0.000069   0.000043  -0.000179
    25  H    0.547642  -0.007068  -0.000189   0.000040
    26  H   -0.007068   0.548678  -0.006709  -0.000124
    27  H   -0.000189  -0.006709   0.551443  -0.008064
    28  H    0.000040  -0.000124  -0.008064   0.538837
 Mulliken charges:
               1
     1  C   -0.223749
     2  O   -0.336810
     3  C    0.278058
     4  C   -0.216193
     5  C   -0.174651
     6  C   -0.109754
     7  C   -0.316623
     8  C    0.208406
     9  N   -0.314449
    10  C    0.387225
    11  C   -0.342968
    12  C   -0.076957
    13  C   -0.171354
    14  C   -0.071692
    15  C   -0.317525
    16  H    0.127066
    17  H    0.138931
    18  H    0.126739
    19  H    0.132416
    20  H    0.115516
    21  H    0.114980
    22  H    0.170103
    23  H    0.235289
    24  H    0.171249
    25  H    0.117976
    26  H    0.115719
    27  H    0.116664
    28  H    0.116387
 Sum of Mulliken charges =  -0.00000
 Mulliken charges with hydrogens summed into heavy atoms:
               1
     1  C    0.168987
     2  O   -0.336810
     3  C    0.278058
     4  C   -0.083776
     5  C   -0.059135
     6  C    0.005226
     7  C   -0.146520
     8  C    0.208406
     9  N   -0.079160
    10  C    0.387225
    11  C   -0.171719
    12  C    0.041019
    13  C   -0.055635
    14  C    0.044972
    15  C   -0.201138
 Electronic spatial extent (au):  <R**2>=           3850.2509
 Charge=             -0.0000 electrons
 Dipole moment (field-independent basis, Debye):
    X=             -1.5294    Y=             -1.4835    Z=              0.1513  Tot=              2.1361
 Quadrupole moment (field-independent basis, Debye-Ang):
   XX=            -77.3092   YY=            -78.9889   ZZ=            -92.6135
   XY=              4.9076   XZ=             -1.8044   YZ=              2.4067
 Traceless Quadrupole moment (field-independent basis, Debye-Ang):
   XX=              5.6614   YY=              3.9817   ZZ=             -9.6430
   XY=              4.9076   XZ=             -1.8044   YZ=              2.4067
 Octapole moment (field-independent basis, Debye-Ang**2):
  XXX=            -30.6662  YYY=            -18.4629  ZZZ=              2.9960  XYY=            -16.4344
  XXY=            -21.3488  XXZ=              8.0948  XZZ=             -3.0973  YZZ=             -8.0172
  YYZ=             -2.1629  XYZ=             14.1923
 Hexadecapole moment (field-independent basis, Debye-Ang**3):
 XXXX=          -3637.1842 YYYY=          -1028.5361 ZZZZ=           -223.2348 XXXY=             64.3280
 XXXZ=            -28.1848 YYYX=             43.8621 YYYZ=             -3.6548 ZZZX=             -9.1838
 ZZZY=              5.0688 XXYY=           -774.5067 XXZZ=           -742.0233 YYZZ=           -225.0630
 XXYZ=             33.6910 YYXZ=             -6.8356 ZZXY=             24.8931
 N-N= 9.113462825333D+02 E-N=-3.295120699891D+03  KE= 6.297572077649D+02
 Breneman (CHELPG) radii used.
 Read replacement radii for each type of atom:
 Atom Element Radius
    1     6    1.50
    2     8    1.70
    3     6    1.50
    4     6    1.50
    5     6    1.50
    6     6    1.50
    7     6    1.50
    8     6    1.50
    9     7    1.70
   10     6    1.50
   11     6    1.50
   12     6    1.50
   13     6    1.50
   14     6    1.50
   15     6    1.50
   16     1    1.45
   17     1    1.45
   18     1    1.45
   19     1    1.45
   20     1    1.45
   21     1    1.45
   22     1    1.45
   23     1    1.45
   24     1    1.45
   25     1    1.45
   26     1    1.45
   27     1    1.45
   28     1    1.45
 Generate Potential Derived Charges using the Breneman model, NDens= 1.
 Grid spacing= 0.300 Box extension= 2.800
 NStep X,Y,Z=   52     43     28   Total possible points=       62608
 Number of Points to Fit=   17623

 **********************************************************************

            Electrostatic Properties Using The SCF Density.

 **********************************************************************

       Atomic Center    1 is at  -3.216858 -2.413023  0.413241
       Atomic Center    2 is at  -2.026077 -1.710368  0.190421
       Atomic Center    3 is at  -2.073319 -0.360872  0.040738
       Atomic Center    4 is at  -3.232328  0.404485  0.099432
       Atomic Center    5 is at  -3.169176  1.790436 -0.086488
       Atomic Center    6 is at  -1.948524  2.394960 -0.350481
       Atomic Center    7 is at  -0.781822  1.629042 -0.421303
       Atomic Center    8 is at  -0.817053  0.249110 -0.208542
       Atomic Center    9 is at   0.284124 -0.591272 -0.277338
       Atomic Center   10 is at   1.633218 -0.299339 -0.103694
       Atomic Center   11 is at   2.093474  0.806103  0.630413
       Atomic Center   12 is at   3.460112  1.023597  0.789625
       Atomic Center   13 is at   4.396261  0.147608  0.243428
       Atomic Center   14 is at   3.943690 -0.963090 -0.469029
       Atomic Center   15 is at   2.582541 -1.181864 -0.648282
       Atomic Center   16 is at  -3.707947 -2.094890  1.349247
       Atomic Center   17 is at  -2.948119 -3.473120  0.496851
       Atomic Center   18 is at  -3.927282 -2.287943 -0.422568
       Atomic Center   19 is at  -4.195070 -0.067966  0.296010
       Atomic Center   20 is at  -4.083569  2.383728 -0.030418
       Atomic Center   21 is at  -1.891136  3.472642 -0.515546
       Atomic Center   22 is at   0.166392  2.108944 -0.664069
       Atomic Center   23 is at   0.047642 -1.569156 -0.383595
       Atomic Center   24 is at   1.380939  1.483037  1.102070
       Atomic Center   25 is at   3.794525  1.889459  1.366059
       Atomic Center   26 is at   5.465187  0.324794  0.375009
       Atomic Center   27 is at   4.659609 -1.665663 -0.901955
       Atomic Center   28 is at   2.237293 -2.044927 -1.223452
   17623 points will be used for fitting atomic charges
 Fitting point charges to electrostatic potential
 Charges from ESP fit, RMS=   0.00397 RRMS=   0.33734:
 ESP charges:
               1
     1  C    0.069320
     2  O   -0.277907
     3  C    0.171512
     4  C   -0.177221
     5  C   -0.178580
     6  C   -0.126368
     7  C   -0.173773
     8  C    0.271022
     9  N   -0.643721
    10  C    0.442770
    11  C   -0.216973
    12  C   -0.069136
    13  C   -0.167863
    14  C   -0.030689
    15  C   -0.304799
    16  H    0.028127
    17  H    0.058496
    18  H    0.028592
    19  H    0.124812
    20  H    0.116085
    21  H    0.108628
    22  H    0.109362
    23  H    0.315803
    24  H    0.101500
    25  H    0.098252
    26  H    0.097578
    27  H    0.087422
    28  H    0.137748
 Sum of ESP charges =  -0.00000
 ESP charges with hydrogens summed into heavy atoms:
               1
     1  C    0.184535
     2  O   -0.277907
     3  C    0.171512
     4  C   -0.052409
     5  C   -0.062495
     6  C   -0.017739
     7  C   -0.064411
     8  C    0.271022
     9  N   -0.327918
    10  C    0.442770
    11  C   -0.115473
    12  C    0.029116
    13  C   -0.070284
    14  C    0.056733
    15  C   -0.167050
 Charge=  -0.00000 Dipole=    -1.5010    -1.4527     0.1333 Tot=     2.0931
 -----------------------------------------------------------------

              Electrostatic Properties (Atomic Units)

 -----------------------------------------------------------------
    Center     Electric         -------- Electric Field --------
               Potential          X             Y             Z
 -----------------------------------------------------------------
    1 Atom    -14.706801
    2 Atom    -22.316051
    3 Atom    -14.708692
    4 Atom    -14.769805
    5 Atom    -14.776238
    6 Atom    -14.776620
    7 Atom    -14.774526
    8 Atom    -14.724960
    9 Atom    -18.363555
   10 Atom    -14.723700
   11 Atom    -14.776073
   12 Atom    -14.771846
   13 Atom    -14.779616
   14 Atom    -14.771270
   15 Atom    -14.774453
   16 Atom     -1.100257
   17 Atom     -1.097425
   18 Atom     -1.100113
   19 Atom     -1.098600
   20 Atom     -1.112670
   21 Atom     -1.113963
   22 Atom     -1.108678
   23 Atom     -1.030669
   24 Atom     -1.109758
   25 Atom     -1.111866
   26 Atom     -1.114422
   27 Atom     -1.110418
   28 Atom     -1.105326
 -----------------------------------------------------------------
 Unable to Open any file for archive entry.
 1\1\GINC-NOTCH467\SP\RwB97XD\def2TZVP\C13H13N1O1\U1366379\17-Feb-2026\
 0\\#N Guess=Read Geom=Check Integral(Ultrafine) Density Pop=(ChelpG,Re
 adRadii) NMR wB97XD def2TZVP\\prod_3f_1\\0,1\C,0,-3.2493599881,-2.3910
 118813,0.4318898732\O,0,-2.0548725157,-1.6952233854,0.20736776\C,0,-2.
 0954018576,-0.3463024593,0.050695181\C,0,-3.2508152889,0.424889829,0.1
 036192694\C,0,-3.1807207652,1.8095497038,-0.0893015372\C,0,-1.95676867
 08,2.4068554372,-0.3544450634\C,0,-0.7936466569,1.6350029811,-0.419481
 807\C,0,-0.8358334643,0.2563660487,-0.1997066953\N,0,0.261404477,-0.58
 96252155,-0.2624403985\C,0,1.6116093888,-0.303271632,-0.0881460166\C,0
 ,2.0760135739,0.8037056629,0.6410177833\C,0,3.4434286601,1.0154637376,
 0.8012895534\C,0,4.3762181495,0.1322071819,0.2610817091\C,0,3.91943969
 55,-0.9799525452,-0.4463927332\C,0,2.5575387147,-1.1931195157,-0.62669
 03512\H,0,-3.7403833288,-2.0657282773,1.365469204\H,0,-2.9858435713,-3
 .4519403875,0.5213602029\H,0,-3.9578639929,-2.2668214236,-0.4056799922
 \H,0,-4.2161209688,-0.0419272347,0.3010820639\H,0,-4.0923421019,2.4074
 9618,-0.0377303833\H,0,-1.8939498847,3.483388208,-0.524940133\H,0,0.15
 72398307,2.1091034035,-0.6631933669\H,0,0.0203982131,-1.5668973533,-0.
 3640602742\H,0,1.3659971866,1.4864582777,1.1080628274\H,0,3.7810894699
 ,1.8826614204,1.3738090321\H,0,5.4457741967,0.3049427347,0.393454611\H
 ,0,4.6326566195,-1.6881604248,-0.8745715718\H,0,2.2090548802,-2.057459
 0711,-1.1979787468\\Version=ES64L-G16RevC.01\State=1-A\HF=-633.1897627
 \RMSD=1.350e-09\Dipole=-0.6046185,-0.5804497,0.0615454\Quadrupole=4.24
 82332,2.9435001,-7.1917333,3.6329362,-1.3336891,1.7495536\PG=C01 [X(C1
 3H13N1O1)]\\@
 The archive entry for this job was punched.


 YOU ARE IN A MAZE OF TWISTY LITTLE PASSAGES.
 Job cpu time:       0 days  0 hours 48 minutes 52.0 seconds.
 Elapsed time:       0 days  0 hours  6 minutes 17.7 seconds.
 File lengths (MBytes):  RWF=    183 Int=      0 D2E=      0 Chk=     28 Scr=      2
 Normal termination of Gaussian 16 at Tue Feb 17 16:12:59 2026.
