 Entering Gaussian System, Link 0=g16
 Input=prod_5f_3.com
 Output=prod_5f_3.log
 Initial command:
 /uufs/chpc.utah.edu/sys/installdir/gaussian16/C01/AVX/g16/l1.exe "/scratch/general/vast/u1366379/GAUSSSCRDIR/11028653-notchpeak.peaks/Gau-2805310.inp" -scrdir="/scratch/general/vast/u1366379/GAUSSSCRDIR/11028653-notchpeak.peaks/"
 Entering Link 1 = /uufs/chpc.utah.edu/sys/installdir/gaussian16/C01/AVX/g16/l1.exe PID=   2805314.
  
 Copyright (c) 1988-2019, Gaussian, Inc.  All Rights Reserved.
  
 This is part of the Gaussian(R) 16 program.  It is based on
 the Gaussian(R) 09 system (copyright 2009, Gaussian, Inc.),
 the Gaussian(R) 03 system (copyright 2003, Gaussian, Inc.),
 the Gaussian(R) 98 system (copyright 1998, Gaussian, Inc.),
 the Gaussian(R) 94 system (copyright 1995, Gaussian, Inc.),
 the Gaussian 92(TM) system (copyright 1992, Gaussian, Inc.),
 the Gaussian 90(TM) system (copyright 1990, Gaussian, Inc.),
 the Gaussian 88(TM) system (copyright 1988, Gaussian, Inc.),
 the Gaussian 86(TM) system (copyright 1986, Carnegie Mellon
 University), and the Gaussian 82(TM) system (copyright 1983,
 Carnegie Mellon University). Gaussian is a federally registered
 trademark of Gaussian, Inc.
  
 This software contains proprietary and confidential information,
 including trade secrets, belonging to Gaussian, Inc.
  
 This software is provided under written license and may be
 used, copied, transmitted, or stored only in accord with that
 written license.
  
 The following legend is applicable only to US Government
 contracts under FAR:
  
                    RESTRICTED RIGHTS LEGEND
  
 Use, reproduction and disclosure by the US Government is
 subject to restrictions as set forth in subparagraphs (a)
 and (c) of the Commercial Computer Software - Restricted
 Rights clause in FAR 52.227-19.
  
 Gaussian, Inc.
 340 Quinnipiac St., Bldg. 40, Wallingford CT 06492
  
  
 ---------------------------------------------------------------
 Warning -- This program may not be used in any manner that
 competes with the business of Gaussian, Inc. or will provide
 assistance to any competitor of Gaussian, Inc.  The licensee
 of this program is prohibited from giving any competitor of
 Gaussian, Inc. access to this program.  By using this program,
 the user acknowledges that Gaussian, Inc. is engaged in the
 business of creating and licensing software in the field of
 computational chemistry and represents and warrants to the
 licensee that it is not a competitor of Gaussian, Inc. and that
 it will not use this program in any manner prohibited above.
 ---------------------------------------------------------------
  

 Cite this work as:
 Gaussian 16, Revision C.01,
 M. J. Frisch, G. W. Trucks, H. B. Schlegel, G. E. Scuseria, 
 M. A. Robb, J. R. Cheeseman, G. Scalmani, V. Barone, 
 G. A. Petersson, H. Nakatsuji, X. Li, M. Caricato, A. V. Marenich, 
 J. Bloino, B. G. Janesko, R. Gomperts, B. Mennucci, H. P. Hratchian, 
 J. V. Ortiz, A. F. Izmaylov, J. L. Sonnenberg, D. Williams-Young, 
 F. Ding, F. Lipparini, F. Egidi, J. Goings, B. Peng, A. Petrone, 
 T. Henderson, D. Ranasinghe, V. G. Zakrzewski, J. Gao, N. Rega, 
 G. Zheng, W. Liang, M. Hada, M. Ehara, K. Toyota, R. Fukuda, 
 J. Hasegawa, M. Ishida, T. Nakajima, Y. Honda, O. Kitao, H. Nakai, 
 T. Vreven, K. Throssell, J. A. Montgomery, Jr., J. E. Peralta, 
 F. Ogliaro, M. J. Bearpark, J. J. Heyd, E. N. Brothers, K. N. Kudin, 
 V. N. Staroverov, T. A. Keith, R. Kobayashi, J. Normand, 
 K. Raghavachari, A. P. Rendell, J. C. Burant, S. S. Iyengar, 
 J. Tomasi, M. Cossi, J. M. Millam, M. Klene, C. Adamo, R. Cammi, 
 J. W. Ochterski, R. L. Martin, K. Morokuma, O. Farkas, 
 J. B. Foresman, and D. J. Fox, Gaussian, Inc., Wallingford CT, 2019.
 
 ******************************************
 Gaussian 16:  ES64L-G16RevC.01  3-Jul-2019
                17-Feb-2026 
 ******************************************
 %NProcShared=8
 Will use up to    8 processors via shared memory.
 %Mem=8GB
 %chk=prod_5f_3.chk
 ------------------------------------------------------
 #N OPT FREQ=NORAMAN Integral(Ultrafine) wB97XD def2SVP
 ------------------------------------------------------
 1/18=20,19=15,26=4,38=1/1,3;
 2/9=110,12=2,17=6,18=5,40=1/2;
 3/5=43,7=101,11=2,25=1,30=1,71=1,74=-58,75=-5/1,2,3;
 4//1;
 5/5=2,38=5/2;
 6/7=2,8=2,9=2,10=2,28=1/1;
 7//1,2,3,16;
 1/18=20,19=15,26=4/3(2);
 2/9=110/2;
 99//99;
 2/9=110/2;
 3/5=43,7=101,11=2,25=1,30=1,71=1,74=-58,75=-5/1,2,3;
 4/5=5,16=3,69=1/1;
 5/5=2,38=5/2;
 7//1,2,3,16;
 1/18=20,19=15,26=4/3(-5);
 2/9=110/2;
 6/7=2,8=2,9=2,10=2,19=2,28=1/1;
 99/9=1/99;
 ---------
 prod_5f_3
 ---------
 Symbolic Z-matrix:
 Charge =  0 Multiplicity = 1
 Cl                   -2.90195  -2.0694    0.5749 
 C                    -2.35681  -0.48511   0.14945 
 C                    -1.0179   -0.17185   0.2632 
 C                    -0.54599   1.09543  -0.0684 
 N                     0.84478   1.39709   0.07331 
 C                     1.24702   2.72515   0.53645 
 C                     1.84454   0.38389  -0.05439 
 C                     2.97665   0.37245   0.76027 
 C                     3.93006  -0.61171   0.62575 
 C                     3.77607  -1.60302  -0.32358 
 C                     2.66223  -1.60646  -1.13991 
 C                     1.70726  -0.62425  -1.00813 
 C                    -1.46842   2.04252  -0.52097 
 C                    -2.80684   1.72791  -0.63597 
 C                    -3.25615   0.46724  -0.30178 
 H                    -0.33663  -0.91852   0.62728 
 H                     1.0917    2.80528   1.61058 
 H                     0.67286   3.50404   0.04186 
 H                     2.29832   2.90033   0.31668 
 H                     3.088     1.12963   1.51616 
 H                     4.79746  -0.61084   1.26545 
 H                     4.52317  -2.37287  -0.42638 
 H                     2.541    -2.37873  -1.88181 
 H                     0.84455  -0.61581  -1.65115 
 H                    -1.12616   3.01997  -0.8085 
 H                    -3.50447   2.46839  -0.99141 
 H                    -4.29751   0.20744  -0.38654 
 

 GradGradGradGradGradGradGradGradGradGradGradGradGradGradGradGradGradGrad
 Berny optimization.
 Initialization pass.
                           ----------------------------
                           !    Initial Parameters    !
                           ! (Angstroms and Degrees)  !
 --------------------------                            --------------------------
 ! Name  Definition              Value          Derivative Info.                !
 --------------------------------------------------------------------------------
 ! R1    R(1,2)                  1.7286         estimate D2E/DX2                !
 ! R2    R(2,3)                  1.3798         estimate D2E/DX2                !
 ! R3    R(2,15)                 1.3854         estimate D2E/DX2                !
 ! R4    R(3,4)                  1.3924         estimate D2E/DX2                !
 ! R5    R(3,16)                 1.0743         estimate D2E/DX2                !
 ! R6    R(4,5)                  1.4301         estimate D2E/DX2                !
 ! R7    R(4,13)                 1.3974         estimate D2E/DX2                !
 ! R8    R(5,6)                  1.4629         estimate D2E/DX2                !
 ! R9    R(5,7)                  1.4291         estimate D2E/DX2                !
 ! R10   R(6,17)                 1.0883         estimate D2E/DX2                !
 ! R11   R(6,18)                 1.0867         estimate D2E/DX2                !
 ! R12   R(6,19)                 1.0882         estimate D2E/DX2                !
 ! R13   R(7,8)                  1.3948         estimate D2E/DX2                !
 ! R14   R(7,12)                 1.3946         estimate D2E/DX2                !
 ! R15   R(8,9)                  1.3768         estimate D2E/DX2                !
 ! R16   R(8,20)                 1.0757         estimate D2E/DX2                !
 ! R17   R(9,10)                 1.3812         estimate D2E/DX2                !
 ! R18   R(9,21)                 1.0778         estimate D2E/DX2                !
 ! R19   R(10,11)                1.381          estimate D2E/DX2                !
 ! R20   R(10,22)                1.0777         estimate D2E/DX2                !
 ! R21   R(11,12)                1.3763         estimate D2E/DX2                !
 ! R22   R(11,23)                1.0777         estimate D2E/DX2                !
 ! R23   R(12,24)                1.076          estimate D2E/DX2                !
 ! R24   R(13,14)                1.3797         estimate D2E/DX2                !
 ! R25   R(13,25)                1.0748         estimate D2E/DX2                !
 ! R26   R(14,15)                1.3794         estimate D2E/DX2                !
 ! R27   R(14,26)                1.0777         estimate D2E/DX2                !
 ! R28   R(15,27)                1.0766         estimate D2E/DX2                !
 ! A1    A(1,2,3)              119.5915         estimate D2E/DX2                !
 ! A2    A(1,2,15)             120.3617         estimate D2E/DX2                !
 ! A3    A(3,2,15)             120.0468         estimate D2E/DX2                !
 ! A4    A(2,3,4)              121.0578         estimate D2E/DX2                !
 ! A5    A(2,3,16)             119.0452         estimate D2E/DX2                !
 ! A6    A(4,3,16)             119.8913         estimate D2E/DX2                !
 ! A7    A(3,4,5)              119.8664         estimate D2E/DX2                !
 ! A8    A(3,4,13)             118.0523         estimate D2E/DX2                !
 ! A9    A(5,4,13)             122.0778         estimate D2E/DX2                !
 ! A10   A(4,5,6)              119.3571         estimate D2E/DX2                !
 ! A11   A(4,5,7)              121.46           estimate D2E/DX2                !
 ! A12   A(6,5,7)              118.6566         estimate D2E/DX2                !
 ! A13   A(5,6,17)             109.8821         estimate D2E/DX2                !
 ! A14   A(5,6,18)             111.181          estimate D2E/DX2                !
 ! A15   A(5,6,19)             110.3552         estimate D2E/DX2                !
 ! A16   A(17,6,18)            108.7255         estimate D2E/DX2                !
 ! A17   A(17,6,19)            108.9875         estimate D2E/DX2                !
 ! A18   A(18,6,19)            107.6455         estimate D2E/DX2                !
 ! A19   A(5,7,8)              121.4284         estimate D2E/DX2                !
 ! A20   A(5,7,12)             120.3155         estimate D2E/DX2                !
 ! A21   A(8,7,12)             118.2561         estimate D2E/DX2                !
 ! A22   A(7,8,9)              120.7204         estimate D2E/DX2                !
 ! A23   A(7,8,20)             119.2536         estimate D2E/DX2                !
 ! A24   A(9,8,20)             120.0086         estimate D2E/DX2                !
 ! A25   A(8,9,10)             120.1977         estimate D2E/DX2                !
 ! A26   A(8,9,21)             119.9164         estimate D2E/DX2                !
 ! A27   A(10,9,21)            119.8855         estimate D2E/DX2                !
 ! A28   A(9,10,11)            119.8692         estimate D2E/DX2                !
 ! A29   A(9,10,22)            120.0655         estimate D2E/DX2                !
 ! A30   A(11,10,22)           120.0652         estimate D2E/DX2                !
 ! A31   A(10,11,12)           120.0855         estimate D2E/DX2                !
 ! A32   A(10,11,23)           119.9631         estimate D2E/DX2                !
 ! A33   A(12,11,23)           119.9514         estimate D2E/DX2                !
 ! A34   A(7,12,11)            120.8709         estimate D2E/DX2                !
 ! A35   A(7,12,24)            118.8126         estimate D2E/DX2                !
 ! A36   A(11,12,24)           120.3123         estimate D2E/DX2                !
 ! A37   A(4,13,14)            120.8512         estimate D2E/DX2                !
 ! A38   A(4,13,25)            119.5248         estimate D2E/DX2                !
 ! A39   A(14,13,25)           119.6027         estimate D2E/DX2                !
 ! A40   A(13,14,15)           120.2766         estimate D2E/DX2                !
 ! A41   A(13,14,26)           119.9207         estimate D2E/DX2                !
 ! A42   A(15,14,26)           119.8024         estimate D2E/DX2                !
 ! A43   A(2,15,14)            119.7152         estimate D2E/DX2                !
 ! A44   A(2,15,27)            119.1861         estimate D2E/DX2                !
 ! A45   A(14,15,27)           121.0986         estimate D2E/DX2                !
 ! D1    D(1,2,3,4)           -179.8664         estimate D2E/DX2                !
 ! D2    D(1,2,3,16)            -0.7329         estimate D2E/DX2                !
 ! D3    D(15,2,3,4)             0.0557         estimate D2E/DX2                !
 ! D4    D(15,2,3,16)          179.1892         estimate D2E/DX2                !
 ! D5    D(1,2,15,14)          179.9154         estimate D2E/DX2                !
 ! D6    D(1,2,15,27)           -0.1644         estimate D2E/DX2                !
 ! D7    D(3,2,15,14)           -0.0061         estimate D2E/DX2                !
 ! D8    D(3,2,15,27)          179.9141         estimate D2E/DX2                !
 ! D9    D(2,3,4,5)            179.3074         estimate D2E/DX2                !
 ! D10   D(2,3,4,13)            -0.025          estimate D2E/DX2                !
 ! D11   D(16,3,4,5)             0.1811         estimate D2E/DX2                !
 ! D12   D(16,3,4,13)         -179.1512         estimate D2E/DX2                !
 ! D13   D(3,4,5,6)           -142.5381         estimate D2E/DX2                !
 ! D14   D(3,4,5,7)             29.0282         estimate D2E/DX2                !
 ! D15   D(13,4,5,6)            36.7665         estimate D2E/DX2                !
 ! D16   D(13,4,5,7)          -151.6672         estimate D2E/DX2                !
 ! D17   D(3,4,13,14)           -0.0553         estimate D2E/DX2                !
 ! D18   D(3,4,13,25)         -178.3694         estimate D2E/DX2                !
 ! D19   D(5,4,13,14)         -179.372          estimate D2E/DX2                !
 ! D20   D(5,4,13,25)            2.314          estimate D2E/DX2                !
 ! D21   D(4,5,6,17)            76.4389         estimate D2E/DX2                !
 ! D22   D(4,5,6,18)           -43.9755         estimate D2E/DX2                !
 ! D23   D(4,5,6,19)          -163.3492         estimate D2E/DX2                !
 ! D24   D(7,5,6,17)           -95.3646         estimate D2E/DX2                !
 ! D25   D(7,5,6,18)           144.2211         estimate D2E/DX2                !
 ! D26   D(7,5,6,19)            24.8474         estimate D2E/DX2                !
 ! D27   D(4,5,7,8)           -141.9691         estimate D2E/DX2                !
 ! D28   D(4,5,7,12)            38.1073         estimate D2E/DX2                !
 ! D29   D(6,5,7,8)             29.6546         estimate D2E/DX2                !
 ! D30   D(6,5,7,12)          -150.2691         estimate D2E/DX2                !
 ! D31   D(5,7,8,9)            179.9223         estimate D2E/DX2                !
 ! D32   D(5,7,8,20)             1.4419         estimate D2E/DX2                !
 ! D33   D(12,7,8,9)            -0.1525         estimate D2E/DX2                !
 ! D34   D(12,7,8,20)         -178.633          estimate D2E/DX2                !
 ! D35   D(5,7,12,11)         -179.9227         estimate D2E/DX2                !
 ! D36   D(5,7,12,24)            0.8172         estimate D2E/DX2                !
 ! D37   D(8,7,12,11)            0.1513         estimate D2E/DX2                !
 ! D38   D(8,7,12,24)         -179.1088         estimate D2E/DX2                !
 ! D39   D(7,8,9,10)             0.0798         estimate D2E/DX2                !
 ! D40   D(7,8,9,21)          -179.6962         estimate D2E/DX2                !
 ! D41   D(20,8,9,10)          178.5488         estimate D2E/DX2                !
 ! D42   D(20,8,9,21)           -1.2272         estimate D2E/DX2                !
 ! D43   D(8,9,10,11)           -0.0016         estimate D2E/DX2                !
 ! D44   D(8,9,10,22)         -179.9396         estimate D2E/DX2                !
 ! D45   D(21,9,10,11)         179.7745         estimate D2E/DX2                !
 ! D46   D(21,9,10,22)          -0.1634         estimate D2E/DX2                !
 ! D47   D(9,10,11,12)           0.0002         estimate D2E/DX2                !
 ! D48   D(9,10,11,23)         179.9423         estimate D2E/DX2                !
 ! D49   D(22,10,11,12)        179.9381         estimate D2E/DX2                !
 ! D50   D(22,10,11,23)         -0.1198         estimate D2E/DX2                !
 ! D51   D(10,11,12,7)          -0.077          estimate D2E/DX2                !
 ! D52   D(10,11,12,24)        179.172          estimate D2E/DX2                !
 ! D53   D(23,11,12,7)         179.9809         estimate D2E/DX2                !
 ! D54   D(23,11,12,24)         -0.7701         estimate D2E/DX2                !
 ! D55   D(4,13,14,15)           0.1053         estimate D2E/DX2                !
 ! D56   D(4,13,14,26)        -179.6881         estimate D2E/DX2                !
 ! D57   D(25,13,14,15)        178.418          estimate D2E/DX2                !
 ! D58   D(25,13,14,26)         -1.3754         estimate D2E/DX2                !
 ! D59   D(13,14,15,2)          -0.0737         estimate D2E/DX2                !
 ! D60   D(13,14,15,27)       -179.9924         estimate D2E/DX2                !
 ! D61   D(26,14,15,2)         179.72           estimate D2E/DX2                !
 ! D62   D(26,14,15,27)         -0.1987         estimate D2E/DX2                !
 --------------------------------------------------------------------------------
 Trust Radius=3.00D-01 FncErr=1.00D-07 GrdErr=1.00D-06 EigMax=2.50D+02 EigMin=1.00D-04
 Number of steps in this run=    145 maximum allowed number of steps=    162.
 GradGradGradGradGradGradGradGradGradGradGradGradGradGradGradGradGradGrad

                          Input orientation:                          
 ---------------------------------------------------------------------
 Center     Atomic      Atomic             Coordinates (Angstroms)
 Number     Number       Type             X           Y           Z
 ---------------------------------------------------------------------
      1         17           0       -2.901950   -2.069400    0.574900
      2          6           0       -2.356810   -0.485110    0.149450
      3          6           0       -1.017900   -0.171850    0.263200
      4          6           0       -0.545990    1.095430   -0.068400
      5          7           0        0.844780    1.397090    0.073310
      6          6           0        1.247020    2.725150    0.536450
      7          6           0        1.844540    0.383890   -0.054390
      8          6           0        2.976650    0.372450    0.760270
      9          6           0        3.930060   -0.611710    0.625750
     10          6           0        3.776070   -1.603020   -0.323580
     11          6           0        2.662230   -1.606460   -1.139910
     12          6           0        1.707260   -0.624250   -1.008130
     13          6           0       -1.468420    2.042520   -0.520970
     14          6           0       -2.806840    1.727910   -0.635970
     15          6           0       -3.256150    0.467240   -0.301780
     16          1           0       -0.336630   -0.918520    0.627280
     17          1           0        1.091700    2.805280    1.610580
     18          1           0        0.672860    3.504040    0.041860
     19          1           0        2.298320    2.900330    0.316680
     20          1           0        3.088000    1.129630    1.516160
     21          1           0        4.797460   -0.610840    1.265450
     22          1           0        4.523170   -2.372870   -0.426380
     23          1           0        2.541000   -2.378730   -1.881810
     24          1           0        0.844550   -0.615810   -1.651150
     25          1           0       -1.126160    3.019970   -0.808500
     26          1           0       -3.504470    2.468390   -0.991410
     27          1           0       -4.297510    0.207440   -0.386540
 ---------------------------------------------------------------------
                    Distance matrix (angstroms):
                    1          2          3          4          5
     1  Cl   0.000000
     2  C    1.728630   0.000000
     3  C    2.692118   1.379765   0.000000
     4  C    3.997566   2.413428   1.392356   0.000000
     5  N    5.128950   3.714654   2.442787   1.430147   0.000000
     6  C    6.340595   4.841811   3.687430   2.497342   1.462887
     7  C    5.379945   4.295120   2.933134   2.494217   1.429126
     8  C    6.368275   5.436387   4.061991   3.690310   2.463061
     9  C    6.985972   6.306158   4.980685   4.840578   3.722824
    10  C    6.754312   6.251856   5.037331   5.101662   4.213151
    11  C    5.840804   5.301947   4.191680   4.329090   3.714342
    12  C    5.083233   4.228004   3.040961   2.986223   2.449326
    13  C    4.490415   2.761813   2.391929   1.397382   2.473993
    14  C    3.986830   2.390998   2.760055   2.415287   3.734548
    15  C    2.707133   1.385421   2.395287   2.791784   4.221722
    16  H    2.812141   2.120682   1.074337   2.140980   2.657943
    17  H    6.386265   4.985357   3.889621   2.902514   2.099326
    18  H    6.642788   5.010369   4.052139   2.701695   2.114186
    19  H    7.197757   5.758420   4.520892   3.390583   2.105169
    20  H    6.855601   5.841339   4.485775   3.964579   2.680557
    21  H    7.866713   7.241881   5.917401   5.765672   4.590932
    22  H    7.498471   7.157468   6.001955   6.152531   5.290826
    23  H    5.979700   5.630307   4.705014   4.988762   4.577824
    24  H    4.593962   3.675316   2.707500   2.714229   2.650571
    25  H    5.564972   3.836372   3.368676   2.142008   2.701098
    26  H    4.838171   3.367766   3.837700   3.389627   4.604051
    27  H    2.838301   2.129138   3.364798   3.868287   5.298101
                    6          7          8          9         10
     6  C    0.000000
     7  C    2.487493   0.000000
     8  C    2.928637   1.394803   0.000000
     9  C    4.282676   2.408984   1.376829   0.000000
    10  C    5.086138   2.784077   2.390875   1.381172   0.000000
    11  C    4.855497   2.410075   2.761454   2.390497   1.380958
    12  C    3.716992   1.394565   2.394160   2.758725   2.388844
    13  C    2.992948   3.734227   4.918268   6.124009   6.390117
    14  C    4.336224   4.876470   6.102091   7.242346   7.384266
    15  C    5.106792   5.107366   6.323348   7.325712   7.330660
    16  H    3.973981   2.630294   3.558386   4.277707   4.276327
    17  H    1.088256   3.033484   3.192918   4.549945   5.511799
    18  H    1.086715   3.334282   3.953532   5.281068   5.987113
    19  H    1.088218   2.583811   2.654634   3.884910   4.782660
    20  H    2.625780   2.137510   1.075681   2.129357   3.365332
    21  H    4.926042   3.383962   2.130121   1.077775   2.133700
    22  H    6.135960   3.861756   3.366993   2.135519   1.077681
    23  H    5.794131   3.384758   3.839189   3.367448   2.134293
    24  H    4.013675   2.132844   3.367114   3.834666   3.366131
    25  H    2.743682   4.042605   5.128689   6.388391   6.755667
    26  H    4.997693   5.816791   7.033226   8.208195   8.368312
    27  H    6.158944   6.153555   7.365854   8.329985   8.274323
                   11         12         13         14         15
    11  C    0.000000
    12  C    1.376252   0.000000
    13  C    5.546207   4.175396   0.000000
    14  C    6.425162   5.103749   1.379700   0.000000
    15  C    6.326920   5.130860   2.392808   1.379439   0.000000
    16  H    3.548152   2.634131   3.371526   3.834231   3.362600
    17  H    5.430949   4.358696   3.417532   4.626697   5.294086
    18  H    5.609936   4.383519   2.652904   3.965149   4.977686
    19  H    4.750289   3.811448   3.952952   5.323981   6.095454
    20  H    3.836949   3.369655   5.073877   6.303867   6.632639
    21  H    3.366931   3.836493   7.035117   8.179886   8.275210
    22  H    2.135324   3.365331   7.443371   8.401748   8.282486
    23  H    1.077735   2.129939   6.121665   6.856822   6.648533
    24  H    2.132303   1.076018   3.700521   4.456037   4.450791
    25  H    5.988788   4.620439   1.074813   2.126939   3.363042
    26  H    7.392878   6.060267   2.132646   1.077653   2.131163
    27  H    7.231582   6.093878   3.374810   2.143861   1.076620
                   16         17         18         19         20
    16  H    0.000000
    17  H    4.107760   0.000000
    18  H    4.573929   1.767647   0.000000
    19  H    4.650059   1.771763   1.755594   0.000000
    20  H    4.088168   2.608051   3.693817   2.279852   0.000000
    21  H    5.182741   5.051895   5.953296   4.412956   2.452416
    22  H    5.181022   6.537387   7.041463   5.771372   4.254489
    23  H    4.087603   6.416480   6.465094   5.723699   4.914672
    24  H    2.584195   4.733268   4.457457   4.283578   4.255759
    25  H    4.265739   3.288912   2.047904   3.606578   5.170742
    26  H    4.911876   5.292318   4.426094   5.964063   7.179195
    27  H    4.240777   6.307206   5.979605   7.158991   7.682217
                   21         22         23         24         25
    21  H    0.000000
    22  H    2.458104   0.000000
    23  H    4.257029   2.459128   0.000000
    24  H    4.912441   4.256708   2.457445   0.000000
    25  H    7.250746   7.819442   6.614077   4.220504   0.000000
    26  H    9.137676   9.391489   7.799685   5.372292   2.448276
    27  H    9.279932   9.190429   7.462528   5.358895   4.259793
                   26         27
    26  H    0.000000
    27  H    2.471169   0.000000
 Stoichiometry    C13H12ClN
 Framework group  C1[X(C13H12ClN)]
 Deg. of freedom    75
 Full point group                 C1      NOp   1
 Largest Abelian subgroup         C1      NOp   1
 Largest concise Abelian subgroup C1      NOp   1
                         Standard orientation:                         
 ---------------------------------------------------------------------
 Center     Atomic      Atomic             Coordinates (Angstroms)
 Number     Number       Type             X           Y           Z
 ---------------------------------------------------------------------
      1         17           0        2.918042   -2.194245   -0.557258
      2          6           0        2.408403   -0.595504   -0.141981
      3          6           0        1.077815   -0.251329   -0.263761
      4          6           0        0.634355    1.028313    0.059526
      5          7           0       -0.748218    1.361978   -0.090412
      6          6           0       -1.116796    2.696890   -0.561793
      7          6           0       -1.772202    0.373254    0.037187
      8          6           0       -2.900360    0.384552   -0.782939
      9          6           0       -3.877355   -0.576200   -0.648430
     10          6           0       -3.751335   -1.566253    0.306322
     11          6           0       -2.641800   -1.591988    1.128099
     12          6           0       -1.663305   -0.633209    0.996347
     13          6           0        1.576698    1.955581    0.512118
     14          6           0        2.906759    1.610074    0.635152
     15          6           0        3.327794    0.337560    0.309133
     16          1           0        0.380867   -0.983490   -0.627633
     17          1           0       -0.954496    2.768131   -1.635517
     18          1           0       -0.526791    3.464418   -0.068090
     19          1           0       -2.164709    2.897862   -0.348001
     20          1           0       -2.990201    1.140475   -1.542938
     21          1           0       -4.741426   -0.557986   -1.292363
     22          1           0       -4.516872   -2.317773    0.409106
     23          1           0       -2.542371   -2.363297    1.874229
     24          1           0       -0.803719   -0.641989    1.643533
     25          1           0        1.256223    2.942208    0.793342
     26          1           0        3.619957    2.335620    0.990494
     27          1           0        4.362318    0.053702    0.400215
 ---------------------------------------------------------------------
 Rotational constants (GHZ):           0.8619338           0.3465476           0.2684246
 Standard basis: def2SVP (5D, 7F)
 There are   289 symmetry adapted cartesian basis functions of A   symmetry.
 There are   274 symmetry adapted basis functions of A   symmetry.
   274 basis functions,   471 primitive gaussians,   289 cartesian basis functions
    57 alpha electrons       57 beta electrons
       nuclear repulsion energy      1008.1893645993 Hartrees.
 NAtoms=   27 NActive=   27 NUniq=   27 SFac= 1.00D+00 NAtFMM=   60 NAOKFM=F Big=F
 Integral buffers will be    131072 words long.
 Raffenetti 2 integral format.
 Two-electron integral symmetry is turned on.
 Nuclear repulsion after empirical dispersion term =     1008.1713710551 Hartrees.
 One-electron integrals computed using PRISM.
   1 Symmetry operations used in ECPInt.
 ECPInt:  NShTT=    8256 NPrTT=   30622 LenC2=    7805 LenP2D=   21061.
 LDataN:  DoStor=T MaxTD1= 4 Len=   56
 NBasis=   274 RedAO= T EigKep=  2.29D-04  NBF=   274
 NBsUse=   274 1.00D-06 EigRej= -1.00D+00 NBFU=   274
 ExpMin= 1.22D-01 ExpMax= 1.04D+04 ExpMxC= 1.57D+03 IAcc=3 IRadAn=         5 AccDes= 0.00D+00
 Harris functional with IExCor= 4639 and IRadAn=       5 diagonalized for initial guess.
 HarFok:  IExCor= 4639 AccDes= 0.00D+00 IRadAn=         5 IDoV= 1 UseB2=F ITyADJ=14
 ICtDFT=  3500011 ScaDFX=  1.000000  1.000000  1.000000  1.000000
 FoFCou: FMM=F IPFlag=           0 FMFlag=      100000 FMFlg1=           0
         NFxFlg=           0 DoJE=T BraDBF=F KetDBF=T FulRan=T
         wScrn=  0.000000 ICntrl=       500 IOpCl=  0 I1Cent=   200000004 NGrid=           0
         NMat0=    1 NMatS0=      1 NMatT0=    0 NMatD0=    1 NMtDS0=    0 NMtDT0=    0
 Petite list used in FoFCou.
 Requested convergence on RMS density matrix=1.00D-08 within 128 cycles.
 Requested convergence on MAX density matrix=1.00D-06.
 Requested convergence on             energy=1.00D-06.
 No special actions if energy rises.
 Integral accuracy reduced to 1.0D-05 until final iterations.
 Initial convergence to 1.0D-05 achieved.  Increase integral accuracy.
 SCF Done:  E(RwB97XD) =  -1016.82249570     A.U. after   16 cycles
            NFock= 16  Conv=0.50D-08     -V/T= 2.0067

 **********************************************************************

            Population analysis using the SCF Density.

 **********************************************************************

 Orbital symmetries:
       Occupied  (A) (A) (A) (A) (A) (A) (A) (A) (A) (A) (A) (A)
                 (A) (A) (A) (A) (A) (A) (A) (A) (A) (A) (A) (A)
                 (A) (A) (A) (A) (A) (A) (A) (A) (A) (A) (A) (A)
                 (A) (A) (A) (A) (A) (A) (A) (A) (A) (A) (A) (A)
                 (A) (A) (A) (A) (A) (A) (A) (A) (A)
       Virtual   (A) (A) (A) (A) (A) (A) (A) (A) (A) (A) (A) (A)
                 (A) (A) (A) (A) (A) (A) (A) (A) (A) (A) (A) (A)
                 (A) (A) (A) (A) (A) (A) (A) (A) (A) (A) (A) (A)
                 (A) (A) (A) (A) (A) (A) (A) (A) (A) (A) (A) (A)
                 (A) (A) (A) (A) (A) (A) (A) (A) (A) (A) (A) (A)
                 (A) (A) (A) (A) (A) (A) (A) (A) (A) (A) (A) (A)
                 (A) (A) (A) (A) (A) (A) (A) (A) (A) (A) (A) (A)
                 (A) (A) (A) (A) (A) (A) (A) (A) (A) (A) (A) (A)
                 (A) (A) (A) (A) (A) (A) (A) (A) (A) (A) (A) (A)
                 (A) (A) (A) (A) (A) (A) (A) (A) (A) (A) (A) (A)
                 (A) (A) (A) (A) (A) (A) (A) (A) (A) (A) (A) (A)
                 (A) (A) (A) (A) (A) (A) (A) (A) (A) (A) (A) (A)
                 (A) (A) (A) (A) (A) (A) (A) (A) (A) (A) (A) (A)
                 (A) (A) (A) (A) (A) (A) (A) (A) (A) (A) (A) (A)
                 (A) (A) (A) (A) (A) (A) (A) (A) (A) (A) (A) (A)
                 (A) (A) (A) (A) (A) (A) (A) (A) (A) (A) (A) (A)
                 (A) (A) (A) (A) (A) (A) (A) (A) (A) (A) (A) (A)
                 (A) (A) (A) (A) (A) (A) (A) (A) (A) (A) (A) (A)
                 (A)
 The electronic state is 1-A.
 Alpha  occ. eigenvalues -- -101.67395 -14.47251 -10.35601 -10.35259 -10.34367
 Alpha  occ. eigenvalues --  -10.33550 -10.30972 -10.30325 -10.30285 -10.30203
 Alpha  occ. eigenvalues --  -10.30026 -10.29921 -10.29779 -10.29534 -10.29258
 Alpha  occ. eigenvalues --   -9.58214  -7.33596  -7.32624  -7.32595  -1.04930
 Alpha  occ. eigenvalues --   -0.98944  -0.95361  -0.93002  -0.85868  -0.84859
 Alpha  occ. eigenvalues --   -0.84166  -0.82384  -0.77987  -0.72188  -0.70353
 Alpha  occ. eigenvalues --   -0.69256  -0.66735  -0.63427  -0.61143  -0.57774
 Alpha  occ. eigenvalues --   -0.57255  -0.56214  -0.54011  -0.53768  -0.52853
 Alpha  occ. eigenvalues --   -0.52226  -0.51676  -0.51082  -0.48994  -0.48377
 Alpha  occ. eigenvalues --   -0.46667  -0.45930  -0.44967  -0.43825  -0.42821
 Alpha  occ. eigenvalues --   -0.42481  -0.39043  -0.38436  -0.34450  -0.33665
 Alpha  occ. eigenvalues --   -0.32316  -0.26828
 Alpha virt. eigenvalues --    0.04599   0.05014   0.06750   0.08351   0.12296
 Alpha virt. eigenvalues --    0.13895   0.15585   0.17086   0.18579   0.19515
 Alpha virt. eigenvalues --    0.20250   0.20808   0.21530   0.21729   0.22503
 Alpha virt. eigenvalues --    0.22943   0.24294   0.24480   0.25059   0.28498
 Alpha virt. eigenvalues --    0.30941   0.33527   0.35272   0.35778   0.36944
 Alpha virt. eigenvalues --    0.37287   0.38766   0.39967   0.41197   0.41524
 Alpha virt. eigenvalues --    0.43024   0.44546   0.46687   0.47467   0.48100
 Alpha virt. eigenvalues --    0.49428   0.50165   0.51401   0.52579   0.53324
 Alpha virt. eigenvalues --    0.53579   0.54848   0.56116   0.56675   0.57736
 Alpha virt. eigenvalues --    0.57906   0.58295   0.59419   0.60674   0.62059
 Alpha virt. eigenvalues --    0.63042   0.64406   0.65302   0.65704   0.67375
 Alpha virt. eigenvalues --    0.68161   0.68931   0.69919   0.71203   0.72202
 Alpha virt. eigenvalues --    0.72407   0.73495   0.74024   0.74828   0.75378
 Alpha virt. eigenvalues --    0.75734   0.76508   0.76834   0.77426   0.78028
 Alpha virt. eigenvalues --    0.78681   0.79259   0.80331   0.81813   0.82277
 Alpha virt. eigenvalues --    0.83170   0.84019   0.84085   0.85983   0.86401
 Alpha virt. eigenvalues --    0.87639   0.88011   0.89022   0.91315   0.91802
 Alpha virt. eigenvalues --    0.92132   0.92536   0.94348   0.96362   0.97738
 Alpha virt. eigenvalues --    1.00654   1.01315   1.03986   1.04323   1.06374
 Alpha virt. eigenvalues --    1.10087   1.11989   1.15571   1.16964   1.18901
 Alpha virt. eigenvalues --    1.21543   1.24866   1.25901   1.29249   1.30554
 Alpha virt. eigenvalues --    1.31988   1.33178   1.33974   1.35123   1.35363
 Alpha virt. eigenvalues --    1.36124   1.37155   1.37893   1.38283   1.40585
 Alpha virt. eigenvalues --    1.41768   1.44536   1.45783   1.50310   1.56201
 Alpha virt. eigenvalues --    1.58020   1.59137   1.62334   1.65265   1.68041
 Alpha virt. eigenvalues --    1.72198   1.76267   1.77158   1.78354   1.78719
 Alpha virt. eigenvalues --    1.80509   1.80947   1.82314   1.82473   1.83375
 Alpha virt. eigenvalues --    1.84226   1.85582   1.86183   1.86508   1.88348
 Alpha virt. eigenvalues --    1.88981   1.90262   1.90493   1.90890   1.91802
 Alpha virt. eigenvalues --    1.92050   1.93526   1.95310   1.97491   1.98446
 Alpha virt. eigenvalues --    1.99779   2.02519   2.04541   2.05433   2.06364
 Alpha virt. eigenvalues --    2.08158   2.08576   2.10236   2.12274   2.14177
 Alpha virt. eigenvalues --    2.16435   2.19607   2.20164   2.23648   2.24392
 Alpha virt. eigenvalues --    2.25005   2.26184   2.28127   2.28554   2.28882
 Alpha virt. eigenvalues --    2.32073   2.34618   2.36539   2.37736   2.38953
 Alpha virt. eigenvalues --    2.39811   2.40770   2.41113   2.43717   2.44226
 Alpha virt. eigenvalues --    2.45483   2.46970   2.51489   2.54200   2.56415
 Alpha virt. eigenvalues --    2.61950   2.64984   2.69778   2.70103   2.70687
 Alpha virt. eigenvalues --    2.72993   2.73920   2.75295   2.75927   2.78676
 Alpha virt. eigenvalues --    2.84055   2.84671   2.85287   2.87684   2.91119
 Alpha virt. eigenvalues --    2.92600   2.95700   2.97744   2.99931   3.01407
 Alpha virt. eigenvalues --    3.02171   3.05367   3.09966   3.13673   3.16763
 Alpha virt. eigenvalues --    3.22673   3.24951   3.28939   3.37800   3.46325
 Alpha virt. eigenvalues --    3.71699   3.79464
          Condensed to atoms (all electrons):
               1          2          3          4          5          6
     1  Cl  16.965779   0.240863  -0.065325   0.003650  -0.000022   0.000001
     2  C    0.240863   5.258846   0.219504   0.158105   0.011805  -0.000160
     3  C   -0.065325   0.219504   5.224146   0.249141  -0.088506   0.004288
     4  C    0.003650   0.158105   0.249141   5.081838   0.326024  -0.045524
     5  N   -0.000022   0.011805  -0.088506   0.326024   6.815434   0.337950
     6  C    0.000001  -0.000160   0.004288  -0.045524   0.337950   4.435644
     7  C   -0.000034  -0.000659  -0.000444  -0.049810   0.317652  -0.054165
     8  C    0.000001  -0.000105   0.000710   0.005945  -0.083558   0.000241
     9  C    0.000000   0.000006   0.000025  -0.000098   0.008724   0.000121
    10  C    0.000000  -0.000005   0.000032   0.000017  -0.000534   0.000077
    11  C    0.000005   0.000083  -0.001616   0.000130   0.008780  -0.000195
    12  C   -0.000015  -0.000953  -0.005620  -0.008783  -0.078283   0.005607
    13  C    0.000412  -0.183748   0.080418   0.240079  -0.080945  -0.004111
    14  C    0.004158   0.134253  -0.156201   0.131801   0.007983   0.000987
    15  C   -0.056353   0.259143   0.100954  -0.170206  -0.000940  -0.000022
    16  H    0.003356  -0.074394   0.449964  -0.054634  -0.015722  -0.000095
    17  H    0.000000  -0.000134   0.001403   0.003463  -0.040941   0.408759
    18  H   -0.000000   0.000080  -0.000379  -0.014235  -0.022349   0.401188
    19  H   -0.000000   0.000018  -0.000321   0.005092  -0.016990   0.398080
    20  H   -0.000000  -0.000000   0.000013  -0.000336  -0.014943   0.008459
    21  H   -0.000000  -0.000000  -0.000002   0.000008  -0.000124  -0.000026
    22  H   -0.000000  -0.000000  -0.000000   0.000001   0.000009   0.000000
    23  H   -0.000000   0.000003   0.000045  -0.000022  -0.000123   0.000006
    24  H    0.000085  -0.000790   0.001502   0.005076  -0.012856  -0.000071
    25  H    0.000009  -0.002494   0.017089  -0.075852  -0.010828  -0.000465
    26  H   -0.000123   0.015000  -0.002251   0.014936  -0.000116  -0.000008
    27  H    0.000909  -0.071645   0.016411  -0.001820   0.000009  -0.000000
               7          8          9         10         11         12
     1  Cl  -0.000034   0.000001   0.000000   0.000000   0.000005  -0.000015
     2  C   -0.000659  -0.000105   0.000006  -0.000005   0.000083  -0.000953
     3  C   -0.000444   0.000710   0.000025   0.000032  -0.001616  -0.005620
     4  C   -0.049810   0.005945  -0.000098   0.000017   0.000130  -0.008783
     5  N    0.317652  -0.083558   0.008724  -0.000534   0.008780  -0.078283
     6  C   -0.054165   0.000241   0.000121   0.000077  -0.000195   0.005607
     7  C    5.106727   0.267120   0.118673  -0.166729   0.120467   0.270038
     8  C    0.267120   5.186658   0.266599   0.087930  -0.151921   0.064824
     9  C    0.118673   0.266599   5.055415   0.281429   0.102678  -0.154189
    10  C   -0.166729   0.087930   0.281429   5.107273   0.270927   0.090148
    11  C    0.120467  -0.151921   0.102678   0.270927   5.054793   0.276785
    12  C    0.270038   0.064824  -0.154189   0.090148   0.276785   5.176022
    13  C    0.006232  -0.000424   0.000002   0.000001  -0.000053   0.000451
    14  C   -0.000245  -0.000003  -0.000000  -0.000000   0.000005   0.000048
    15  C    0.000089   0.000002  -0.000000   0.000000  -0.000005  -0.000016
    16  H    0.006005  -0.000780   0.000067  -0.000001  -0.000496   0.002859
    17  H   -0.003717   0.002058   0.000068  -0.000012   0.000044  -0.000661
    18  H    0.005204   0.000553  -0.000012   0.000002  -0.000008   0.000103
    19  H   -0.008547   0.004096   0.001344  -0.000127  -0.000061   0.000330
    20  H   -0.073703   0.458039  -0.070895   0.015241  -0.002537   0.016362
    21  H    0.015170  -0.066890   0.451326  -0.070129   0.014091  -0.001955
    22  H   -0.001621   0.014812  -0.069894   0.453296  -0.069984   0.014864
    23  H    0.015409  -0.002054   0.014257  -0.071964   0.453881  -0.067548
    24  H   -0.069541   0.016116  -0.002471   0.014787  -0.068464   0.459498
    25  H   -0.000183   0.000006  -0.000000   0.000000   0.000001  -0.000035
    26  H    0.000007  -0.000000   0.000000   0.000000  -0.000000  -0.000001
    27  H    0.000002   0.000000  -0.000000  -0.000000  -0.000000   0.000000
              13         14         15         16         17         18
     1  Cl   0.000412   0.004158  -0.056353   0.003356   0.000000  -0.000000
     2  C   -0.183748   0.134253   0.259143  -0.074394  -0.000134   0.000080
     3  C    0.080418  -0.156201   0.100954   0.449964   0.001403  -0.000379
     4  C    0.240079   0.131801  -0.170206  -0.054634   0.003463  -0.014235
     5  N   -0.080945   0.007983  -0.000940  -0.015722  -0.040941  -0.022349
     6  C   -0.004111   0.000987  -0.000022  -0.000095   0.408759   0.401188
     7  C    0.006232  -0.000245   0.000089   0.006005  -0.003717   0.005204
     8  C   -0.000424  -0.000003   0.000002  -0.000780   0.002058   0.000553
     9  C    0.000002  -0.000000  -0.000000   0.000067   0.000068  -0.000012
    10  C    0.000001  -0.000000   0.000000  -0.000001  -0.000012   0.000002
    11  C   -0.000053   0.000005  -0.000005  -0.000496   0.000044  -0.000008
    12  C    0.000451   0.000048  -0.000016   0.002859  -0.000661   0.000103
    13  C    5.221074   0.263373   0.103047   0.016135   0.000495   0.002603
    14  C    0.263373   5.045853   0.252112  -0.002719  -0.000052   0.000735
    15  C    0.103047   0.252112   5.106078   0.015686  -0.000016  -0.000050
    16  H    0.016135  -0.002719   0.015686   0.641395   0.000112  -0.000043
    17  H    0.000495  -0.000052  -0.000016   0.000112   0.652747  -0.033254
    18  H    0.002603   0.000735  -0.000050  -0.000043  -0.033254   0.625535
    19  H    0.000492  -0.000025   0.000001  -0.000024  -0.030923  -0.011923
    20  H    0.000003  -0.000000   0.000000  -0.000017  -0.000340   0.000086
    21  H   -0.000000   0.000000   0.000000  -0.000003   0.000010  -0.000001
    22  H    0.000000  -0.000000  -0.000000   0.000000   0.000000  -0.000000
    23  H    0.000000  -0.000000  -0.000000   0.000025  -0.000000  -0.000000
    24  H   -0.000842   0.000033   0.000005  -0.002609  -0.000002  -0.000012
    25  H    0.455604  -0.064463   0.015662  -0.000148   0.000361  -0.001117
    26  H   -0.067021   0.452635  -0.068828   0.000020  -0.000005   0.000055
    27  H    0.014412  -0.062636   0.447994  -0.000293  -0.000000   0.000000
              19         20         21         22         23         24
     1  Cl  -0.000000  -0.000000  -0.000000  -0.000000  -0.000000   0.000085
     2  C    0.000018  -0.000000  -0.000000  -0.000000   0.000003  -0.000790
     3  C   -0.000321   0.000013  -0.000002  -0.000000   0.000045   0.001502
     4  C    0.005092  -0.000336   0.000008   0.000001  -0.000022   0.005076
     5  N   -0.016990  -0.014943  -0.000124   0.000009  -0.000123  -0.012856
     6  C    0.398080   0.008459  -0.000026   0.000000   0.000006  -0.000071
     7  C   -0.008547  -0.073703   0.015170  -0.001621   0.015409  -0.069541
     8  C    0.004096   0.458039  -0.066890   0.014812  -0.002054   0.016116
     9  C    0.001344  -0.070895   0.451326  -0.069894   0.014257  -0.002471
    10  C   -0.000127   0.015241  -0.070129   0.453296  -0.071964   0.014787
    11  C   -0.000061  -0.002537   0.014091  -0.069984   0.453881  -0.068464
    12  C    0.000330   0.016362  -0.001955   0.014864  -0.067548   0.459498
    13  C    0.000492   0.000003  -0.000000   0.000000   0.000000  -0.000842
    14  C   -0.000025  -0.000000   0.000000  -0.000000  -0.000000   0.000033
    15  C    0.000001   0.000000   0.000000  -0.000000  -0.000000   0.000005
    16  H   -0.000024  -0.000017  -0.000003   0.000000   0.000025  -0.002609
    17  H   -0.030923  -0.000340   0.000010   0.000000  -0.000000  -0.000002
    18  H   -0.011923   0.000086  -0.000001  -0.000000  -0.000000  -0.000012
    19  H    0.609068  -0.001353   0.000014  -0.000001   0.000001  -0.000025
    20  H   -0.001353   0.684533  -0.013129  -0.000237   0.000022  -0.000189
    21  H    0.000014  -0.013129   0.672570  -0.012323  -0.000263   0.000021
    22  H   -0.000001  -0.000237  -0.012323   0.674453  -0.012294  -0.000229
    23  H    0.000001   0.000022  -0.000263  -0.012294   0.669490  -0.012650
    24  H   -0.000025  -0.000189   0.000021  -0.000229  -0.012650   0.655916
    25  H   -0.000277  -0.000002  -0.000000   0.000000  -0.000000  -0.000000
    26  H   -0.000000  -0.000000  -0.000000   0.000000   0.000000  -0.000003
    27  H   -0.000000   0.000000   0.000000   0.000000   0.000000  -0.000001
              25         26         27
     1  Cl   0.000009  -0.000123   0.000909
     2  C   -0.002494   0.015000  -0.071645
     3  C    0.017089  -0.002251   0.016411
     4  C   -0.075852   0.014936  -0.001820
     5  N   -0.010828  -0.000116   0.000009
     6  C   -0.000465  -0.000008  -0.000000
     7  C   -0.000183   0.000007   0.000002
     8  C    0.000006  -0.000000   0.000000
     9  C   -0.000000   0.000000  -0.000000
    10  C    0.000000   0.000000  -0.000000
    11  C    0.000001  -0.000000  -0.000000
    12  C   -0.000035  -0.000001   0.000000
    13  C    0.455604  -0.067021   0.014412
    14  C   -0.064463   0.452635  -0.062636
    15  C    0.015662  -0.068828   0.447994
    16  H   -0.000148   0.000020  -0.000293
    17  H    0.000361  -0.000005  -0.000000
    18  H   -0.001117   0.000055   0.000000
    19  H   -0.000277  -0.000000  -0.000000
    20  H   -0.000002  -0.000000   0.000000
    21  H   -0.000000  -0.000000   0.000000
    22  H    0.000000   0.000000   0.000000
    23  H   -0.000000   0.000000   0.000000
    24  H   -0.000000  -0.000003  -0.000001
    25  H    0.685571  -0.013490  -0.000225
    26  H   -0.013490   0.663172  -0.012385
    27  H   -0.000225  -0.012385   0.663175
 Mulliken charges:
               1
     1  Cl  -0.097355
     2  C    0.037376
     3  C   -0.044977
     4  C    0.196015
     5  N   -0.366592
     6  C    0.103434
     7  C    0.180605
     8  C   -0.069976
     9  C   -0.003173
    10  C   -0.011660
    11  C   -0.007329
    12  C   -0.059879
    13  C   -0.067688
    14  C   -0.007631
    15  C   -0.004338
    16  H    0.016355
    17  H    0.040537
    18  H    0.047241
    19  H    0.052061
    20  H   -0.005078
    21  H    0.011635
    22  H    0.009146
    23  H    0.013779
    24  H    0.017716
    25  H   -0.004722
    26  H    0.018406
    27  H    0.006093
 Sum of Mulliken charges =  -0.00000
 Mulliken charges with hydrogens summed into heavy atoms:
               1
     1  Cl  -0.097355
     2  C    0.037376
     3  C   -0.028622
     4  C    0.196015
     5  N   -0.366592
     6  C    0.243272
     7  C    0.180605
     8  C   -0.075054
     9  C    0.008462
    10  C   -0.002514
    11  C    0.006450
    12  C   -0.042163
    13  C   -0.072410
    14  C    0.010775
    15  C    0.001755
 Electronic spatial extent (au):  <R**2>=           3989.7201
 Charge=             -0.0000 electrons
 Dipole moment (field-independent basis, Debye):
    X=             -0.9826    Y=              2.2050    Z=              0.1066  Tot=              2.4164
 Quadrupole moment (field-independent basis, Debye-Ang):
   XX=            -90.5038   YY=            -87.6972   ZZ=            -95.2963
   XY=              4.1265   XZ=              4.8061   YZ=             -2.2221
 Traceless Quadrupole moment (field-independent basis, Debye-Ang):
   XX=              0.6620   YY=              3.4685   ZZ=             -4.1305
   XY=              4.1265   XZ=              4.8061   YZ=             -2.2221
 Octapole moment (field-independent basis, Debye-Ang**2):
  XXX=             11.4626  YYY=             13.2323  ZZZ=             -5.3723  XYY=             -5.4825
  XXY=              2.4254  XXZ=             -5.6115  XZZ=             -1.1229  YZZ=             -4.3274
  YYZ=              4.9995  XYZ=             11.2821
 Hexadecapole moment (field-independent basis, Debye-Ang**3):
 XXXX=          -3502.5923 YYYY=          -1324.7128 ZZZZ=           -332.8782 XXXY=             57.1532
 XXXZ=             91.8797 YYYX=            -23.5468 YYYZ=              5.1832 ZZZX=             -3.5575
 ZZZY=             -7.9942 XXYY=           -807.1755 XXZZ=           -676.8545 YYZZ=           -281.0323
 XXYZ=             -2.3940 YYXZ=             -0.3864 ZZXY=            -11.5000
 N-N= 1.008171371055D+03 E-N=-4.398760709925D+03  KE= 1.010070424795D+03
   1 Symmetry operations used in ECPInt.
 ECPInt:  NShTT=    8256 NPrTT=   30622 LenC2=    7805 LenP2D=   21061.
 LDataN:  DoStor=T MaxTD1= 5 Len=  102
 Calling FoFJK, ICntrl=      2127 FMM=F ISym2X=0 I1Cent= 0 IOpClX= 0 NMat=1 NMatS=1 NMatT=0.
 ***** Axes restored to original set *****
 -------------------------------------------------------------------
 Center     Atomic                   Forces (Hartrees/Bohr)
 Number     Number              X              Y              Z
 -------------------------------------------------------------------
      1       17          -0.002298707   -0.005317261    0.001547861
      2        6           0.001528147    0.005372102   -0.002983167
      3        6           0.002065713   -0.004239409    0.004349965
      4        6           0.023174521    0.005644521    0.001309381
      5        7          -0.001198528   -0.004433807   -0.007579423
      6        6          -0.006633428   -0.017964034   -0.003177938
      7        6          -0.018091480    0.013309146    0.003923167
      8        6          -0.008392527    0.007239204    0.001059407
      9        6           0.003229420   -0.002754214   -0.002581021
     10        6           0.006323464   -0.004637106    0.001013682
     11        6          -0.000203172   -0.001100835    0.000412300
     12        6          -0.003493456    0.005152007   -0.001741941
     13        6           0.008938768    0.001444457    0.000360900
     14        6           0.002895131   -0.002199983    0.002453997
     15        6          -0.009719914   -0.006588755    0.000589637
     16        1           0.007095665   -0.007964231    0.004299202
     17        1          -0.000149001    0.005069385    0.010817218
     18        1          -0.003678218    0.005167956   -0.003375597
     19        1           0.005517992   -0.000126134   -0.002548804
     20        1           0.002235997    0.007480685    0.008485839
     21        1           0.008037292    0.000556320    0.006567347
     22        1           0.007242034   -0.007418478   -0.000894762
     23        1          -0.001683614   -0.006863433   -0.007610831
     24        1          -0.008572389   -0.000730599   -0.007223130
     25        1           0.002564643    0.010835571   -0.002800098
     26        1          -0.006362322    0.006881253   -0.003471385
     27        1          -0.010372034   -0.001814328   -0.001201806
 -------------------------------------------------------------------
 Cartesian Forces:  Max     0.023174521 RMS     0.006524348

 GradGradGradGradGradGradGradGradGradGradGradGradGradGradGradGradGradGrad
 Berny optimization.
 FormGI is forming the generalized inverse of G from B-inverse, IUseBI=4.
 Internal  Forces:  Max     0.019844132 RMS     0.005558702
 Search for a local minimum.
 Step number   1 out of a maximum of  145
 All quantities printed in internal units (Hartrees-Bohrs-Radians)
 Mixed Optimization -- RFO/linear search
 Second derivative matrix not updated -- first step.
 ITU=  0
     Eigenvalues ---    0.00860   0.01153   0.01293   0.01306   0.01892
     Eigenvalues ---    0.01901   0.02178   0.02187   0.02241   0.02267
     Eigenvalues ---    0.02269   0.02289   0.02303   0.02313   0.02330
     Eigenvalues ---    0.02336   0.02339   0.02341   0.02356   0.02359
     Eigenvalues ---    0.02369   0.02376   0.07350   0.07436   0.15994
     Eigenvalues ---    0.15995   0.15998   0.15999   0.16000   0.16000
     Eigenvalues ---    0.16000   0.16000   0.16000   0.16000   0.16000
     Eigenvalues ---    0.16000   0.22000   0.22000   0.22000   0.23463
     Eigenvalues ---    0.23468   0.23490   0.24773   0.24842   0.24998
     Eigenvalues ---    0.25000   0.25000   0.32654   0.35015   0.35019
     Eigenvalues ---    0.35195   0.36264   0.36269   0.36276   0.36279
     Eigenvalues ---    0.36406   0.36480   0.36521   0.36605   0.36628
     Eigenvalues ---    0.36687   0.40968   0.41115   0.43000   0.43086
     Eigenvalues ---    0.43726   0.43777   0.47010   0.47356   0.47813
     Eigenvalues ---    0.47956   0.48917   0.49110   0.49151   0.49742
 RFO step:  Lambda=-1.11177017D-02 EMin= 8.59902929D-03
 Linear search not attempted -- first point.
 Iteration  1 RMS(Cart)=  0.06255286 RMS(Int)=  0.00083543
 Iteration  2 RMS(Cart)=  0.00163776 RMS(Int)=  0.00010488
 Iteration  3 RMS(Cart)=  0.00000221 RMS(Int)=  0.00010488
 Iteration  4 RMS(Cart)=  0.00000000 RMS(Int)=  0.00010488
 Variable       Old X    -DE/DX   Delta X   Delta X   Delta X     New X
                                 (Linear)    (Quad)   (Total)
    R1        3.26664   0.00598   0.00000   0.01771   0.01771   3.28435
    R2        2.60738   0.01161   0.00000   0.02329   0.02329   2.63067
    R3        2.61807   0.00902   0.00000   0.01868   0.01869   2.63676
    R4        2.63117   0.01189   0.00000   0.02459   0.02458   2.65575
    R5        2.03020   0.01149   0.00000   0.03040   0.03040   2.06061
    R6        2.70259  -0.01984   0.00000  -0.04716  -0.04716   2.65543
    R7        2.64067   0.00595   0.00000   0.01224   0.01222   2.65289
    R8        2.76446  -0.00795   0.00000  -0.02107  -0.02107   2.74339
    R9        2.70066  -0.01674   0.00000  -0.03963  -0.03963   2.66102
   R10        2.05651   0.01107   0.00000   0.03064   0.03064   2.08715
   R11        2.05359   0.00718   0.00000   0.01979   0.01979   2.07338
   R12        2.05643   0.00582   0.00000   0.01612   0.01612   2.07256
   R13        2.63580   0.00829   0.00000   0.01696   0.01697   2.65277
   R14        2.63535   0.01025   0.00000   0.02107   0.02108   2.65643
   R15        2.60183   0.01717   0.00000   0.03379   0.03379   2.63562
   R16        2.03274   0.01146   0.00000   0.03045   0.03045   2.06320
   R17        2.61004   0.01200   0.00000   0.02443   0.02442   2.63445
   R18        2.03670   0.01037   0.00000   0.02774   0.02774   2.06444
   R19        2.60963   0.01480   0.00000   0.03002   0.03000   2.63964
   R20        2.03652   0.01041   0.00000   0.02783   0.02783   2.06435
   R21        2.60074   0.01491   0.00000   0.02929   0.02929   2.63003
   R22        2.03662   0.01035   0.00000   0.02768   0.02768   2.06430
   R23        2.03338   0.01118   0.00000   0.02975   0.02975   2.06313
   R24        2.60726   0.01309   0.00000   0.02585   0.02584   2.63310
   R25        2.03110   0.01142   0.00000   0.03026   0.03026   2.06136
   R26        2.60676   0.01229   0.00000   0.02458   0.02459   2.63136
   R27        2.03647   0.00999   0.00000   0.02672   0.02672   2.06319
   R28        2.03452   0.01057   0.00000   0.02816   0.02816   2.06268
    A1        2.08726  -0.00207   0.00000  -0.00875  -0.00878   2.07849
    A2        2.10071  -0.00341   0.00000  -0.01388  -0.01391   2.08680
    A3        2.09521   0.00548   0.00000   0.02262   0.02259   2.11780
    A4        2.11286  -0.00353   0.00000  -0.01451  -0.01454   2.09832
    A5        2.07773   0.00160   0.00000   0.00632   0.00632   2.08406
    A6        2.09250   0.00193   0.00000   0.00828   0.00829   2.10078
    A7        2.09206   0.00346   0.00000   0.01338   0.01332   2.10539
    A8        2.06040   0.00219   0.00000   0.00792   0.00779   2.06819
    A9        2.13066  -0.00566   0.00000  -0.02154  -0.02158   2.10908
   A10        2.08317  -0.00236   0.00000  -0.00997  -0.01004   2.07314
   A11        2.11988   0.00190   0.00000   0.00643   0.00634   2.12622
   A12        2.07095   0.00040   0.00000   0.00068   0.00061   2.07156
   A13        1.91780   0.00745   0.00000   0.04855   0.04854   1.96634
   A14        1.94047  -0.00097   0.00000  -0.00773  -0.00799   1.93249
   A15        1.92606  -0.00356   0.00000  -0.02379  -0.02387   1.90219
   A16        1.89762  -0.00225   0.00000  -0.00757  -0.00774   1.88988
   A17        1.90219  -0.00115   0.00000  -0.00270  -0.00255   1.89964
   A18        1.87877   0.00031   0.00000  -0.00779  -0.00813   1.87064
   A19        2.11933  -0.00403   0.00000  -0.01464  -0.01483   2.10450
   A20        2.09990   0.00195   0.00000   0.00826   0.00805   2.10795
   A21        2.06396   0.00207   0.00000   0.00634   0.00619   2.07015
   A22        2.10697  -0.00076   0.00000  -0.00411  -0.00409   2.10288
   A23        2.08137   0.00167   0.00000   0.00969   0.00967   2.09103
   A24        2.09454  -0.00090   0.00000  -0.00537  -0.00540   2.08915
   A25        2.09785   0.00148   0.00000   0.00743   0.00742   2.10527
   A26        2.09294  -0.00150   0.00000  -0.00816  -0.00817   2.08476
   A27        2.09240   0.00002   0.00000   0.00070   0.00069   2.09308
   A28        2.09211  -0.00343   0.00000  -0.01279  -0.01280   2.07931
   A29        2.09554   0.00162   0.00000   0.00583   0.00583   2.10137
   A30        2.09553   0.00181   0.00000   0.00696   0.00696   2.10250
   A31        2.09589   0.00194   0.00000   0.00949   0.00946   2.10535
   A32        2.09375  -0.00014   0.00000   0.00010   0.00007   2.09382
   A33        2.09355  -0.00180   0.00000  -0.00960  -0.00962   2.08392
   A34        2.10960  -0.00129   0.00000  -0.00637  -0.00634   2.10325
   A35        2.07367   0.00172   0.00000   0.00946   0.00945   2.08312
   A36        2.09985  -0.00043   0.00000  -0.00308  -0.00310   2.09675
   A37        2.10925  -0.00166   0.00000  -0.00766  -0.00771   2.10154
   A38        2.08610   0.00192   0.00000   0.01024   0.01026   2.09636
   A39        2.08746  -0.00024   0.00000  -0.00238  -0.00237   2.08509
   A40        2.09922   0.00361   0.00000   0.01623   0.01620   2.11543
   A41        2.09301  -0.00191   0.00000  -0.00875  -0.00875   2.08426
   A42        2.09095  -0.00170   0.00000  -0.00751  -0.00751   2.08344
   A43        2.08942  -0.00609   0.00000  -0.02459  -0.02458   2.06485
   A44        2.08019   0.00389   0.00000   0.01723   0.01721   2.09740
   A45        2.11357   0.00220   0.00000   0.00737   0.00736   2.12093
    D1       -3.13926  -0.00020   0.00000  -0.00599  -0.00587   3.13806
    D2       -0.01279   0.00005   0.00000   0.00142   0.00139  -0.01140
    D3        0.00097  -0.00066   0.00000  -0.01962  -0.01960  -0.01862
    D4        3.12744  -0.00041   0.00000  -0.01221  -0.01233   3.11511
    D5        3.14012  -0.00042   0.00000  -0.01267  -0.01259   3.12752
    D6       -0.00287  -0.00024   0.00000  -0.00716  -0.00713  -0.01000
    D7       -0.00011   0.00005   0.00000   0.00106   0.00119   0.00109
    D8        3.14009   0.00022   0.00000   0.00657   0.00666  -3.13643
    D9        3.12950   0.00008   0.00000   0.00194   0.00157   3.13107
   D10       -0.00044   0.00080   0.00000   0.02444   0.02439   0.02396
   D11        0.00316  -0.00016   0.00000  -0.00551  -0.00574  -0.00258
   D12       -3.12678   0.00055   0.00000   0.01699   0.01708  -3.10970
   D13       -2.48776   0.00144   0.00000   0.05805   0.05801  -2.42975
   D14        0.50664   0.00093   0.00000   0.03528   0.03525   0.54189
   D15        0.64170   0.00076   0.00000   0.03483   0.03486   0.67655
   D16       -2.64709   0.00025   0.00000   0.01206   0.01210  -2.63499
   D17       -0.00097  -0.00034   0.00000  -0.01128  -0.01144  -0.01240
   D18       -3.11313  -0.00060   0.00000  -0.01957  -0.01967  -3.13280
   D19       -3.13063   0.00033   0.00000   0.01149   0.01119  -3.11944
   D20        0.04039   0.00006   0.00000   0.00320   0.00296   0.04335
   D21        1.33411   0.00014   0.00000  -0.00004   0.00013   1.33424
   D22       -0.76752  -0.00135   0.00000  -0.01769  -0.01757  -0.78509
   D23       -2.85098   0.00121   0.00000   0.01258   0.01242  -2.83856
   D24       -1.66443   0.00049   0.00000   0.02156   0.02164  -1.64278
   D25        2.51713  -0.00099   0.00000   0.00391   0.00394   2.52108
   D26        0.43367   0.00157   0.00000   0.03418   0.03393   0.46760
   D27       -2.47783   0.00097   0.00000   0.04086   0.04098  -2.43684
   D28        0.66510   0.00205   0.00000   0.07686   0.07687   0.74196
   D29        0.51757   0.00023   0.00000   0.01738   0.01737   0.53494
   D30       -2.62269   0.00131   0.00000   0.05338   0.05325  -2.56944
   D31        3.14024   0.00105   0.00000   0.03343   0.03320  -3.10975
   D32        0.02517   0.00074   0.00000   0.02401   0.02379   0.04896
   D33       -0.00266  -0.00001   0.00000  -0.00185  -0.00191  -0.00457
   D34       -3.11773  -0.00032   0.00000  -0.01127  -0.01132  -3.12905
   D35       -3.14024  -0.00061   0.00000  -0.02043  -0.02074   3.12220
   D36        0.01426  -0.00064   0.00000  -0.02157  -0.02182  -0.00755
   D37        0.00264   0.00044   0.00000   0.01446   0.01446   0.01710
   D38       -3.12604   0.00042   0.00000   0.01332   0.01339  -3.11265
   D39        0.00139  -0.00041   0.00000  -0.01101  -0.01107  -0.00968
   D40       -3.13629  -0.00010   0.00000  -0.00225  -0.00227  -3.13856
   D41        3.11626  -0.00005   0.00000  -0.00129  -0.00145   3.11482
   D42       -0.02142   0.00026   0.00000   0.00747   0.00735  -0.01406
   D43       -0.00003   0.00038   0.00000   0.01140   0.01142   0.01139
   D44       -3.14054   0.00020   0.00000   0.00559   0.00563  -3.13491
   D45        3.13766   0.00007   0.00000   0.00263   0.00256   3.14021
   D46       -0.00285  -0.00011   0.00000  -0.00318  -0.00324  -0.00609
   D47        0.00000   0.00005   0.00000   0.00114   0.00120   0.00120
   D48        3.14059  -0.00041   0.00000  -0.01257  -0.01260   3.12798
   D49        3.14051   0.00024   0.00000   0.00696   0.00700  -3.13568
   D50       -0.00209  -0.00023   0.00000  -0.00675  -0.00681  -0.00890
   D51       -0.00134  -0.00047   0.00000  -0.01422  -0.01424  -0.01559
   D52        3.12714  -0.00042   0.00000  -0.01297  -0.01307   3.11407
   D53        3.14126  -0.00000   0.00000  -0.00052  -0.00053   3.14073
   D54       -0.01344   0.00004   0.00000   0.00073   0.00065  -0.01279
   D55        0.00184  -0.00025   0.00000  -0.00668  -0.00681  -0.00497
   D56       -3.13615   0.00003   0.00000   0.00133   0.00134  -3.13481
   D57        3.11398   0.00005   0.00000   0.00182   0.00158   3.11556
   D58       -0.02401   0.00033   0.00000   0.00983   0.00972  -0.01428
   D59       -0.00129   0.00040   0.00000   0.01194   0.01200   0.01071
   D60       -3.14146   0.00022   0.00000   0.00632   0.00645  -3.13501
   D61        3.13671   0.00012   0.00000   0.00394   0.00385   3.14056
   D62       -0.00347  -0.00006   0.00000  -0.00169  -0.00170  -0.00516
         Item               Value     Threshold  Converged?
 Maximum Force            0.019844     0.000450     NO 
 RMS     Force            0.005559     0.000300     NO 
 Maximum Displacement     0.210188     0.001800     NO 
 RMS     Displacement     0.063425     0.001200     NO 
 Predicted change in Energy=-5.858538D-03
 GradGradGradGradGradGradGradGradGradGradGradGradGradGradGradGradGradGrad

                          Input orientation:                          
 ---------------------------------------------------------------------
 Center     Atomic      Atomic             Coordinates (Angstroms)
 Number     Number       Type             X           Y           Z
 ---------------------------------------------------------------------
      1         17           0       -2.984457   -2.025192    0.686126
      2          6           0       -2.396489   -0.462867    0.202304
      3          6           0       -1.037362   -0.185303    0.319132
      4          6           0       -0.535482    1.068697   -0.069000
      5          7           0        0.832883    1.362398    0.057025
      6          6           0        1.224843    2.679006    0.526554
      7          6           0        1.820341    0.365642   -0.062553
      8          6           0        2.933461    0.356886    0.792725
      9          6           0        3.929331   -0.608796    0.648103
     10          6           0        3.831148   -1.587762   -0.339560
     11          6           0        2.726824   -1.582555   -1.194890
     12          6           0        1.735786   -0.613764   -1.067373
     13          6           0       -1.437745    2.033192   -0.544877
     14          6           0       -2.796692    1.740882   -0.641374
     15          6           0       -3.293666    0.492168   -0.277156
     16          1           0       -0.368039   -0.946556    0.721038
     17          1           0        1.094261    2.798334    1.616769
     18          1           0        0.642230    3.460278    0.022576
     19          1           0        2.278973    2.848195    0.275470
     20          1           0        3.013188    1.101348    1.587358
     21          1           0        4.786866   -0.601512    1.324886
     22          1           0        4.610234   -2.346143   -0.445572
     23          1           0        2.642519   -2.335606   -1.981723
     24          1           0        0.889113   -0.601768   -1.756533
     25          1           0       -1.075739    3.012438   -0.860991
     26          1           0       -3.483184    2.500906   -1.019664
     27          1           0       -4.356305    0.255646   -0.356382
 ---------------------------------------------------------------------
                    Distance matrix (angstroms):
                    1          2          3          4          5
     1  Cl   0.000000
     2  C    1.738001   0.000000
     3  C    2.703896   1.392092   0.000000
     4  C    4.017442   2.425416   1.405363   0.000000
     5  N    5.142335   3.712350   2.441699   1.405192   0.000000
     6  C    6.314519   4.805263   3.655798   2.458968   1.451740
     7  C    5.418735   4.305606   2.935250   2.458502   1.408153
     8  C    6.380236   5.424847   4.035553   3.644559   2.442280
     9  C    7.057484   6.343188   4.995558   4.823150   3.717925
    10  C    6.906218   6.351573   5.109125   5.118344   4.224964
    11  C    6.029334   5.427171   4.291115   4.351943   3.718475
    12  C    5.229491   4.325569   3.129907   2.997679   2.446369
    13  C    4.514219   2.776290   2.414237   1.403848   2.442950
    14  C    3.997603   2.393421   2.779928   2.427450   3.715484
    15  C    2.713047   1.395313   2.430111   2.825473   4.230530
    16  H    2.830250   2.148872   1.090425   2.171046   2.685962
    17  H    6.385016   4.982116   3.889700   2.913678   2.136125
    18  H    6.609352   4.965600   4.024828   2.667406   2.106807
    19  H    7.184861   5.729611   4.494674   3.347601   2.084823
    20  H    6.823431   5.799116   4.435180   3.916330   2.676526
    21  H    7.926433   7.271864   5.925065   5.749774   4.593299
    22  H    7.685250   7.284274   6.095025   6.187191   5.317354
    23  H    6.235113   5.802476   4.843475   5.034628   4.594182
    24  H    4.795546   3.827730   2.862364   2.769060   2.673968
    25  H    5.604863   3.866875   3.408770   2.167315   2.684813
    26  H    4.862511   3.384976   3.871711   3.412321   4.591721
    27  H    2.858498   2.160849   3.415573   3.916928   5.321981
                    6          7          8          9         10
     6  C    0.000000
     7  C    2.460350   0.000000
     8  C    2.895248   1.403784   0.000000
     9  C    4.258952   2.429485   1.394710   0.000000
    10  C    5.074278   2.817066   2.422720   1.394093   0.000000
    11  C    4.835310   2.428862   2.784735   2.406420   1.396836
    12  C    3.693779   1.405720   2.415896   2.784695   2.422587
    13  C    2.941839   3.691679   4.868944   6.099902   6.396460
    14  C    4.291489   4.852145   6.066855   7.240381   7.422885
    15  C    5.083811   5.120072   6.319815   7.364775   7.422465
    16  H    3.964820   2.669248   3.550211   4.311240   4.378263
    17  H    1.104472   3.043896   3.165812   4.537011   5.527713
    18  H    1.097187   3.312396   3.933689   5.268176   5.981894
    19  H    1.096749   2.547091   2.627265   3.848808   4.739750
    20  H    2.610074   2.164798   1.091797   2.155484   3.407842
    21  H    4.907865   3.414768   2.153331   1.092453   2.157885
    22  H    6.136613   3.909473   3.413403   2.162898   1.092408
    23  H    5.783389   3.414078   3.877076   3.399080   2.160742
    24  H    4.011070   2.161629   3.405451   3.876242   3.411095
    25  H    2.707237   4.003787   5.085313   6.359357   6.746204
    26  H    4.958632   5.796792   7.003921   8.209572   8.407093
    27  H    6.148290   6.184610   7.380473   8.390948   8.392427
                   11         12         13         14         15
    11  C    0.000000
    12  C    1.391752   0.000000
    13  C    5.553358   4.165415   0.000000
    14  C    6.469995   5.125347   1.393375   0.000000
    15  C    6.433740   5.209886   2.427113   1.392453   0.000000
    16  H    3.695057   2.781230   3.409650   3.869993   3.409635
    17  H    5.455536   4.388460   3.416022   4.621355   5.306529
    18  H    5.590879   4.356796   2.585512   3.901709   4.938704
    19  H    4.689785   3.752791   3.892453   5.275331   6.075407
    20  H    3.876370   3.408953   5.022505   6.255473   6.604841
    21  H    3.399337   3.877131   7.013092   8.177000   8.310095
    22  H    2.166051   3.413243   7.467697   8.461953   8.399763
    23  H    1.092381   2.150102   6.148128   6.928152   6.792654
    24  H    2.157445   1.091761   3.718251   4.507409   4.569562
    25  H    5.973687   4.593104   1.090825   2.150992   3.407613
    26  H    7.434350   6.077919   2.151279   1.091793   2.149946
    27  H    7.365650   6.194752   3.422455   2.172450   1.091522
                   16         17         18         19         20
    16  H    0.000000
    17  H    4.118841   0.000000
    18  H    4.574788   1.784363   0.000000
    19  H    4.648154   1.790282   1.765653   0.000000
    20  H    4.046865   2.561817   3.692497   2.304689   0.000000
    21  H    5.201609   5.027870   5.947450   4.392183   2.472763
    22  H    5.301228   6.563608   7.048315   5.738974   4.309125
    23  H    4.277596   6.457830   6.450631   5.665587   4.968740
    24  H    2.799583   4.793948   4.441441   4.238277   4.312065
    25  H    4.321723   3.300610   1.983095   3.545788   5.134782
    26  H    4.961771   5.290769   4.361846   5.916117   7.138499
    27  H    4.302603   6.329870   5.949675   7.151746   7.668296
                   21         22         23         24         25
    21  H    0.000000
    22  H    2.491879   0.000000
    23  H    4.305690   2.496352   0.000000
    24  H    4.968665   4.313723   2.476154   0.000000
    25  H    7.225567   7.824145   6.609315   4.210121   0.000000
    26  H    9.138689   9.451290   7.863946   5.411704   2.466300
    27  H    9.335896   9.336813   7.638053   5.496361   4.314702
                   26         27
    26  H    0.000000
    27  H    2.498695   0.000000
 Stoichiometry    C13H12ClN
 Framework group  C1[X(C13H12ClN)]
 Deg. of freedom    75
 Full point group                 C1      NOp   1
 Largest Abelian subgroup         C1      NOp   1
 Largest concise Abelian subgroup C1      NOp   1
                         Standard orientation:                         
 ---------------------------------------------------------------------
 Center     Atomic      Atomic             Coordinates (Angstroms)
 Number     Number       Type             X           Y           Z
 ---------------------------------------------------------------------
      1         17           0        2.992662   -2.178159   -0.561788
      2          6           0        2.437550   -0.588681   -0.130443
      3          6           0        1.088970   -0.278468   -0.282167
      4          6           0        0.613483    0.998112    0.063229
      5          7           0       -0.743712    1.324453   -0.098291
      6          6           0       -1.090694    2.638175   -0.609452
      7          6           0       -1.759840    0.357617    0.026645
      8          6           0       -2.855659    0.355821   -0.850730
      9          6           0       -3.879852   -0.579083   -0.701735
     10          6           0       -3.827633   -1.534031    0.312583
     11          6           0       -2.740700   -1.535547    1.189922
     12          6           0       -1.721591   -0.596960    1.057842
     13          6           0        1.531818    1.950595    0.532512
     14          6           0        2.880221    1.625117    0.664292
     15          6           0        3.350476    0.354577    0.342559
     16          1           0        0.407459   -1.032062   -0.677978
     17          1           0       -0.935410    2.725345   -1.699473
     18          1           0       -0.497323    3.416745   -0.113913
     19          1           0       -2.144642    2.841690   -0.384432
     20          1           0       -2.899569    1.081008   -1.665712
     21          1           0       -4.723328   -0.566917   -1.395893
     22          1           0       -4.628813   -2.268519    0.422095
     23          1           0       -2.692292   -2.269643    1.997422
     24          1           0       -0.888696   -0.589246    1.763653
     25          1           0        1.190146    2.947026    0.815859
     26          1           0        3.579327    2.376410    1.036882
     27          1           0        4.404582    0.092224    0.449577
 ---------------------------------------------------------------------
 Rotational constants (GHZ):           0.8678197           0.3378807           0.2663691
 Standard basis: def2SVP (5D, 7F)
 There are   289 symmetry adapted cartesian basis functions of A   symmetry.
 There are   274 symmetry adapted basis functions of A   symmetry.
   274 basis functions,   471 primitive gaussians,   289 cartesian basis functions
    57 alpha electrons       57 beta electrons
       nuclear repulsion energy      1003.5505125730 Hartrees.
 NAtoms=   27 NActive=   27 NUniq=   27 SFac= 1.00D+00 NAtFMM=   60 NAOKFM=F Big=F
 Integral buffers will be    131072 words long.
 Raffenetti 2 integral format.
 Two-electron integral symmetry is turned on.
 Nuclear repulsion after empirical dispersion term =     1003.5326120513 Hartrees.
 One-electron integrals computed using PRISM.
   1 Symmetry operations used in ECPInt.
 ECPInt:  NShTT=    8256 NPrTT=   30622 LenC2=    7790 LenP2D=   20988.
 LDataN:  DoStor=T MaxTD1= 4 Len=   56
 NBasis=   274 RedAO= T EigKep=  2.56D-04  NBF=   274
 NBsUse=   274 1.00D-06 EigRej= -1.00D+00 NBFU=   274
 Initial guess from the checkpoint file:  "prod_5f_3.chk"
 B after Tr=     0.000000   -0.000000    0.000000
         Rot=    0.999979    0.004898    0.004089   -0.000656 Ang=   0.74 deg.
 ExpMin= 1.22D-01 ExpMax= 1.04D+04 ExpMxC= 1.57D+03 IAcc=3 IRadAn=         5 AccDes= 0.00D+00
 Harris functional with IExCor= 4639 and IRadAn=       5 diagonalized for initial guess.
 HarFok:  IExCor= 4639 AccDes= 0.00D+00 IRadAn=         5 IDoV= 1 UseB2=F ITyADJ=14
 ICtDFT=  3500011 ScaDFX=  1.000000  1.000000  1.000000  1.000000
 FoFCou: FMM=F IPFlag=           0 FMFlag=      100000 FMFlg1=           0
         NFxFlg=           0 DoJE=T BraDBF=F KetDBF=T FulRan=T
         wScrn=  0.000000 ICntrl=       500 IOpCl=  0 I1Cent=   200000004 NGrid=           0
         NMat0=    1 NMatS0=      1 NMatT0=    0 NMatD0=    1 NMtDS0=    0 NMtDT0=    0
 Petite list used in FoFCou.
 Requested convergence on RMS density matrix=1.00D-08 within 128 cycles.
 Requested convergence on MAX density matrix=1.00D-06.
 Requested convergence on             energy=1.00D-06.
 No special actions if energy rises.
 Integral accuracy reduced to 1.0D-05 until final iterations.
 Initial convergence to 1.0D-05 achieved.  Increase integral accuracy.
 SCF Done:  E(RwB97XD) =  -1016.82777016     A.U. after   14 cycles
            NFock= 14  Conv=0.74D-08     -V/T= 2.0072
   1 Symmetry operations used in ECPInt.
 ECPInt:  NShTT=    8256 NPrTT=   30622 LenC2=    7790 LenP2D=   20988.
 LDataN:  DoStor=T MaxTD1= 5 Len=  102
 Calling FoFJK, ICntrl=      2127 FMM=F ISym2X=0 I1Cent= 0 IOpClX= 0 NMat=1 NMatS=1 NMatT=0.
 ***** Axes restored to original set *****
 -------------------------------------------------------------------
 Center     Atomic                   Forces (Hartrees/Bohr)
 Number     Number              X              Y              Z
 -------------------------------------------------------------------
      1       17          -0.000755529   -0.002071915    0.000645102
      2        6           0.002644253    0.005162636   -0.001823501
      3        6          -0.001065919   -0.001677239    0.000370806
      4        6           0.001788807    0.000299295    0.000944041
      5        7           0.000304226    0.001472362   -0.001917377
      6        6           0.000110767   -0.002600871   -0.001534267
      7        6          -0.000773550    0.000823300    0.001927180
      8        6          -0.000146349   -0.001255375   -0.000266347
      9        6          -0.000439096   -0.000753786   -0.001361105
     10        6           0.000002361    0.000785060    0.000481390
     11        6          -0.000454152    0.001060156    0.001246641
     12        6           0.000717563   -0.000415928    0.000009426
     13        6          -0.002398930   -0.000606142   -0.000910292
     14        6           0.001827010   -0.000432353    0.000536477
     15        6          -0.001468698   -0.001376885    0.000507958
     16        1           0.000191571    0.000231324   -0.000395077
     17        1          -0.000047260    0.000305276    0.000427253
     18        1           0.000655665    0.000513744    0.000967461
     19        1           0.000327204    0.000977148    0.000164236
     20        1           0.000359992   -0.000796700   -0.000094752
     21        1          -0.000153267    0.000248756    0.000120970
     22        1          -0.000454502    0.000366351    0.000002193
     23        1          -0.000195418    0.000197879   -0.000106872
     24        1          -0.000195561   -0.000291659    0.000338007
     25        1          -0.001221611   -0.000681646   -0.000059284
     26        1          -0.000021342    0.000183546   -0.000147116
     27        1           0.000861764    0.000333669   -0.000073152
 -------------------------------------------------------------------
 Cartesian Forces:  Max     0.005162636 RMS     0.001122226

 GradGradGradGradGradGradGradGradGradGradGradGradGradGradGradGradGradGrad
 Berny optimization.
 Using GEDIIS/GDIIS optimizer.
 FormGI is forming the generalized inverse of G from B-inverse, IUseBI=4.
 Internal  Forces:  Max     0.005477135 RMS     0.001053354
 Search for a local minimum.
 Step number   2 out of a maximum of  145
 All quantities printed in internal units (Hartrees-Bohrs-Radians)
 Mixed Optimization -- RFO/linear search
 Update second derivatives using D2CorX and points    1    2
 DE= -5.27D-03 DEPred=-5.86D-03 R= 9.00D-01
 TightC=F SS=  1.41D+00  RLast= 2.33D-01 DXNew= 5.0454D-01 6.9798D-01
[...]
 Alpha virt. eigenvalues --   22.70552  22.70923  22.74210  22.84047  22.86601
 Alpha virt. eigenvalues --   22.92321  22.93737  23.26719  23.33331  25.99502
 Alpha virt. eigenvalues --   33.13624
          Condensed to atoms (all electrons):
               1          2          3          4          5          6
     1  Cl  16.861620   0.286257  -0.044054   0.011521  -0.000375  -0.000005
     2  C    0.286257   4.970590   0.253012   0.054256   0.006962  -0.000154
     3  C   -0.044054   0.253012   5.395027   0.316058  -0.060039  -0.000517
     4  C    0.011521   0.054256   0.316058   5.093629   0.284708  -0.077113
     5  N   -0.000375   0.006962  -0.060039   0.284708   6.405502   0.311504
     6  C   -0.000005  -0.000154  -0.000517  -0.077113   0.311504   4.928928
     7  C   -0.000219  -0.004422   0.040389  -0.162307   0.421943  -0.077070
     8  C    0.000012  -0.001234   0.004352  -0.002629  -0.090436  -0.005729
     9  C    0.000000   0.000147  -0.000021   0.000168   0.003304  -0.002112
    10  C   -0.000001  -0.000043   0.000119   0.000240   0.000196   0.000567
    11  C   -0.000016   0.000264   0.002364  -0.002000   0.002591  -0.000927
    12  C    0.000311  -0.004368  -0.006953   0.010137  -0.060559   0.011932
    13  C   -0.000391  -0.090954   0.036101   0.444821  -0.039849  -0.007762
    14  C    0.012942   0.055973  -0.106571  -0.004808   0.003020   0.001139
    15  C   -0.041463   0.349042   0.089146  -0.114582   0.002622   0.000018
    16  H    0.003056  -0.056392   0.431765  -0.036238  -0.004937   0.000135
    17  H    0.000005  -0.001062   0.005534  -0.007095  -0.052675   0.408567
    18  H    0.000001   0.000621  -0.000850  -0.008916  -0.025531   0.406308
    19  H   -0.000000   0.000196  -0.001733   0.013881  -0.043305   0.413764
    20  H    0.000000  -0.000015   0.000369  -0.001523  -0.004913   0.005408
    21  H    0.000000  -0.000000  -0.000005   0.000027  -0.000115  -0.000026
    22  H    0.000000  -0.000001   0.000002   0.000000   0.000018  -0.000001
    23  H   -0.000001   0.000020  -0.000068   0.000075  -0.000154   0.000014
    24  H    0.000122  -0.000967  -0.004174   0.001662  -0.002603  -0.000128
    25  H    0.000022  -0.002184   0.008536  -0.049394   0.005974  -0.003264
    26  H   -0.000279   0.011511  -0.003786   0.013328  -0.000206   0.000023
    27  H    0.001927  -0.066125   0.018773  -0.004932   0.000030  -0.000001
               7          8          9         10         11         12
     1  Cl  -0.000219   0.000012   0.000000  -0.000001  -0.000016   0.000311
     2  C   -0.004422  -0.001234   0.000147  -0.000043   0.000264  -0.004368
     3  C    0.040389   0.004352  -0.000021   0.000119   0.002364  -0.006953
     4  C   -0.162307  -0.002629   0.000168   0.000240  -0.002000   0.010137
     5  N    0.421943  -0.090436   0.003304   0.000196   0.002591  -0.060559
     6  C   -0.077070  -0.005729  -0.002112   0.000567  -0.000927   0.011932
     7  C    4.966488   0.380368   0.002165  -0.070856  -0.013163   0.387271
     8  C    0.380368   5.202094   0.440991   0.014889  -0.069186   0.021295
     9  C    0.002165   0.440991   4.876464   0.472565  -0.001104  -0.058773
    10  C   -0.070856   0.014889   0.472565   4.938978   0.456643   0.002685
    11  C   -0.013163  -0.069186  -0.001104   0.456643   4.892682   0.467884
    12  C    0.387271   0.021295  -0.058773   0.002685   0.467884   5.086752
    13  C   -0.009440   0.000034  -0.000003   0.000052  -0.000104   0.005924
    14  C   -0.001000   0.000090  -0.000001  -0.000001  -0.000013   0.000187
    15  C    0.001685   0.000080  -0.000007   0.000004  -0.000034  -0.000052
    16  H    0.002386   0.001618  -0.000072  -0.000002  -0.000345  -0.000762
    17  H   -0.005931   0.007745  -0.001099   0.000148  -0.000147  -0.000625
    18  H    0.006928   0.000638   0.000119  -0.000022   0.000069  -0.000505
    19  H   -0.004723  -0.005255   0.001544  -0.000297   0.000024   0.001123
    20  H   -0.059132   0.431594  -0.023385   0.005660  -0.000473   0.003181
    21  H    0.012840  -0.054157   0.436178  -0.053830   0.009863  -0.002686
    22  H   -0.003565   0.012665  -0.058200   0.445642  -0.058785   0.012134
    23  H    0.013306  -0.003458   0.010786  -0.056606   0.440160  -0.055374
    24  H   -0.051033   0.007346  -0.001988   0.007322  -0.037843   0.434425
    25  H    0.000529  -0.000024  -0.000004   0.000000   0.000012  -0.000043
    26  H   -0.000013  -0.000002   0.000000  -0.000000   0.000000   0.000004
    27  H    0.000017   0.000000  -0.000000   0.000000  -0.000001  -0.000005
              13         14         15         16         17         18
     1  Cl  -0.000391   0.012942  -0.041463   0.003056   0.000005   0.000001
     2  C   -0.090954   0.055973   0.349042  -0.056392  -0.001062   0.000621
     3  C    0.036101  -0.106571   0.089146   0.431765   0.005534  -0.000850
     4  C    0.444821  -0.004808  -0.114582  -0.036238  -0.007095  -0.008916
     5  N   -0.039849   0.003020   0.002622  -0.004937  -0.052675  -0.025531
     6  C   -0.007762   0.001139   0.000018   0.000135   0.408567   0.406308
     7  C   -0.009440  -0.001000   0.001685   0.002386  -0.005931   0.006928
     8  C    0.000034   0.000090   0.000080   0.001618   0.007745   0.000638
     9  C   -0.000003  -0.000001  -0.000007  -0.000072  -0.001099   0.000119
    10  C    0.000052  -0.000001   0.000004  -0.000002   0.000148  -0.000022
    11  C   -0.000104  -0.000013  -0.000034  -0.000345  -0.000147   0.000069
    12  C    0.005924   0.000187  -0.000052  -0.000762  -0.000625  -0.000505
    13  C    5.088858   0.440475   0.039121   0.010067   0.002985  -0.003049
    14  C    0.440475   4.904792   0.395915  -0.003835   0.000155   0.000131
    15  C    0.039121   0.395915   5.093743   0.012391   0.000060  -0.000212
    16  H    0.010067  -0.003835   0.012391   0.478800   0.000510  -0.000176
    17  H    0.002985   0.000155   0.000060   0.000510   0.584205  -0.027199
    18  H   -0.003049   0.000131  -0.000212  -0.000176  -0.027199   0.521702
    19  H   -0.000504  -0.000231  -0.000028  -0.000051  -0.046842  -0.011301
    20  H   -0.000078   0.000009  -0.000000   0.000025   0.003631   0.000372
    21  H    0.000000   0.000000   0.000000  -0.000001  -0.000000  -0.000001
    22  H    0.000000  -0.000000   0.000000   0.000002   0.000001  -0.000000
    23  H   -0.000012   0.000003  -0.000003  -0.000002  -0.000000  -0.000000
    24  H    0.000691   0.000242   0.000138  -0.000667   0.000035  -0.000033
    25  H    0.421130  -0.029607   0.007262  -0.000108   0.000688  -0.003256
    26  H   -0.054873   0.440415  -0.055812   0.000019  -0.000008   0.000033
    27  H    0.011966  -0.056732   0.444633   0.000037  -0.000000  -0.000001
              19         20         21         22         23         24
     1  Cl  -0.000000   0.000000   0.000000   0.000000  -0.000001   0.000122
     2  C    0.000196  -0.000015  -0.000000  -0.000001   0.000020  -0.000967
     3  C   -0.001733   0.000369  -0.000005   0.000002  -0.000068  -0.004174
     4  C    0.013881  -0.001523   0.000027   0.000000   0.000075   0.001662
     5  N   -0.043305  -0.004913  -0.000115   0.000018  -0.000154  -0.002603
     6  C    0.413764   0.005408  -0.000026  -0.000001   0.000014  -0.000128
     7  C   -0.004723  -0.059132   0.012840  -0.003565   0.013306  -0.051033
     8  C   -0.005255   0.431594  -0.054157   0.012665  -0.003458   0.007346
     9  C    0.001544  -0.023385   0.436178  -0.058200   0.010786  -0.001988
    10  C   -0.000297   0.005660  -0.053830   0.445642  -0.056606   0.007322
    11  C    0.000024  -0.000473   0.009863  -0.058785   0.440160  -0.037843
    12  C    0.001123   0.003181  -0.002686   0.012134  -0.055374   0.434425
    13  C   -0.000504  -0.000078   0.000000   0.000000  -0.000012   0.000691
    14  C   -0.000231   0.000009   0.000000  -0.000000   0.000003   0.000242
    15  C   -0.000028  -0.000000   0.000000   0.000000  -0.000003   0.000138
    16  H   -0.000051   0.000025  -0.000001   0.000002  -0.000002  -0.000667
    17  H   -0.046842   0.003631  -0.000000   0.000001  -0.000000   0.000035
    18  H   -0.011301   0.000372  -0.000001  -0.000000  -0.000000  -0.000033
    19  H    0.548352  -0.007447  -0.000015  -0.000000   0.000000  -0.000022
    20  H   -0.007447   0.522286  -0.006582  -0.000143   0.000036  -0.000138
    21  H   -0.000015  -0.006582   0.548916  -0.006869  -0.000168   0.000031
    22  H   -0.000000  -0.000143  -0.006869   0.547980  -0.006819  -0.000099
    23  H    0.000000   0.000036  -0.000168  -0.006819   0.545906  -0.007029
    24  H   -0.000022  -0.000138   0.000031  -0.000099  -0.007029   0.506853
    25  H   -0.000640   0.000002   0.000000   0.000000  -0.000000  -0.000036
    26  H    0.000005  -0.000000  -0.000000  -0.000000   0.000000  -0.000006
    27  H    0.000000   0.000000   0.000000   0.000000  -0.000000   0.000005
              25         26         27
     1  Cl   0.000022  -0.000279   0.001927
     2  C   -0.002184   0.011511  -0.066125
     3  C    0.008536  -0.003786   0.018773
     4  C   -0.049394   0.013328  -0.004932
     5  N    0.005974  -0.000206   0.000030
     6  C   -0.003264   0.000023  -0.000001
     7  C    0.000529  -0.000013   0.000017
     8  C   -0.000024  -0.000002   0.000000
     9  C   -0.000004   0.000000  -0.000000
    10  C    0.000000  -0.000000   0.000000
    11  C    0.000012   0.000000  -0.000001
    12  C   -0.000043   0.000004  -0.000005
    13  C    0.421130  -0.054873   0.011966
    14  C   -0.029607   0.440415  -0.056732
    15  C    0.007262  -0.055812   0.444633
    16  H   -0.000108   0.000019   0.000037
    17  H    0.000688  -0.000008  -0.000000
    18  H   -0.003256   0.000033  -0.000001
    19  H   -0.000640   0.000005   0.000000
    20  H    0.000002  -0.000000   0.000000
    21  H    0.000000  -0.000000   0.000000
    22  H    0.000000  -0.000000   0.000000
    23  H   -0.000000   0.000000  -0.000000
    24  H   -0.000036  -0.000006   0.000005
    25  H    0.505428  -0.006633  -0.000067
    26  H   -0.006633   0.536642  -0.006706
    27  H   -0.000067  -0.006706   0.521986
 Mulliken charges:
               1
     1  Cl  -0.090993
     2  C    0.239072
     3  C   -0.372776
     4  C    0.227026
     5  N   -0.062680
     6  C   -0.313498
     7  C    0.226560
     8  C   -0.293702
     9  C   -0.097664
    10  C   -0.164054
    11  C   -0.088415
    12  C   -0.254538
    13  C   -0.295207
    14  C   -0.052686
    15  C   -0.223665
    16  H    0.162778
    17  H    0.128413
    18  H    0.144131
    19  H    0.143507
    20  H    0.131256
    21  H    0.116598
    22  H    0.116038
    23  H    0.119389
    24  H    0.147892
    25  H    0.145679
    26  H    0.126345
    27  H    0.135195
 Sum of Mulliken charges =  -0.00000
 Mulliken charges with hydrogens summed into heavy atoms:
               1
     1  Cl  -0.090993
     2  C    0.239072
     3  C   -0.209998
     4  C    0.227026
     5  N   -0.062680
     6  C    0.102553
     7  C    0.226560
     8  C   -0.162446
     9  C    0.018934
    10  C   -0.048016
    11  C    0.030973
    12  C   -0.106646
    13  C   -0.149528
    14  C    0.073658
    15  C   -0.088470
 Electronic spatial extent (au):  <R**2>=           4048.2115
 Charge=             -0.0000 electrons
 Dipole moment (field-independent basis, Debye):
    X=             -0.2768    Y=              2.2727    Z=              0.1165  Tot=              2.2924
 Quadrupole moment (field-independent basis, Debye-Ang):
   XX=            -92.6640   YY=            -89.6249   ZZ=            -94.9294
   XY=              4.2851   XZ=              6.1633   YZ=             -2.2711
 Traceless Quadrupole moment (field-independent basis, Debye-Ang):
   XX=             -0.2579   YY=              2.7812   ZZ=             -2.5233
   XY=              4.2851   XZ=              6.1633   YZ=             -2.2711
 Octapole moment (field-independent basis, Debye-Ang**2):
  XXX=             13.0012  YYY=             11.4921  ZZZ=             -6.6422  XYY=             -2.7248
  XXY=              2.3189  XXZ=             -0.5650  XZZ=              3.2526  YZZ=             -1.0897
  YYZ=              5.5241  XYZ=             14.6879
 Hexadecapole moment (field-independent basis, Debye-Ang**3):
 XXXX=          -3654.3388 YYYY=          -1232.1610 ZZZZ=           -438.2730 XXXY=             60.6767
 XXXZ=            112.0087 YYYX=            -23.4443 YYYZ=              5.3159 ZZZX=             -1.9058
 ZZZY=             -4.7064 XXYY=           -824.8796 XXZZ=           -715.2671 YYZZ=           -268.5536
 XXYZ=             -4.3289 YYXZ=             -2.4280 ZZXY=             -5.9667
 N-N= 1.003787315237D+03 E-N=-4.395199690035D+03  KE= 1.013777172516D+03
 Breneman (CHELPG) radii used.
 Read replacement radii for each type of atom:
 Atom Element Radius
    1    17    2.00
    2     6    1.50
    3     6    1.50
    4     6    1.50
    5     7    1.70
    6     6    1.50
    7     6    1.50
    8     6    1.50
    9     6    1.50
   10     6    1.50
   11     6    1.50
   12     6    1.50
   13     6    1.50
   14     6    1.50
   15     6    1.50
   16     1    1.45
   17     1    1.45
   18     1    1.45
   19     1    1.45
   20     1    1.45
   21     1    1.45
   22     1    1.45
   23     1    1.45
   24     1    1.45
   25     1    1.45
   26     1    1.45
   27     1    1.45
 Generate Potential Derived Charges using the Breneman model, NDens= 1.
 Grid spacing= 0.300 Box extension= 2.800
 NStep X,Y,Z=   51     39     33   Total possible points=       65637
 Number of Points to Fit=   16832

 **********************************************************************

            Electrostatic Properties Using The SCF Density.

 **********************************************************************

       Atomic Center    1 is at   3.135591 -2.026402 -0.710194
       Atomic Center    2 is at   2.470615 -0.519186 -0.138997
       Atomic Center    3 is at   1.133801 -0.230833 -0.392138
       Atomic Center    4 is at   0.583152  0.973337  0.068062
       Atomic Center    5 is at  -0.770425  1.291437 -0.188058
       Atomic Center    6 is at  -1.050528  2.479964 -0.966099
       Atomic Center    7 is at  -1.779431  0.340196 -0.004972
       Atomic Center    8 is at  -2.970679  0.386643 -0.748817
       Atomic Center    9 is at  -3.983661 -0.546097 -0.526096
       Atomic Center   10 is at  -3.838511 -1.546421  0.429286
       Atomic Center   11 is at  -2.658719 -1.595913  1.174907
       Atomic Center   12 is at  -1.646737 -0.667265  0.971557
       Atomic Center   13 is at   1.400390  1.873171  0.763983
       Atomic Center   14 is at   2.742464  1.576963  0.986273
       Atomic Center   15 is at   3.292325  0.376024  0.544179
       Atomic Center   16 is at   0.514895 -0.942252 -0.940034
       Atomic Center   17 is at  -1.171899  2.261571 -2.043967
       Atomic Center   18 is at  -0.219929  3.188268 -0.864287
       Atomic Center   19 is at  -1.967113  2.972917 -0.607610
       Atomic Center   20 is at  -3.115399  1.146894 -1.516088
       Atomic Center   21 is at  -4.897950 -0.486403 -1.121269
       Atomic Center   22 is at  -4.632504 -2.276410  0.596213
       Atomic Center   23 is at  -2.526791 -2.365106  1.939438
       Atomic Center   24 is at  -0.741910 -0.712612  1.579551
       Atomic Center   25 is at   0.971989  2.802836  1.143233
       Atomic Center   26 is at   3.369028  2.286022  1.531330
       Atomic Center   27 is at   4.338629  0.129548  0.726427
   16832 points will be used for fitting atomic charges
 Fitting point charges to electrostatic potential
 Charges from ESP fit, RMS=   0.00400 RRMS=   0.38956:
 ESP charges:
               1
     1  Cl  -0.128031
     2  C    0.081355
     3  C   -0.126083
     4  C    0.348597
     5  N   -0.451990
     6  C    0.067642
     7  C    0.402877
     8  C   -0.273335
     9  C   -0.052081
    10  C   -0.171135
    11  C   -0.040502
    12  C   -0.232768
    13  C   -0.250119
    14  C   -0.088453
    15  C   -0.113720
    16  H    0.082325
    17  H    0.019356
    18  H    0.033991
    19  H    0.031051
    20  H    0.130803
    21  H    0.091516
    22  H    0.099434
    23  H    0.093783
    24  H    0.084109
    25  H    0.146134
    26  H    0.110692
    27  H    0.104552
 Sum of ESP charges =  -0.00000
 ESP charges with hydrogens summed into heavy atoms:
               1
     1  Cl  -0.128031
     2  C    0.081355
     3  C   -0.043758
     4  C    0.348597
     5  N   -0.451990
     6  C    0.152040
     7  C    0.402877
     8  C   -0.142532
     9  C    0.039435
    10  C   -0.071701
    11  C    0.053281
    12  C   -0.148658
    13  C   -0.103985
    14  C    0.022239
    15  C   -0.009168
 Charge=  -0.00000 Dipole=    -0.3639     2.4197     0.1707 Tot=     2.4529
 -----------------------------------------------------------------

              Electrostatic Properties (Atomic Units)

 -----------------------------------------------------------------
    Center     Electric         -------- Electric Field --------
               Potential          X             Y             Z
 -----------------------------------------------------------------
    1 Atom    -64.432932
    2 Atom    -14.700375
    3 Atom    -14.756674
    4 Atom    -14.713170
    5 Atom    -18.352265
    6 Atom    -14.729603
    7 Atom    -14.723063
    8 Atom    -14.772688
    9 Atom    -14.769917
   10 Atom    -14.778444
   11 Atom    -14.770533
   12 Atom    -14.774305
   13 Atom    -14.758970
   14 Atom    -14.752551
   15 Atom    -14.756355
   16 Atom     -1.089675
   17 Atom     -1.109135
   18 Atom     -1.097976
   19 Atom     -1.104485
   20 Atom     -1.104591
   21 Atom     -1.109503
   22 Atom     -1.112990
   23 Atom     -1.110389
   24 Atom     -1.107929
   25 Atom     -1.091883
   26 Atom     -1.093211
   27 Atom     -1.091554
 -----------------------------------------------------------------
 Unable to Open any file for archive entry.
 1\1\GINC-NOTCH446\SP\RwB97XD\def2TZVP\C13H12Cl1N1\U1366379\17-Feb-2026
 \0\\#N Guess=Read Geom=Check Integral(Ultrafine) Density Pop=(ChelpG,R
 eadRadii) NMR wB97XD def2TZVP\\prod_5f_3\\0,1\Cl,0,-3.1079421954,-1.83
 87865009,0.9336550903\C,0,-2.4339698124,-0.3724399183,0.2735440048\C,0
 ,-1.0838892355,-0.1011939502,0.468499728\C,0,-0.5262002994,1.069749832
 9,-0.0633804058\N,0,0.8413096925,1.3704895255,0.1326548872\C,0,1.17103
 80463,2.5860533003,0.8468568152\C,0,1.8247848828,0.3912324412,-0.04142
 54286\C,0,3.041638465,0.4455355866,0.6591827297\C,0,4.0280800225,-0.51
 70724981,0.4445676172\C,0,3.8307332943,-1.5552953091,-0.4596544354\C,0
 ,2.6252067619,-1.6129589712,-1.1622847246\C,0,1.6390179123,-0.65531184
 81,-0.9668605227\C,0,-1.3493492376,1.9549011568,-0.7710658567\C,0,-2.7
 037745102,1.6772793204,-0.9346909743\C,0,-3.2612379875,0.5087478134,-0
 .4210583273\H,0,-0.4603680561,-0.8005374864,1.0266138545\H,0,1.3252321
 026,2.4129078533,1.928739657\H,0,0.3513030849,3.3063749741,0.741373537
 3\H,0,2.0841018421,3.0434674224,0.4360873251\H,0,3.2274208484,1.235687
 394,1.3863534085\H,0,4.9633237466,-0.4503074993,1.0054426038\H,0,4.604
 2077308,-2.3083601699,-0.6202897487\H,0,2.4521276303,-2.4121876002,-1.
 8867481676\H,0,0.7130641133,-0.708510205,-1.5414957888\H,0,-0.91634137
 13,2.8577889871,-1.2057292086\H,0,-3.3348963725,2.374550748,-1.4896073
 822\H,0,-4.3177810985,0.2763856008,-0.5568602872\\Version=ES64L-G16Rev
 C.01\State=1-A\HF=-1017.5707472\RMSD=1.236e-09\Dipole=0.124562,0.88878
 15,-0.0894462\Quadrupole=0.0016396,2.332302,-2.3339417,-2.8790216,4.68
 09565,1.5068587\PG=C01 [X(C13H12Cl1N1)]\\@
 The archive entry for this job was punched.


 DO NOT LET SELFISH MEN OR GREEDY INTERESTS SKIN YOUR COUNTRY OF ITS
 BEAUTY, ITS RICHES, OR ITS ROMANCE. -- THEODORE ROOSEVELT
 Job cpu time:       0 days  0 hours 36 minutes 53.4 seconds.
 Elapsed time:       0 days  0 hours  4 minutes 44.7 seconds.
 File lengths (MBytes):  RWF=    183 Int=      0 D2E=      0 Chk=     28 Scr=      2
 Normal termination of Gaussian 16 at Tue Feb 17 16:10:55 2026.
