 Entering Gaussian System, Link 0=g16
 Input=prod_3g_5.com
 Output=prod_3g_5.log
 Initial command:
 /uufs/chpc.utah.edu/sys/installdir/gaussian16/C01/AVX/g16/l1.exe "/scratch/general/vast/u1366379/GAUSSSCRDIR/11028616-notchpeak.peaks/Gau-2981300.inp" -scrdir="/scratch/general/vast/u1366379/GAUSSSCRDIR/11028616-notchpeak.peaks/"
 Entering Link 1 = /uufs/chpc.utah.edu/sys/installdir/gaussian16/C01/AVX/g16/l1.exe PID=   2981308.
  
 Copyright (c) 1988-2019, Gaussian, Inc.  All Rights Reserved.
  
 This is part of the Gaussian(R) 16 program.  It is based on
 the Gaussian(R) 09 system (copyright 2009, Gaussian, Inc.),
 the Gaussian(R) 03 system (copyright 2003, Gaussian, Inc.),
 the Gaussian(R) 98 system (copyright 1998, Gaussian, Inc.),
 the Gaussian(R) 94 system (copyright 1995, Gaussian, Inc.),
 the Gaussian 92(TM) system (copyright 1992, Gaussian, Inc.),
 the Gaussian 90(TM) system (copyright 1990, Gaussian, Inc.),
 the Gaussian 88(TM) system (copyright 1988, Gaussian, Inc.),
 the Gaussian 86(TM) system (copyright 1986, Carnegie Mellon
 University), and the Gaussian 82(TM) system (copyright 1983,
 Carnegie Mellon University). Gaussian is a federally registered
 trademark of Gaussian, Inc.
  
 This software contains proprietary and confidential information,
 including trade secrets, belonging to Gaussian, Inc.
  
 This software is provided under written license and may be
 used, copied, transmitted, or stored only in accord with that
 written license.
  
 The following legend is applicable only to US Government
 contracts under FAR:
  
                    RESTRICTED RIGHTS LEGEND
  
 Use, reproduction and disclosure by the US Government is
 subject to restrictions as set forth in subparagraphs (a)
 and (c) of the Commercial Computer Software - Restricted
 Rights clause in FAR 52.227-19.
  
 Gaussian, Inc.
 340 Quinnipiac St., Bldg. 40, Wallingford CT 06492
  
  
 ---------------------------------------------------------------
 Warning -- This program may not be used in any manner that
 competes with the business of Gaussian, Inc. or will provide
 assistance to any competitor of Gaussian, Inc.  The licensee
 of this program is prohibited from giving any competitor of
 Gaussian, Inc. access to this program.  By using this program,
 the user acknowledges that Gaussian, Inc. is engaged in the
 business of creating and licensing software in the field of
 computational chemistry and represents and warrants to the
 licensee that it is not a competitor of Gaussian, Inc. and that
 it will not use this program in any manner prohibited above.
 ---------------------------------------------------------------
  

 Cite this work as:
 Gaussian 16, Revision C.01,
 M. J. Frisch, G. W. Trucks, H. B. Schlegel, G. E. Scuseria, 
 M. A. Robb, J. R. Cheeseman, G. Scalmani, V. Barone, 
 G. A. Petersson, H. Nakatsuji, X. Li, M. Caricato, A. V. Marenich, 
 J. Bloino, B. G. Janesko, R. Gomperts, B. Mennucci, H. P. Hratchian, 
 J. V. Ortiz, A. F. Izmaylov, J. L. Sonnenberg, D. Williams-Young, 
 F. Ding, F. Lipparini, F. Egidi, J. Goings, B. Peng, A. Petrone, 
 T. Henderson, D. Ranasinghe, V. G. Zakrzewski, J. Gao, N. Rega, 
 G. Zheng, W. Liang, M. Hada, M. Ehara, K. Toyota, R. Fukuda, 
 J. Hasegawa, M. Ishida, T. Nakajima, Y. Honda, O. Kitao, H. Nakai, 
 T. Vreven, K. Throssell, J. A. Montgomery, Jr., J. E. Peralta, 
 F. Ogliaro, M. J. Bearpark, J. J. Heyd, E. N. Brothers, K. N. Kudin, 
 V. N. Staroverov, T. A. Keith, R. Kobayashi, J. Normand, 
 K. Raghavachari, A. P. Rendell, J. C. Burant, S. S. Iyengar, 
 J. Tomasi, M. Cossi, J. M. Millam, M. Klene, C. Adamo, R. Cammi, 
 J. W. Ochterski, R. L. Martin, K. Morokuma, O. Farkas, 
 J. B. Foresman, and D. J. Fox, Gaussian, Inc., Wallingford CT, 2019.
 
 ******************************************
 Gaussian 16:  ES64L-G16RevC.01  3-Jul-2019
                17-Feb-2026 
 ******************************************
 %NProcShared=8
 Will use up to    8 processors via shared memory.
 %Mem=8GB
 %chk=prod_3g_5.chk
 ------------------------------------------------------
 #N OPT FREQ=NORAMAN Integral(Ultrafine) wB97XD def2SVP
 ------------------------------------------------------
 1/18=20,19=15,26=4,38=1/1,3;
 2/9=110,12=2,17=6,18=5,40=1/2;
 3/5=43,7=101,11=2,25=1,30=1,71=1,74=-58,75=-5/1,2,3;
 4//1;
 5/5=2,38=5/2;
 6/7=2,8=2,9=2,10=2,28=1/1;
 7//1,2,3,16;
 1/18=20,19=15,26=4/3(2);
 2/9=110/2;
 99//99;
 2/9=110/2;
 3/5=43,7=101,11=2,25=1,30=1,71=1,74=-58,75=-5/1,2,3;
 4/5=5,16=3,69=1/1;
 5/5=2,38=5/2;
 7//1,2,3,16;
 1/18=20,19=15,26=4/3(-5);
 2/9=110/2;
 6/7=2,8=2,9=2,10=2,19=2,28=1/1;
 99/9=1/99;
 ---------
 prod_3g_5
 ---------
 Symbolic Z-matrix:
 Charge =  0 Multiplicity = 1
 C                    -2.95871   2.77611  -0.36849 
 O                    -3.45875   1.52216  -0.76432 
 C                    -2.65392   0.43145  -0.40993 
 C                    -1.45061   0.53238   0.28342 
 C                    -0.69955  -0.59371   0.60268 
 N                     0.55037  -0.46183   1.29463 
 C                     1.80229  -0.25662   0.68297 
 C                     2.94987  -0.08512   1.45465 
 C                     4.17235   0.11773   0.85466 
 C                     4.27198   0.15286  -0.52304 
 C                     3.14256  -0.01595  -1.30078 
 C                     1.91858  -0.21886  -0.70457 
 C                    -1.16768  -1.84844   0.21143 
 C                    -2.35582  -1.96564  -0.4737 
 C                    -3.09199  -0.84316  -0.78104 
 H                    -3.65923   3.54664  -0.69211 
 H                    -2.86835   2.81435   0.7177 
 H                    -1.992     2.95634  -0.84018 
 H                    -1.07379   1.49143   0.5815 
 H                     0.52747  -0.42804   2.31287 
 H                     2.86759  -0.11344   2.52711 
 H                     5.05364   0.24952   1.46094 
 H                     5.22994   0.31183  -0.99053 
 H                     3.21996   0.01138  -2.37539 
 H                     1.03473  -0.35046  -1.30329 
 H                    -0.58183  -2.71816   0.45176 
 H                    -2.71074  -2.93872  -0.77125 
 H                    -4.02144  -0.92494  -1.31596 
 

 GradGradGradGradGradGradGradGradGradGradGradGradGradGradGradGradGradGrad
 Berny optimization.
 Initialization pass.
                           ----------------------------
                           !    Initial Parameters    !
                           ! (Angstroms and Degrees)  !
 --------------------------                            --------------------------
 ! Name  Definition              Value          Derivative Info.                !
 --------------------------------------------------------------------------------
 ! R1    R(1,2)                  1.4068         estimate D2E/DX2                !
 ! R2    R(1,16)                 1.0905         estimate D2E/DX2                !
 ! R3    R(1,17)                 1.0906         estimate D2E/DX2                !
 ! R4    R(1,18)                 1.0906         estimate D2E/DX2                !
 ! R5    R(2,3)                  1.4011         estimate D2E/DX2                !
 ! R6    R(3,4)                  1.3924         estimate D2E/DX2                !
 ! R7    R(3,15)                 1.3979         estimate D2E/DX2                !
 ! R8    R(4,5)                  1.3907         estimate D2E/DX2                !
 ! R9    R(4,19)                 1.0727         estimate D2E/DX2                !
 ! R10   R(5,6)                  1.4347         estimate D2E/DX2                !
 ! R11   R(5,13)                 1.3952         estimate D2E/DX2                !
 ! R12   R(6,7)                  1.4084         estimate D2E/DX2                !
 ! R13   R(6,20)                 1.0191         estimate D2E/DX2                !
 ! R14   R(7,8)                  1.3935         estimate D2E/DX2                !
 ! R15   R(7,12)                 1.3929         estimate D2E/DX2                !
 ! R16   R(8,9)                  1.3768         estimate D2E/DX2                !
 ! R17   R(8,21)                 1.076          estimate D2E/DX2                !
 ! R18   R(9,10)                 1.3817         estimate D2E/DX2                !
 ! R19   R(9,22)                 1.0778         estimate D2E/DX2                !
 ! R20   R(10,11)                1.3817         estimate D2E/DX2                !
 ! R21   R(10,23)                1.0777         estimate D2E/DX2                !
 ! R22   R(11,12)                1.3765         estimate D2E/DX2                !
 ! R23   R(11,24)                1.0777         estimate D2E/DX2                !
 ! R24   R(12,25)                1.0756         estimate D2E/DX2                !
 ! R25   R(13,14)                1.3765         estimate D2E/DX2                !
 ! R26   R(13,26)                1.0758         estimate D2E/DX2                !
 ! R27   R(14,15)                1.3771         estimate D2E/DX2                !
 ! R28   R(14,27)                1.0777         estimate D2E/DX2                !
 ! R29   R(15,28)                1.0755         estimate D2E/DX2                !
 ! A1    A(2,1,16)             108.5409         estimate D2E/DX2                !
 ! A2    A(2,1,17)             109.9335         estimate D2E/DX2                !
 ! A3    A(2,1,18)             109.9171         estimate D2E/DX2                !
 ! A4    A(16,1,17)            108.9056         estimate D2E/DX2                !
 ! A5    A(16,1,18)            108.922          estimate D2E/DX2                !
 ! A6    A(17,1,18)            110.5792         estimate D2E/DX2                !
 ! A7    A(1,2,3)              114.7429         estimate D2E/DX2                !
 ! A8    A(2,3,4)              124.4676         estimate D2E/DX2                !
 ! A9    A(2,3,15)             117.5577         estimate D2E/DX2                !
 ! A10   A(4,3,15)             117.9746         estimate D2E/DX2                !
 ! A11   A(3,4,5)              121.4879         estimate D2E/DX2                !
 ! A12   A(3,4,19)             120.4479         estimate D2E/DX2                !
 ! A13   A(5,4,19)             118.063          estimate D2E/DX2                !
 ! A14   A(4,5,6)              120.4489         estimate D2E/DX2                !
 ! A15   A(4,5,13)             118.8565         estimate D2E/DX2                !
 ! A16   A(6,5,13)             120.6783         estimate D2E/DX2                !
 ! A17   A(5,6,7)              125.3336         estimate D2E/DX2                !
 ! A18   A(5,6,20)             117.7339         estimate D2E/DX2                !
 ! A19   A(7,6,20)             116.6856         estimate D2E/DX2                !
 ! A20   A(6,7,8)              120.6282         estimate D2E/DX2                !
 ! A21   A(6,7,12)             120.7161         estimate D2E/DX2                !
 ! A22   A(8,7,12)             118.6556         estimate D2E/DX2                !
 ! A23   A(7,8,9)              120.5322         estimate D2E/DX2                !
 ! A24   A(7,8,21)             119.0612         estimate D2E/DX2                !
 ! A25   A(9,8,21)             120.4066         estimate D2E/DX2                !
 ! A26   A(8,9,10)             120.1507         estimate D2E/DX2                !
 ! A27   A(8,9,22)             119.9279         estimate D2E/DX2                !
 ! A28   A(10,9,22)            119.9214         estimate D2E/DX2                !
 ! A29   A(9,10,11)            119.9478         estimate D2E/DX2                !
 ! A30   A(9,10,23)            120.0228         estimate D2E/DX2                !
 ! A31   A(11,10,23)           120.0295         estimate D2E/DX2                !
 ! A32   A(10,11,12)           120.0702         estimate D2E/DX2                !
 ! A33   A(10,11,24)           119.9647         estimate D2E/DX2                !
 ! A34   A(12,11,24)           119.9651         estimate D2E/DX2                !
 ! A35   A(7,12,11)            120.6434         estimate D2E/DX2                !
 ! A36   A(7,12,25)            118.8525         estimate D2E/DX2                !
 ! A37   A(11,12,25)           120.504          estimate D2E/DX2                !
 ! A38   A(5,13,14)            120.3816         estimate D2E/DX2                !
 ! A39   A(5,13,26)            118.7947         estimate D2E/DX2                !
 ! A40   A(14,13,26)           120.8233         estimate D2E/DX2                !
 ! A41   A(13,14,15)           120.2058         estimate D2E/DX2                !
 ! A42   A(13,14,27)           119.9053         estimate D2E/DX2                !
 ! A43   A(15,14,27)           119.8888         estimate D2E/DX2                !
 ! A44   A(3,15,14)            121.093          estimate D2E/DX2                !
 ! A45   A(3,15,28)            118.1757         estimate D2E/DX2                !
 ! A46   A(14,15,28)           120.7313         estimate D2E/DX2                !
 ! D1    D(16,1,2,3)          -179.9471         estimate D2E/DX2                !
 ! D2    D(17,1,2,3)           -60.9243         estimate D2E/DX2                !
 ! D3    D(18,1,2,3)            61.0199         estimate D2E/DX2                !
 ! D4    D(1,2,3,4)              0.2614         estimate D2E/DX2                !
 ! D5    D(1,2,3,15)          -179.6657         estimate D2E/DX2                !
 ! D6    D(2,3,4,5)           -179.9484         estimate D2E/DX2                !
 ! D7    D(2,3,4,19)            -0.3549         estimate D2E/DX2                !
 ! D8    D(15,3,4,5)            -0.0215         estimate D2E/DX2                !
 ! D9    D(15,3,4,19)          179.572          estimate D2E/DX2                !
 ! D10   D(2,3,15,14)          179.7934         estimate D2E/DX2                !
 ! D11   D(2,3,15,28)           -0.1202         estimate D2E/DX2                !
 ! D12   D(4,3,15,14)           -0.1386         estimate D2E/DX2                !
 ! D13   D(4,3,15,28)          179.9478         estimate D2E/DX2                !
 ! D14   D(3,4,5,6)            178.7621         estimate D2E/DX2                !
 ! D15   D(3,4,5,13)             0.2231         estimate D2E/DX2                !
 ! D16   D(19,4,5,6)            -0.8407         estimate D2E/DX2                !
 ! D17   D(19,4,5,13)         -179.3797         estimate D2E/DX2                !
 ! D18   D(4,5,6,7)            -87.4974         estimate D2E/DX2                !
 ! D19   D(4,5,6,20)            86.5862         estimate D2E/DX2                !
 ! D20   D(13,5,6,7)            91.0147         estimate D2E/DX2                !
 ! D21   D(13,5,6,20)          -94.9016         estimate D2E/DX2                !
 ! D22   D(4,5,13,14)           -0.2705         estimate D2E/DX2                !
 ! D23   D(4,5,13,26)          179.4979         estimate D2E/DX2                !
 ! D24   D(6,5,13,14)         -178.806          estimate D2E/DX2                !
 ! D25   D(6,5,13,26)            0.9624         estimate D2E/DX2                !
 ! D26   D(5,6,7,8)            177.2544         estimate D2E/DX2                !
 ! D27   D(5,6,7,12)            -2.6458         estimate D2E/DX2                !
 ! D28   D(20,6,7,8)             3.1151         estimate D2E/DX2                !
 ! D29   D(20,6,7,12)         -176.7851         estimate D2E/DX2                !
 ! D30   D(6,7,8,9)           -179.884          estimate D2E/DX2                !
 ! D31   D(6,7,8,21)             0.1183         estimate D2E/DX2                !
 ! D32   D(12,7,8,9)             0.0183         estimate D2E/DX2                !
 ! D33   D(12,7,8,21)         -179.9794         estimate D2E/DX2                !
 ! D34   D(6,7,12,11)          179.8898         estimate D2E/DX2                !
 ! D35   D(6,7,12,25)           -0.0723         estimate D2E/DX2                !
 ! D36   D(8,7,12,11)           -0.0123         estimate D2E/DX2                !
 ! D37   D(8,7,12,25)         -179.9744         estimate D2E/DX2                !
 ! D38   D(7,8,9,10)            -0.0112         estimate D2E/DX2                !
 ! D39   D(7,8,9,22)           179.9831         estimate D2E/DX2                !
 ! D40   D(21,8,9,10)          179.9865         estimate D2E/DX2                !
 ! D41   D(21,8,9,22)           -0.0192         estimate D2E/DX2                !
 ! D42   D(8,9,10,11)           -0.0021         estimate D2E/DX2                !
 ! D43   D(8,9,10,23)          179.997          estimate D2E/DX2                !
 ! D44   D(22,9,10,11)        -179.9964         estimate D2E/DX2                !
 ! D45   D(22,9,10,23)           0.0027         estimate D2E/DX2                !
 ! D46   D(9,10,11,12)           0.0081         estimate D2E/DX2                !
 ! D47   D(9,10,11,24)        -179.9987         estimate D2E/DX2                !
 ! D48   D(23,10,11,12)       -179.991          estimate D2E/DX2                !
 ! D49   D(23,10,11,24)          0.0022         estimate D2E/DX2                !
 ! D50   D(10,11,12,7)          -0.0008         estimate D2E/DX2                !
 ! D51   D(10,11,12,25)        179.9607         estimate D2E/DX2                !
 ! D52   D(24,11,12,7)        -179.994          estimate D2E/DX2                !
 ! D53   D(24,11,12,25)         -0.0325         estimate D2E/DX2                !
 ! D54   D(5,13,14,15)           0.1165         estimate D2E/DX2                !
 ! D55   D(5,13,14,27)        -179.9325         estimate D2E/DX2                !
 ! D56   D(26,13,14,15)       -179.6472         estimate D2E/DX2                !
 ! D57   D(26,13,14,27)          0.3038         estimate D2E/DX2                !
 ! D58   D(13,14,15,3)           0.0922         estimate D2E/DX2                !
 ! D59   D(13,14,15,28)       -179.9963         estimate D2E/DX2                !
 ! D60   D(27,14,15,3)        -179.8588         estimate D2E/DX2                !
 ! D61   D(27,14,15,28)          0.0526         estimate D2E/DX2                !
 --------------------------------------------------------------------------------
 Trust Radius=3.00D-01 FncErr=1.00D-07 GrdErr=1.00D-06 EigMax=2.50D+02 EigMin=1.00D-04
 Number of steps in this run=    146 maximum allowed number of steps=    168.
 GradGradGradGradGradGradGradGradGradGradGradGradGradGradGradGradGradGrad

                          Input orientation:                          
 ---------------------------------------------------------------------
 Center     Atomic      Atomic             Coordinates (Angstroms)
 Number     Number       Type             X           Y           Z
 ---------------------------------------------------------------------
      1          6           0       -2.958710    2.776110   -0.368490
      2          8           0       -3.458750    1.522160   -0.764320
      3          6           0       -2.653920    0.431450   -0.409930
      4          6           0       -1.450610    0.532380    0.283420
      5          6           0       -0.699550   -0.593710    0.602680
      6          7           0        0.550370   -0.461830    1.294630
      7          6           0        1.802290   -0.256620    0.682970
      8          6           0        2.949870   -0.085120    1.454650
      9          6           0        4.172350    0.117730    0.854660
     10          6           0        4.271980    0.152860   -0.523040
     11          6           0        3.142560   -0.015950   -1.300780
     12          6           0        1.918580   -0.218860   -0.704570
     13          6           0       -1.167680   -1.848440    0.211430
     14          6           0       -2.355820   -1.965640   -0.473700
     15          6           0       -3.091990   -0.843160   -0.781040
     16          1           0       -3.659230    3.546640   -0.692110
     17          1           0       -2.868350    2.814350    0.717700
     18          1           0       -1.992000    2.956340   -0.840180
     19          1           0       -1.073790    1.491430    0.581500
     20          1           0        0.527470   -0.428040    2.312870
     21          1           0        2.867590   -0.113440    2.527110
     22          1           0        5.053640    0.249520    1.460940
     23          1           0        5.229940    0.311830   -0.990530
     24          1           0        3.219960    0.011380   -2.375390
     25          1           0        1.034730   -0.350460   -1.303290
     26          1           0       -0.581830   -2.718160    0.451760
     27          1           0       -2.710740   -2.938720   -0.771250
     28          1           0       -4.021440   -0.924940   -1.315960
 ---------------------------------------------------------------------
                    Distance matrix (angstroms):
                    1          2          3          4          5
     1  C    0.000000
     2  O    1.406809   0.000000
     3  C    2.364750   1.401068   0.000000
     4  C    2.780949   2.471851   1.392435   0.000000
     5  C    4.171650   3.736145   2.428146   1.390718   0.000000
     6  N    5.056072   4.924280   3.737773   2.452533   1.434743
     7  C    5.741963   5.739098   4.639577   3.370982   2.525724
     8  C    6.813354   6.969762   5.928403   4.595357   3.781902
     9  C    7.708119   7.926362   6.949501   5.667092   4.930015
    10  C    7.693387   7.854768   6.932424   5.791584   5.151769
    11  C    6.774235   6.799328   5.881578   4.889536   4.326520
    12  C    5.733302   5.652468   4.627901   3.590533   2.950258
    13  C    4.993051   4.190708   2.791576   2.398653   1.395195
    14  C    4.781081   3.669559   2.416396   2.762741   2.404998
    15  C    3.645144   2.393644   1.397948   2.391509   2.775009
    16  H    1.090493   2.035663   3.285526   3.862049   5.251541
    17  H    1.090613   2.052976   2.644947   2.721392   4.041262
    18  H    1.090643   2.052799   2.645434   2.726016   4.044147
    19  H    2.470993   2.738651   2.145531   1.072670   2.118564
    20  H    5.441481   5.400216   4.274764   2.992303   2.111344
    21  H    7.118973   7.316507   6.277753   4.908979   4.081492
    22  H    8.598152   8.890004   7.933457   6.616028   5.877656
    23  H    8.574007   8.775500   7.906115   6.804509   6.206220
    24  H    7.060265   7.034427   6.208217   5.399531   4.959596
    25  H    5.157214   4.897811   3.874999   3.077981   2.588362
    26  H    6.042299   5.266482   3.867313   3.368847   2.133055
    27  H    5.734369   4.523165   3.389960   3.840416   3.381071
    28  H    3.965459   2.570841   2.128566   3.360203   3.850435
                    6          7          8          9         10
     6  N    0.000000
     7  C    1.408383   0.000000
     8  C    2.434156   1.393500   0.000000
     9  C    3.694347   2.405577   1.376806   0.000000
    10  C    4.187141   2.778759   2.390788   1.381744   0.000000
    11  C    3.695188   2.406140   2.763025   2.392542   1.381653
    12  C    2.434714   1.392917   2.396597   2.761154   2.389481
    13  C    2.459208   3.402494   4.648560   5.726735   5.842478
    14  C    3.719459   4.642038   5.950230   6.980113   6.958319
    15  C    4.209585   5.142113   6.486679   7.507960   7.435501
    16  H    6.142939   6.795869   7.840820   8.688128   8.628466
    17  H    4.770100   5.589896   6.542301   7.540688   7.720575
    18  H    4.764971   5.199974   6.240096   6.994955   6.870045
    19  H    2.638499   3.367167   4.408825   5.429885   5.620412
    20  H    1.019058   2.076325   2.592712   3.963507   4.732989
    21  H    2.647620   2.134530   1.075984   2.133759   3.368478
    22  H    4.562140   3.381226   2.130228   1.077783   2.134599
    23  H    5.264872   3.856491   3.366778   2.135626   1.077732
    24  H    4.562859   3.381594   3.840764   3.369211   2.134939
    25  H    2.645032   2.131474   3.368145   3.836745   3.367775
    26  H    2.661453   3.434627   4.517919   5.550390   5.722977
    27  H    4.586685   5.447555   6.718643   7.704700   7.640540
    28  H    5.284988   6.193400   7.548559   8.540313   8.400666
                   11         12         13         14         15
    11  C    0.000000
    12  C    1.376505   0.000000
    13  C    4.921683   3.608267   0.000000
    14  C    5.892159   4.623314   1.376523   0.000000
    15  C    6.310628   5.049892   2.387164   1.377086   0.000000
    16  H    7.702394   6.729867   6.010915   5.668493   4.427190
    17  H    6.943767   5.842766   4.989008   4.952820   3.958992
    18  H    5.950661   5.039139   4.987113   4.948996   3.955967
    19  H    4.857240   3.678770   3.361621   3.835151   3.373419
    20  H    4.479618   3.329247   3.050757   4.294479   4.779654
    21  H    3.838991   3.369791   4.965481   6.302342   6.855140
    22  H    3.368946   3.838934   6.683377   7.971817   8.518903
    23  H    2.135615   3.365785   6.858645   7.937111   8.404309
    24  H    1.077740   2.130314   5.422357   6.214045   6.566042
    25  H    2.134210   1.075628   3.064136   3.846148   4.188713
    26  H    4.923862   3.719630   1.075821   2.137710   3.366946
    27  H    6.563849   5.369608   2.129649   1.077678   2.129981
    28  H    7.221453   6.013001   3.365965   2.136995   1.075502
                   16         17         18         19         20
    16  H    0.000000
    17  H    1.774628   0.000000
    18  H    1.774834   1.793081   0.000000
    19  H    3.539840   2.233632   2.238358   0.000000
    20  H    6.508183   4.958755   5.267208   3.040730   0.000000
    21  H    8.146100   6.689314   6.661667   4.679261   2.370872
    22  H    9.561419   8.359945   7.890695   6.313569   4.655221
    23  H    9.464164   8.646558   7.692363   6.603010   5.794228
    24  H    7.915475   7.381827   6.180145   5.419413   5.424240
    25  H    6.131410   5.416129   4.506716   3.375033   3.652389
    26  H    7.072945   5.992292   5.988125   4.240225   3.152606
    27  H    6.554830   5.944714   5.939114   4.912817   5.128481
    28  H    4.529394   4.409952   4.405602   4.257680   5.840197
                   21         22         23         24         25
    21  H    0.000000
    22  H    2.459120   0.000000
    23  H    4.258561   2.458591   0.000000
    24  H    4.916732   4.258699   2.459294   0.000000
    25  H    4.252942   4.914528   4.258666   2.460804   0.000000
    26  H    4.794804   6.448573   6.711014   5.467794   3.361468
    27  H    7.069593   8.685226   8.583039   6.815391   4.583743
    28  H    7.930098   9.562824   9.339354   7.378141   5.088717
                   26         27         28
    26  H    0.000000
    27  H    2.465088   0.000000
    28  H    4.262791   2.463728   0.000000
 Stoichiometry    C13H13NO
 Framework group  C1[X(C13H13NO)]
 Deg. of freedom    78
 Full point group                 C1      NOp   1
 Largest Abelian subgroup         C1      NOp   1
 Largest concise Abelian subgroup C1      NOp   1
                         Standard orientation:                         
 ---------------------------------------------------------------------
 Center     Atomic      Atomic             Coordinates (Angstroms)
 Number     Number       Type             X           Y           Z
 ---------------------------------------------------------------------
      1          6           0        3.231522    2.455186   -0.224250
      2          8           0        3.649012    1.204859    0.267174
      3          6           0        2.713288    0.173115    0.115793
      4          6           0        1.460575    0.325473   -0.472741
      5          6           0        0.578346   -0.743163   -0.590146
      6          7           0       -0.717473   -0.555166   -1.176658
      7          6           0       -1.875820   -0.156087   -0.482027
      8          6           0       -3.074665    0.051895   -1.161258
      9          6           0       -4.205265    0.444316   -0.480564
     10          6           0       -4.160541    0.635724    0.887128
     11          6           0       -2.978811    0.432948    1.573686
     12          6           0       -1.846348    0.040712    0.896601
     13          6           0        0.963695   -1.991402   -0.100273
     14          6           0        2.199018   -2.159131    0.483388
     15          6           0        3.064949   -1.093768    0.590769
     16          1           0        4.030689    3.178003   -0.056790
     17          1           0        3.035185    2.387185   -1.294887
     18          1           0        2.339053    2.784809    0.308995
     19          1           0        1.147311    1.281658   -0.844493
     20          1           0       -0.795152   -0.632229   -2.189824
     21          1           0       -3.104894   -0.098563   -2.226242
     22          1           0       -5.127306    0.602671   -1.015708
     23          1           0       -5.046772    0.942961    1.417887
     24          1           0       -2.943625    0.582143    2.640469
     25          1           0       -0.922522   -0.118526    1.424014
     26          1           0        0.277229   -2.815480   -0.184247
     27          1           0        2.489220   -3.126948    0.858223
     28          1           0        4.032135   -1.215296    1.045178
 ---------------------------------------------------------------------
 Rotational constants (GHZ):           1.2188024           0.3104712           0.2842025
 Standard basis: def2SVP (5D, 7F)
 There are   290 symmetry adapted cartesian basis functions of A   symmetry.
 There are   275 symmetry adapted basis functions of A   symmetry.
   275 basis functions,   466 primitive gaussians,   290 cartesian basis functions
    53 alpha electrons       53 beta electrons
       nuclear repulsion energy       902.9777942103 Hartrees.
 NAtoms=   28 NActive=   28 NUniq=   28 SFac= 1.00D+00 NAtFMM=   60 NAOKFM=F Big=F
 Integral buffers will be    131072 words long.
 Raffenetti 2 integral format.
 Two-electron integral symmetry is turned on.
 Nuclear repulsion after empirical dispersion term =      902.9612591259 Hartrees.
 One-electron integrals computed using PRISM.
   1 Symmetry operations used in ECPInt.
 ECPInt:  NShTT=    8385 NPrTT=   30369 LenC2=    7823 LenP2D=   20531.
 LDataN:  DoStor=T MaxTD1= 4 Len=   56
 NBasis=   275 RedAO= T EigKep=  2.16D-04  NBF=   275
 NBsUse=   275 1.00D-06 EigRej= -1.00D+00 NBFU=   275
 ExpMin= 1.22D-01 ExpMax= 2.27D+03 ExpMxC= 3.41D+02 IAcc=3 IRadAn=         5 AccDes= 0.00D+00
 Harris functional with IExCor= 4639 and IRadAn=       5 diagonalized for initial guess.
 HarFok:  IExCor= 4639 AccDes= 0.00D+00 IRadAn=         5 IDoV= 1 UseB2=F ITyADJ=14
 ICtDFT=  3500011 ScaDFX=  1.000000  1.000000  1.000000  1.000000
 FoFCou: FMM=F IPFlag=           0 FMFlag=      100000 FMFlg1=           0
         NFxFlg=           0 DoJE=T BraDBF=F KetDBF=T FulRan=T
         wScrn=  0.000000 ICntrl=       500 IOpCl=  0 I1Cent=   200000004 NGrid=           0
         NMat0=    1 NMatS0=      1 NMatT0=    0 NMatD0=    1 NMtDS0=    0 NMtDT0=    0
 Petite list used in FoFCou.
 Requested convergence on RMS density matrix=1.00D-08 within 128 cycles.
 Requested convergence on MAX density matrix=1.00D-06.
 Requested convergence on             energy=1.00D-06.
 No special actions if energy rises.
 Integral accuracy reduced to 1.0D-05 until final iterations.
 Initial convergence to 1.0D-05 achieved.  Increase integral accuracy.
 SCF Done:  E(RwB97XD) =  -632.504770077     A.U. after   15 cycles
            NFock= 15  Conv=0.48D-08     -V/T= 2.0103

 **********************************************************************

            Population analysis using the SCF Density.

 **********************************************************************

 Orbital symmetries:
       Occupied  (A) (A) (A) (A) (A) (A) (A) (A) (A) (A) (A) (A)
                 (A) (A) (A) (A) (A) (A) (A) (A) (A) (A) (A) (A)
                 (A) (A) (A) (A) (A) (A) (A) (A) (A) (A) (A) (A)
                 (A) (A) (A) (A) (A) (A) (A) (A) (A) (A) (A) (A)
                 (A) (A) (A) (A) (A)
       Virtual   (A) (A) (A) (A) (A) (A) (A) (A) (A) (A) (A) (A)
                 (A) (A) (A) (A) (A) (A) (A) (A) (A) (A) (A) (A)
                 (A) (A) (A) (A) (A) (A) (A) (A) (A) (A) (A) (A)
                 (A) (A) (A) (A) (A) (A) (A) (A) (A) (A) (A) (A)
                 (A) (A) (A) (A) (A) (A) (A) (A) (A) (A) (A) (A)
                 (A) (A) (A) (A) (A) (A) (A) (A) (A) (A) (A) (A)
                 (A) (A) (A) (A) (A) (A) (A) (A) (A) (A) (A) (A)
                 (A) (A) (A) (A) (A) (A) (A) (A) (A) (A) (A) (A)
                 (A) (A) (A) (A) (A) (A) (A) (A) (A) (A) (A) (A)
                 (A) (A) (A) (A) (A) (A) (A) (A) (A) (A) (A) (A)
                 (A) (A) (A) (A) (A) (A) (A) (A) (A) (A) (A) (A)
                 (A) (A) (A) (A) (A) (A) (A) (A) (A) (A) (A) (A)
                 (A) (A) (A) (A) (A) (A) (A) (A) (A) (A) (A) (A)
                 (A) (A) (A) (A) (A) (A) (A) (A) (A) (A) (A) (A)
                 (A) (A) (A) (A) (A) (A) (A) (A) (A) (A) (A) (A)
                 (A) (A) (A) (A) (A) (A) (A) (A) (A) (A) (A) (A)
                 (A) (A) (A) (A) (A) (A) (A) (A) (A) (A) (A) (A)
                 (A) (A) (A) (A) (A) (A) (A) (A) (A) (A) (A) (A)
                 (A) (A) (A) (A) (A) (A)
 The electronic state is 1-A.
 Alpha  occ. eigenvalues --  -19.28933 -14.45623 -10.36661 -10.35136 -10.34395
 Alpha  occ. eigenvalues --  -10.33786 -10.30555 -10.30318 -10.30095 -10.29710
 Alpha  occ. eigenvalues --  -10.29128 -10.28986 -10.28647 -10.28190 -10.27878
 Alpha  occ. eigenvalues --   -1.15303  -1.02826  -0.95756  -0.93268  -0.85399
 Alpha  occ. eigenvalues --   -0.85002  -0.83457  -0.81191  -0.78613  -0.71552
 Alpha  occ. eigenvalues --   -0.69739  -0.69318  -0.67247  -0.63365  -0.61793
 Alpha  occ. eigenvalues --   -0.58780  -0.57856  -0.57093  -0.56364  -0.55598
 Alpha  occ. eigenvalues --   -0.53324  -0.51767  -0.51606  -0.50849  -0.50197
 Alpha  occ. eigenvalues --   -0.47298  -0.47179  -0.46320  -0.44840  -0.43505
 Alpha  occ. eigenvalues --   -0.42267  -0.41670  -0.40749  -0.38552  -0.34106
 Alpha  occ. eigenvalues --   -0.32721  -0.30811  -0.27177
 Alpha virt. eigenvalues --    0.05063   0.06368   0.07703   0.08968   0.14477
 Alpha virt. eigenvalues --    0.14960   0.15682   0.15999   0.18912   0.19286
 Alpha virt. eigenvalues --    0.20242   0.20831   0.20939   0.21706   0.22475
 Alpha virt. eigenvalues --    0.23243   0.23901   0.24578   0.25207   0.25660
 Alpha virt. eigenvalues --    0.29941   0.33037   0.33517   0.36073   0.36723
 Alpha virt. eigenvalues --    0.37496   0.38481   0.38751   0.40753   0.41961
 Alpha virt. eigenvalues --    0.42844   0.44077   0.45476   0.47860   0.48705
 Alpha virt. eigenvalues --    0.49611   0.50118   0.50387   0.53440   0.53756
 Alpha virt. eigenvalues --    0.54048   0.54530   0.56056   0.57294   0.57754
 Alpha virt. eigenvalues --    0.58328   0.58604   0.59312   0.59929   0.61652
 Alpha virt. eigenvalues --    0.61788   0.63302   0.64408   0.65344   0.65919
 Alpha virt. eigenvalues --    0.67244   0.68731   0.69090   0.71002   0.71900
 Alpha virt. eigenvalues --    0.72968   0.73601   0.74335   0.74649   0.74892
 Alpha virt. eigenvalues --    0.75778   0.76287   0.77220   0.77614   0.78078
 Alpha virt. eigenvalues --    0.79077   0.79866   0.80742   0.81114   0.82287
 Alpha virt. eigenvalues --    0.83173   0.83629   0.84520   0.84737   0.86722
 Alpha virt. eigenvalues --    0.88127   0.88916   0.89897   0.92920   0.93619
 Alpha virt. eigenvalues --    0.94994   0.96634   0.98869   1.01336   1.03301
 Alpha virt. eigenvalues --    1.05308   1.08434   1.10420   1.11800   1.15582
 Alpha virt. eigenvalues --    1.17426   1.21938   1.22684   1.25742   1.27145
 Alpha virt. eigenvalues --    1.28015   1.28737   1.30644   1.32965   1.33642
 Alpha virt. eigenvalues --    1.34988   1.35140   1.35971   1.37081   1.37590
 Alpha virt. eigenvalues --    1.38405   1.39717   1.40946   1.43602   1.45957
 Alpha virt. eigenvalues --    1.50247   1.54199   1.56020   1.59899   1.60231
 Alpha virt. eigenvalues --    1.61953   1.71315   1.73571   1.74994   1.75266
 Alpha virt. eigenvalues --    1.77094   1.77882   1.79024   1.79578   1.80866
 Alpha virt. eigenvalues --    1.81476   1.83250   1.84176   1.85261   1.85897
 Alpha virt. eigenvalues --    1.86740   1.86816   1.87098   1.87880   1.88931
 Alpha virt. eigenvalues --    1.89436   1.90069   1.90627   1.91854   1.93478
 Alpha virt. eigenvalues --    1.94339   1.95827   1.96296   1.98209   1.99931
 Alpha virt. eigenvalues --    2.03182   2.04067   2.05065   2.05729   2.06705
 Alpha virt. eigenvalues --    2.08841   2.10688   2.12950   2.13678   2.18192
 Alpha virt. eigenvalues --    2.20215   2.21692   2.23150   2.23450   2.24911
 Alpha virt. eigenvalues --    2.25921   2.26349   2.28882   2.29560   2.30092
 Alpha virt. eigenvalues --    2.30931   2.32478   2.34979   2.37549   2.38113
 Alpha virt. eigenvalues --    2.39157   2.41135   2.41733   2.42750   2.45223
 Alpha virt. eigenvalues --    2.46571   2.48422   2.49226   2.52384   2.55902
 Alpha virt. eigenvalues --    2.58442   2.61296   2.68562   2.70598   2.71931
 Alpha virt. eigenvalues --    2.72500   2.73196   2.76544   2.76691   2.80142
 Alpha virt. eigenvalues --    2.81245   2.84559   2.85482   2.85975   2.87886
 Alpha virt. eigenvalues --    2.89800   2.94674   2.95570   2.97180   2.97484
 Alpha virt. eigenvalues --    3.01715   3.02675   3.04228   3.06448   3.11802
 Alpha virt. eigenvalues --    3.14094   3.17370   3.21873   3.23922   3.28821
 Alpha virt. eigenvalues --    3.30348   3.34316   3.50426   3.52759   3.56154
 Alpha virt. eigenvalues --    3.80848   3.81218
          Condensed to atoms (all electrons):
               1          2          3          4          5          6
     1  C    4.394106   0.299909  -0.059440   0.003349   0.001525  -0.000022
     2  O    0.299909   7.911359   0.387683  -0.081041   0.005116  -0.000013
     3  C   -0.059440   0.387683   5.083764   0.099714   0.152472   0.010709
     4  C    0.003349  -0.081041   0.099714   5.467988   0.216813  -0.082808
     5  C    0.001525   0.005116   0.152472   0.216813   5.189801   0.281475
     6  N   -0.000022  -0.000013   0.010709  -0.082808   0.281475   6.531128
     7  C   -0.000007  -0.000000  -0.000435  -0.000966  -0.038153   0.390779
     8  C   -0.000000  -0.000000  -0.000012  -0.000295   0.009714  -0.096391
     9  C    0.000000   0.000000   0.000000   0.000019  -0.000396   0.006773
    10  C   -0.000000  -0.000000   0.000000  -0.000025   0.000169  -0.000426
    11  C    0.000000   0.000000   0.000022  -0.000080  -0.002138   0.008732
    12  C   -0.000005   0.000001  -0.000336  -0.002271   0.001749  -0.092348
    13  C    0.000081  -0.000374  -0.171316   0.071683   0.281111  -0.072760
    14  C   -0.000316   0.003979   0.137876  -0.158636   0.135731   0.011322
    15  C    0.006150  -0.069775   0.270436   0.064020  -0.162951  -0.000901
    16  H    0.397410  -0.020492   0.005037   0.000361  -0.000057  -0.000001
    17  H    0.402763  -0.030257  -0.010517   0.006424   0.000993   0.000003
    18  H    0.404633  -0.030050  -0.010050   0.006073   0.000977  -0.000008
    19  H    0.009113  -0.008837  -0.091589   0.456459  -0.056851  -0.002710
    20  H   -0.000001   0.000001   0.000034  -0.001471  -0.029341   0.359827
    21  H    0.000000   0.000000   0.000000  -0.000003  -0.000137  -0.011847
    22  H   -0.000000  -0.000000   0.000000  -0.000000   0.000006  -0.000105
    23  H    0.000000   0.000000   0.000000   0.000000  -0.000000   0.000011
    24  H   -0.000000   0.000000  -0.000001   0.000010  -0.000024  -0.000097
    25  H   -0.000010  -0.000002  -0.000379  -0.001501   0.014400  -0.018086
    26  H    0.000000   0.000005  -0.002545   0.018974  -0.067145  -0.004451
    27  H    0.000007  -0.000061   0.015180  -0.003011   0.015478  -0.000177
    28  H   -0.000204   0.001379  -0.066536   0.020123  -0.002710   0.000009
               7          8          9         10         11         12
     1  C   -0.000007  -0.000000   0.000000  -0.000000   0.000000  -0.000005
     2  O   -0.000000  -0.000000   0.000000  -0.000000   0.000000   0.000001
     3  C   -0.000435  -0.000012   0.000000   0.000000   0.000022  -0.000336
     4  C   -0.000966  -0.000295   0.000019  -0.000025  -0.000080  -0.002271
     5  C   -0.038153   0.009714  -0.000396   0.000169  -0.002138   0.001749
     6  N    0.390779  -0.096391   0.006773  -0.000426   0.008732  -0.092348
     7  C    5.022426   0.254567   0.119581  -0.162212   0.122417   0.261115
     8  C    0.254567   5.223140   0.307970   0.081584  -0.150735   0.050710
     9  C    0.119581   0.307970   4.998726   0.289371   0.096639  -0.143900
    10  C   -0.162212   0.081584   0.289371   5.112713   0.282495   0.082307
    11  C    0.122417  -0.150735   0.096639   0.282495   5.047095   0.272743
    12  C    0.261115   0.050710  -0.143900   0.082307   0.272743   5.211884
    13  C   -0.002678  -0.000480   0.000020  -0.000021  -0.000030  -0.001080
    14  C   -0.000199   0.000001  -0.000000   0.000000   0.000016  -0.000301
    15  C    0.000080  -0.000000   0.000000   0.000000  -0.000002  -0.000054
    16  H    0.000000  -0.000000   0.000000  -0.000000  -0.000000  -0.000000
    17  H   -0.000003   0.000000  -0.000000  -0.000000   0.000000   0.000002
    18  H    0.000001   0.000001  -0.000000   0.000000  -0.000001   0.000031
    19  H    0.000933  -0.000344   0.000003   0.000008  -0.000061  -0.000445
    20  H   -0.009346  -0.021881   0.000275  -0.000037  -0.000293   0.010190
    21  H   -0.078948   0.449183  -0.062871   0.015114  -0.002416   0.017121
    22  H    0.015292  -0.069239   0.451483  -0.069745   0.014090  -0.001815
    23  H   -0.001526   0.014780  -0.071095   0.452400  -0.070116   0.014965
    24  H    0.015081  -0.001942   0.014355  -0.071768   0.454283  -0.069862
    25  H   -0.067300   0.016132  -0.002510   0.015217  -0.075477   0.458508
    26  H    0.000757  -0.000213   0.000001   0.000005  -0.000045  -0.000449
    27  H   -0.000001  -0.000000   0.000000   0.000000  -0.000000   0.000003
    28  H    0.000001   0.000000   0.000000  -0.000000   0.000000  -0.000000
              13         14         15         16         17         18
     1  C    0.000081  -0.000316   0.006150   0.397410   0.402763   0.404633
     2  O   -0.000374   0.003979  -0.069775  -0.020492  -0.030257  -0.030050
     3  C   -0.171316   0.137876   0.270436   0.005037  -0.010517  -0.010050
     4  C    0.071683  -0.158636   0.064020   0.000361   0.006424   0.006073
     5  C    0.281111   0.135731  -0.162951  -0.000057   0.000993   0.000977
     6  N   -0.072760   0.011322  -0.000901  -0.000001   0.000003  -0.000008
     7  C   -0.002678  -0.000199   0.000080   0.000000  -0.000003   0.000001
     8  C   -0.000480   0.000001  -0.000000  -0.000000   0.000000   0.000001
     9  C    0.000020  -0.000000   0.000000   0.000000  -0.000000  -0.000000
    10  C   -0.000021   0.000000   0.000000  -0.000000  -0.000000   0.000000
    11  C   -0.000030   0.000016  -0.000002  -0.000000   0.000000  -0.000001
    12  C   -0.001080  -0.000301  -0.000054  -0.000000   0.000002   0.000031
    13  C    5.177484   0.180371   0.115883   0.000006  -0.000112  -0.000120
    14  C    0.180371   5.147287   0.242965   0.000005   0.000045   0.000048
    15  C    0.115883   0.242965   5.168514  -0.000059  -0.000268  -0.000293
    16  H    0.000006   0.000005  -0.000059   0.609225  -0.023459  -0.023075
    17  H   -0.000112   0.000045  -0.000268  -0.023459   0.660795  -0.042205
    18  H   -0.000120   0.000048  -0.000293  -0.023075  -0.042205   0.654258
    19  H    0.018596  -0.003134   0.014340  -0.000297   0.000137  -0.000203
    20  H   -0.000030  -0.000142   0.000021   0.000000   0.000001  -0.000004
    21  H   -0.000004   0.000000  -0.000000   0.000000   0.000000  -0.000000
    22  H   -0.000000   0.000000  -0.000000   0.000000   0.000000   0.000000
    23  H    0.000000   0.000000  -0.000000   0.000000  -0.000000  -0.000000
    24  H    0.000011  -0.000001  -0.000000   0.000000   0.000000  -0.000000
    25  H   -0.001407  -0.000098   0.000139  -0.000000  -0.000001   0.000021
    26  H    0.455067  -0.075614   0.015274   0.000000  -0.000000   0.000000
    27  H   -0.066808   0.457762  -0.074541  -0.000000  -0.000000  -0.000000
    28  H    0.014862  -0.073133   0.445808  -0.000094   0.000078   0.000077
              19         20         21         22         23         24
     1  C    0.009113  -0.000001   0.000000  -0.000000   0.000000  -0.000000
     2  O   -0.008837   0.000001   0.000000  -0.000000   0.000000   0.000000
     3  C   -0.091589   0.000034   0.000000   0.000000   0.000000  -0.000001
     4  C    0.456459  -0.001471  -0.000003  -0.000000   0.000000   0.000010
     5  C   -0.056851  -0.029341  -0.000137   0.000006  -0.000000  -0.000024
     6  N   -0.002710   0.359827  -0.011847  -0.000105   0.000011  -0.000097
     7  C    0.000933  -0.009346  -0.078948   0.015292  -0.001526   0.015081
     8  C   -0.000344  -0.021881   0.449183  -0.069239   0.014780  -0.001942
     9  C    0.000003   0.000275  -0.062871   0.451483  -0.071095   0.014355
    10  C    0.000008  -0.000037   0.015114  -0.069745   0.452400  -0.071768
    11  C   -0.000061  -0.000293  -0.002416   0.014090  -0.070116   0.454283
    12  C   -0.000445   0.010190   0.017121  -0.001815   0.014965  -0.069862
    13  C    0.018596  -0.000030  -0.000004  -0.000000   0.000000   0.000011
    14  C   -0.003134  -0.000142   0.000000   0.000000   0.000000  -0.000001
    15  C    0.014340   0.000021  -0.000000  -0.000000  -0.000000  -0.000000
    16  H   -0.000297   0.000000   0.000000   0.000000   0.000000   0.000000
    17  H    0.000137   0.000001   0.000000   0.000000  -0.000000   0.000000
    18  H   -0.000203  -0.000004  -0.000000   0.000000  -0.000000  -0.000000
    19  H    0.680973   0.000971  -0.000001  -0.000000   0.000000  -0.000000
    20  H    0.000971   0.542235   0.006808  -0.000014  -0.000001   0.000011
    21  H   -0.000001   0.006808   0.702070  -0.013332  -0.000255   0.000025
    22  H   -0.000000  -0.000014  -0.013332   0.678681  -0.012638  -0.000266
    23  H    0.000000  -0.000001  -0.000255  -0.012638   0.684421  -0.012566
    24  H   -0.000000   0.000011   0.000025  -0.000266  -0.012566   0.677966
    25  H   -0.000120  -0.000052  -0.000218   0.000022  -0.000248  -0.012984
    26  H   -0.000296   0.000589   0.000002  -0.000000   0.000000   0.000000
    27  H    0.000024   0.000007   0.000000  -0.000000   0.000000  -0.000000
    28  H   -0.000168  -0.000001  -0.000000   0.000000  -0.000000   0.000000
              25         26         27         28
     1  C   -0.000010   0.000000   0.000007  -0.000204
     2  O   -0.000002   0.000005  -0.000061   0.001379
     3  C   -0.000379  -0.002545   0.015180  -0.066536
     4  C   -0.001501   0.018974  -0.003011   0.020123
     5  C    0.014400  -0.067145   0.015478  -0.002710
     6  N   -0.018086  -0.004451  -0.000177   0.000009
     7  C   -0.067300   0.000757  -0.000001   0.000001
     8  C    0.016132  -0.000213  -0.000000   0.000000
     9  C   -0.002510   0.000001   0.000000   0.000000
    10  C    0.015217   0.000005   0.000000  -0.000000
    11  C   -0.075477  -0.000045  -0.000000   0.000000
    12  C    0.458508  -0.000449   0.000003  -0.000000
    13  C   -0.001407   0.455067  -0.066808   0.014862
    14  C   -0.000098  -0.075614   0.457762  -0.073133
    15  C    0.000139   0.015274  -0.074541   0.445808
    16  H   -0.000000   0.000000  -0.000000  -0.000094
    17  H   -0.000001  -0.000000  -0.000000   0.000078
    18  H    0.000021   0.000000  -0.000000   0.000077
    19  H   -0.000120  -0.000296   0.000024  -0.000168
    20  H   -0.000052   0.000589   0.000007  -0.000001
    21  H   -0.000218   0.000002   0.000000  -0.000000
    22  H    0.000022  -0.000000  -0.000000   0.000000
    23  H   -0.000248   0.000000   0.000000  -0.000000
    24  H   -0.012984   0.000000  -0.000000   0.000000
    25  H    0.672832  -0.000061   0.000007  -0.000003
    26  H   -0.000061   0.674881  -0.012621  -0.000187
    27  H    0.000007  -0.012621   0.663299  -0.012885
    28  H   -0.000003  -0.000187  -0.012885   0.660454
 Mulliken charges:
               1
     1  C    0.140960
     2  O   -0.368531
     3  C    0.250228
     4  C   -0.099905
     5  C    0.052374
     6  N   -0.217616
     7  C    0.158746
     8  C   -0.066250
     9  C   -0.004444
    10  C   -0.027148
    11  C    0.002862
    12  C   -0.068462
    13  C    0.002047
    14  C   -0.005833
    15  C   -0.034784
    16  H    0.055490
    17  H    0.035581
    18  H    0.039890
    19  H   -0.016502
    20  H    0.141644
    21  H   -0.020289
    22  H    0.007581
    23  H    0.001868
    24  H    0.007770
    25  H    0.003178
    26  H   -0.001928
    27  H    0.018339
    28  H    0.013130
 Sum of Mulliken charges =  -0.00000
 Mulliken charges with hydrogens summed into heavy atoms:
               1
     1  C    0.271921
     2  O   -0.368531
     3  C    0.250228
     4  C   -0.116406
     5  C    0.052374
     6  N   -0.075972
     7  C    0.158746
     8  C   -0.086539
     9  C    0.003137
    10  C   -0.025279
    11  C    0.010632
    12  C   -0.065284
    13  C    0.000120
    14  C    0.012506
    15  C   -0.021653
 Electronic spatial extent (au):  <R**2>=           3952.8637
 Charge=             -0.0000 electrons
 Dipole moment (field-independent basis, Debye):
    X=              0.6884    Y=              0.6023    Z=             -1.2657  Tot=              1.5616
 Quadrupole moment (field-independent basis, Debye-Ang):
   XX=            -90.0634   YY=            -82.0258   ZZ=            -82.5954
   XY=              1.1508   XZ=              1.2984   YZ=             -1.1995
 Traceless Quadrupole moment (field-independent basis, Debye-Ang):
   XX=             -5.1686   YY=              2.8691   ZZ=              2.2995
   XY=              1.1508   XZ=              1.2984   YZ=             -1.1995
 Octapole moment (field-independent basis, Debye-Ang**2):
  XXX=             -6.6118  YYY=              9.0178  ZZZ=            -10.1159  XYY=             38.0330
  XXY=             15.0120  XXZ=             -3.6959  XZZ=             -7.7556  YZZ=              3.0139
  YYZ=              1.0519  XYZ=            -12.4648
 Hexadecapole moment (field-independent basis, Debye-Ang**3):
 XXXX=          -3979.9484 YYYY=           -795.1576 ZZZZ=           -418.6136 XXXY=            -22.8495
 XXXZ=             27.0697 YYYX=             76.9599 YYYZ=            -15.4350 ZZZX=              6.6615
 ZZZY=             14.3179 XXYY=           -774.5441 XXZZ=           -720.3186 YYZZ=           -228.0494
 XXYZ=            -19.8352 YYXZ=              8.9778 ZZXY=              5.3252
 N-N= 9.029612591259D+02 E-N=-3.273361708768D+03  KE= 6.260504821184D+02
   1 Symmetry operations used in ECPInt.
 ECPInt:  NShTT=    8385 NPrTT=   30369 LenC2=    7823 LenP2D=   20531.
 LDataN:  DoStor=T MaxTD1= 5 Len=  102
 Calling FoFJK, ICntrl=      2127 FMM=F ISym2X=0 I1Cent= 0 IOpClX= 0 NMat=1 NMatS=1 NMatT=0.
 ***** Axes restored to original set *****
 -------------------------------------------------------------------
 Center     Atomic                   Forces (Hartrees/Bohr)
 Number     Number              X              Y              Z
 -------------------------------------------------------------------
      1        6          -0.006469483   -0.008413127   -0.004617358
      2        8           0.021995620   -0.026964753    0.010133716
      3        6          -0.018202262    0.014783078   -0.008542194
      4        6          -0.002475888    0.007436043   -0.000360098
      5        6           0.010975154   -0.006752937    0.001024472
      6        7           0.005564598    0.001475979    0.000017519
      7        6          -0.026576510   -0.003376432    0.007303778
      8        6          -0.005327873   -0.000941155    0.003519267
      9        6           0.000536619    0.000011884   -0.001551691
     10        6           0.008313351    0.001396652   -0.004336386
     11        6           0.002437689    0.000247350    0.001562338
     12        6          -0.006672887   -0.001062617   -0.000025221
     13        6           0.013834700    0.004846811    0.008593163
     14        6          -0.003213269    0.002704382   -0.001223609
     15        6          -0.006782836    0.011486843   -0.002753973
     16        1          -0.004670095    0.000794378   -0.002548687
     17        1           0.002743329    0.004273482    0.008103175
     18        1           0.007990547    0.005060449   -0.001112790
     19        1           0.006373229    0.010155216    0.004158422
     20        1          -0.000786715   -0.000167728   -0.007915477
     21        1          -0.000232741   -0.000204644    0.012859983
     22        1           0.008144478    0.001196374    0.006513295
     23        1           0.009302835    0.001541089   -0.004422679
     24        1           0.000021054    0.000141574   -0.010489495
     25        1          -0.009203589   -0.001380149   -0.007398863
     26        1           0.006699045   -0.009001573    0.002609519
     27        1          -0.003897577   -0.008811027   -0.003054365
     28        1          -0.010420520   -0.000475442   -0.006045759
 -------------------------------------------------------------------
 Cartesian Forces:  Max     0.026964753 RMS     0.007895276

 GradGradGradGradGradGradGradGradGradGradGradGradGradGradGradGradGradGrad
 Berny optimization.
 FormGI is forming the generalized inverse of G from B-inverse, IUseBI=4.
 Internal  Forces:  Max     0.034578765 RMS     0.006557125
 Search for a local minimum.
 Step number   1 out of a maximum of  146
 All quantities printed in internal units (Hartrees-Bohrs-Radians)
 Mixed Optimization -- RFO/linear search
 Second derivative matrix not updated -- first step.
 ITU=  0
     Eigenvalues ---    0.01232   0.01425   0.01581   0.01602   0.01678
     Eigenvalues ---    0.01890   0.02001   0.02074   0.02169   0.02191
     Eigenvalues ---    0.02201   0.02203   0.02255   0.02276   0.02285
     Eigenvalues ---    0.02296   0.02331   0.02337   0.02345   0.02350
     Eigenvalues ---    0.02366   0.02371   0.02396   0.10347   0.10572
     Eigenvalues ---    0.15959   0.16000   0.16000   0.16000   0.16000
     Eigenvalues ---    0.16000   0.16000   0.16000   0.16000   0.16000
     Eigenvalues ---    0.16000   0.16000   0.16000   0.22000   0.22000
     Eigenvalues ---    0.22000   0.22013   0.23453   0.23471   0.23483
     Eigenvalues ---    0.24991   0.25000   0.25000   0.25000   0.34738
     Eigenvalues ---    0.34742   0.34756   0.36264   0.36269   0.36270
     Eigenvalues ---    0.36276   0.36484   0.36504   0.36528   0.36543
     Eigenvalues ---    0.36895   0.40315   0.42563   0.43191   0.43405
     Eigenvalues ---    0.43875   0.44259   0.44489   0.44510   0.45444
     Eigenvalues ---    0.46193   0.46911   0.47473   0.47957   0.48667
     Eigenvalues ---    0.49026   0.49334   0.49719
 RFO step:  Lambda=-1.50515098D-02 EMin= 1.23219864D-02
 Linear search not attempted -- first point.
 Iteration  1 RMS(Cart)=  0.04642231 RMS(Int)=  0.00194614
 Iteration  2 RMS(Cart)=  0.00273336 RMS(Int)=  0.00014287
 Iteration  3 RMS(Cart)=  0.00000873 RMS(Int)=  0.00014278
 Iteration  4 RMS(Cart)=  0.00000001 RMS(Int)=  0.00014278
 Variable       Old X    -DE/DX   Delta X   Delta X   Delta X     New X
                                 (Linear)    (Quad)   (Total)
    R1        2.65848   0.00133   0.00000   0.00289   0.00289   2.66138
    R2        2.06073   0.00432   0.00000   0.01191   0.01191   2.07264
    R3        2.06096   0.00845   0.00000   0.02331   0.02331   2.08426
    R4        2.06102   0.00840   0.00000   0.02317   0.02317   2.08419
    R5        2.64764  -0.03458   0.00000  -0.07365  -0.07365   2.57398
    R6        2.63132   0.00578   0.00000   0.01113   0.01117   2.64249
    R7        2.64174   0.00055   0.00000   0.00095   0.00095   2.64269
    R8        2.62808   0.00854   0.00000   0.01695   0.01698   2.64506
    R9        2.02705   0.01247   0.00000   0.03248   0.03248   2.05954
   R10        2.71127  -0.01482   0.00000  -0.03544  -0.03544   2.67583
   R11        2.63654   0.00029   0.00000   0.00085   0.00084   2.63737
   R12        2.66146  -0.01900   0.00000  -0.04152  -0.04152   2.61993
   R13        1.92574  -0.00790   0.00000  -0.01717  -0.01717   1.90857
   R14        2.63333   0.01074   0.00000   0.02196   0.02195   2.65528
   R15        2.63223   0.01186   0.00000   0.02434   0.02433   2.65656
   R16        2.60179   0.01543   0.00000   0.03004   0.03003   2.63182
   R17        2.03332   0.01284   0.00000   0.03380   0.03380   2.06712
   R18        2.61112   0.01349   0.00000   0.02703   0.02704   2.63816
   R19        2.03671   0.01047   0.00000   0.02772   0.02772   2.06444
   R20        2.61095   0.01363   0.00000   0.02740   0.02741   2.63836
   R21        2.03662   0.01042   0.00000   0.02757   0.02757   2.06419
   R22        2.60122   0.01632   0.00000   0.03196   0.03196   2.63318
   R23        2.03663   0.01046   0.00000   0.02770   0.02770   2.06434
   R24        2.03264   0.01185   0.00000   0.03116   0.03116   2.06380
   R25        2.60125   0.01848   0.00000   0.03681   0.03678   2.63803
   R26        2.03301   0.01151   0.00000   0.03028   0.03028   2.06329
   R27        2.60232   0.01228   0.00000   0.02456   0.02453   2.62685
   R28        2.03652   0.01008   0.00000   0.02669   0.02669   2.06320
   R29        2.03240   0.01205   0.00000   0.03167   0.03167   2.06407
    A1        1.89440  -0.00742   0.00000  -0.04526  -0.04500   1.84940
    A2        1.91870   0.00654   0.00000   0.03879   0.03841   1.95711
    A3        1.91842   0.00655   0.00000   0.03892   0.03854   1.95695
    A4        1.90076  -0.00084   0.00000  -0.00779  -0.00754   1.89323
    A5        1.90105  -0.00078   0.00000  -0.00731  -0.00705   1.89399
    A6        1.92997  -0.00426   0.00000  -0.01883  -0.01968   1.91029
    A7        2.00264   0.01788   0.00000   0.06745   0.06745   2.07009
    A8        2.17237   0.00125   0.00000   0.00518   0.00516   2.17753
    A9        2.05177  -0.00952   0.00000  -0.03546  -0.03548   2.01629
   A10        2.05905   0.00827   0.00000   0.03028   0.03032   2.08937
   A11        2.12036  -0.00557   0.00000  -0.02547  -0.02540   2.09497
   A12        2.10221   0.00513   0.00000   0.02613   0.02610   2.12831
   A13        2.06059   0.00044   0.00000  -0.00066  -0.00070   2.05989
   A14        2.10223  -0.00411   0.00000  -0.01558  -0.01562   2.08661
   A15        2.07444   0.00593   0.00000   0.02277   0.02277   2.09721
   A16        2.10623  -0.00181   0.00000  -0.00690  -0.00694   2.09930
   A17        2.18748  -0.00456   0.00000  -0.01955  -0.01957   2.16791
   A18        2.05484   0.00135   0.00000   0.00413   0.00412   2.05896
   A19        2.03655   0.00317   0.00000   0.01451   0.01449   2.05104
   A20        2.10536  -0.00385   0.00000  -0.01407  -0.01407   2.09129
   A21        2.10689   0.00245   0.00000   0.00967   0.00968   2.11657
   A22        2.07093   0.00140   0.00000   0.00441   0.00439   2.07532
   A23        2.10368  -0.00060   0.00000  -0.00336  -0.00338   2.10031
   A24        2.07801   0.00108   0.00000   0.00612   0.00612   2.08413
   A25        2.10149  -0.00048   0.00000  -0.00276  -0.00275   2.09874
   A26        2.09703   0.00232   0.00000   0.01015   0.01016   2.10718
   A27        2.09314  -0.00193   0.00000  -0.00946  -0.00946   2.08367
   A28        2.09302  -0.00039   0.00000  -0.00069  -0.00069   2.09233
   A29        2.09348  -0.00416   0.00000  -0.01652  -0.01650   2.07698
   A30        2.09479   0.00197   0.00000   0.00765   0.00764   2.10243
   A31        2.09491   0.00219   0.00000   0.00887   0.00886   2.10377
   A32        2.09562   0.00308   0.00000   0.01410   0.01411   2.10973
   A33        2.09378  -0.00078   0.00000  -0.00272  -0.00273   2.09105
   A34        2.09379  -0.00230   0.00000  -0.01137  -0.01138   2.08241
   A35        2.10562  -0.00204   0.00000  -0.00877  -0.00878   2.09685
   A36        2.07437   0.00200   0.00000   0.01000   0.01000   2.08437
   A37        2.10319   0.00004   0.00000  -0.00122  -0.00122   2.10197
   A38        2.10106  -0.00457   0.00000  -0.01619  -0.01623   2.08483
   A39        2.07336   0.00179   0.00000   0.00526   0.00528   2.07864
   A40        2.10876   0.00278   0.00000   0.01093   0.01095   2.11972
   A41        2.09799   0.00111   0.00000   0.00873   0.00867   2.10665
   A42        2.09274   0.00016   0.00000  -0.00029  -0.00026   2.09248
   A43        2.09245  -0.00127   0.00000  -0.00843  -0.00840   2.08405
   A44        2.11347  -0.00517   0.00000  -0.02012  -0.02014   2.09333
   A45        2.06255   0.00214   0.00000   0.00753   0.00754   2.07009
   A46        2.10716   0.00303   0.00000   0.01259   0.01260   2.11976
    D1       -3.14067  -0.00004   0.00000  -0.00189  -0.00189   3.14063
    D2       -1.06333  -0.00169   0.00000  -0.01585  -0.01671  -1.08003
    D3        1.06500   0.00154   0.00000   0.01141   0.01227   1.07726
    D4        0.00456   0.00003   0.00000   0.00094   0.00095   0.00551
    D5       -3.13576   0.00006   0.00000   0.00202   0.00201  -3.13375
    D6       -3.14069  -0.00002   0.00000  -0.00049  -0.00046  -3.14115
    D7       -0.00619   0.00001   0.00000   0.00038   0.00040  -0.00580
    D8       -0.00038  -0.00006   0.00000  -0.00162  -0.00161  -0.00199
    D9        3.13412  -0.00003   0.00000  -0.00075  -0.00075   3.13337
   D10        3.13799  -0.00000   0.00000   0.00001   0.00004   3.13802
   D11       -0.00210   0.00002   0.00000   0.00041   0.00042  -0.00168
   D12       -0.00242   0.00003   0.00000   0.00104   0.00106  -0.00136
   D13        3.14068   0.00005   0.00000   0.00144   0.00144  -3.14106
   D14        3.11999   0.00051   0.00000   0.01448   0.01447   3.13446
   D15        0.00389   0.00011   0.00000   0.00180   0.00176   0.00565
   D16       -0.01467   0.00047   0.00000   0.01351   0.01354  -0.00113
   D17       -3.13077   0.00006   0.00000   0.00083   0.00082  -3.12995
   D18       -1.52712  -0.00011   0.00000  -0.00126  -0.00119  -1.52831
   D19        1.51121  -0.00039   0.00000  -0.01120  -0.01110   1.50012
   D20        1.58851   0.00041   0.00000   0.01208   0.01198   1.60049
   D21       -1.65635   0.00014   0.00000   0.00215   0.00208  -1.65427
   D22       -0.00472  -0.00008   0.00000  -0.00122  -0.00119  -0.00591
   D23        3.13283  -0.00003   0.00000   0.00023   0.00026   3.13309
   D24       -3.12075  -0.00045   0.00000  -0.01380  -0.01388  -3.13463
   D25        0.01680  -0.00040   0.00000  -0.01235  -0.01242   0.00437
   D26        3.09367  -0.00012   0.00000  -0.00359  -0.00361   3.09006
   D27       -0.04618  -0.00029   0.00000  -0.00840  -0.00841  -0.05458
   D28        0.05437   0.00024   0.00000   0.00678   0.00679   0.06116
   D29       -3.08548   0.00007   0.00000   0.00197   0.00199  -3.08349
   D30       -3.13957  -0.00017   0.00000  -0.00464  -0.00461   3.13900
   D31        0.00207  -0.00013   0.00000  -0.00363  -0.00361  -0.00155
   D32        0.00032  -0.00000   0.00000   0.00007   0.00007   0.00039
   D33       -3.14123   0.00004   0.00000   0.00108   0.00108  -3.14016
   D34        3.13967   0.00017   0.00000   0.00480   0.00484  -3.13868
   D35       -0.00126   0.00010   0.00000   0.00307   0.00310   0.00184
   D36       -0.00021   0.00001   0.00000   0.00011   0.00010  -0.00011
   D37       -3.14115  -0.00006   0.00000  -0.00162  -0.00164   3.14040
   D38       -0.00020   0.00000   0.00000   0.00004   0.00005  -0.00015
   D39        3.14130   0.00001   0.00000   0.00033   0.00033  -3.14156
   D40        3.14136  -0.00004   0.00000  -0.00098  -0.00097   3.14039
   D41       -0.00034  -0.00003   0.00000  -0.00069  -0.00068  -0.00102
   D42       -0.00004  -0.00001   0.00000  -0.00033  -0.00034  -0.00037
   D43        3.14154   0.00001   0.00000   0.00021   0.00021  -3.14144
   D44       -3.14153  -0.00002   0.00000  -0.00062  -0.00062   3.14103
   D45        0.00005  -0.00000   0.00000  -0.00008  -0.00008  -0.00003
   D46        0.00014   0.00002   0.00000   0.00052   0.00051   0.00066
   D47       -3.14157   0.00003   0.00000   0.00072   0.00072  -3.14085
   D48       -3.14144  -0.00000   0.00000  -0.00003  -0.00003  -3.14147
   D49        0.00004   0.00001   0.00000   0.00018   0.00018   0.00022
   D50       -0.00001  -0.00002   0.00000  -0.00041  -0.00040  -0.00042
   D51        3.14091   0.00005   0.00000   0.00135   0.00136  -3.14092
   D52       -3.14149  -0.00002   0.00000  -0.00061  -0.00061   3.14109
   D53       -0.00057   0.00004   0.00000   0.00115   0.00115   0.00058
   D54        0.00203   0.00003   0.00000   0.00056   0.00053   0.00257
   D55       -3.14042   0.00002   0.00000   0.00055   0.00055  -3.13987
   D56       -3.13543  -0.00002   0.00000  -0.00091  -0.00094  -3.13638
   D57        0.00530  -0.00003   0.00000  -0.00092  -0.00093   0.00437
   D58        0.00161  -0.00002   0.00000  -0.00054  -0.00054   0.00107
   D59       -3.14153  -0.00004   0.00000  -0.00096  -0.00094   3.14072
   D60       -3.13913  -0.00001   0.00000  -0.00054  -0.00055  -3.13968
   D61        0.00092  -0.00003   0.00000  -0.00095  -0.00095  -0.00004
         Item               Value     Threshold  Converged?
 Maximum Force            0.034579     0.000450     NO 
 RMS     Force            0.006557     0.000300     NO 
 Maximum Displacement     0.231113     0.001800     NO 
 RMS     Displacement     0.047671     0.001200     NO 
 Predicted change in Energy=-7.861840D-03
 GradGradGradGradGradGradGradGradGradGradGradGradGradGradGradGradGradGrad

                          Input orientation:                          
 ---------------------------------------------------------------------
 Center     Atomic      Atomic             Coordinates (Angstroms)
 Number     Number       Type             X           Y           Z
 ---------------------------------------------------------------------
      1          6           0       -3.001487    2.789417   -0.381831
      2          8           0       -3.413773    1.489322   -0.732822
      3          6           0       -2.619434    0.437885   -0.388144
      4          6           0       -1.409108    0.546192    0.303774
      5          6           0       -0.670250   -0.603280    0.607047
      6          7           0        0.558280   -0.481129    1.300454
      7          6           0        1.783178   -0.272681    0.685390
      8          6           0        2.938013   -0.102995    1.467637
      9          6           0        4.174443    0.103982    0.860999
     10          6           0        4.288612    0.146297   -0.529733
     11          6           0        3.142223   -0.022752   -1.308495
     12          6           0        1.898713   -0.230286   -0.715005
     13          6           0       -1.134930   -1.859390    0.214532
     14          6           0       -2.344320   -1.958988   -0.475563
     15          6           0       -3.085371   -0.822122   -0.776674
     16          1           0       -3.781530    3.464225   -0.754823
     17          1           0       -2.920326    2.918949    0.710471
     18          1           0       -2.044502    3.064021   -0.856356
     19          1           0       -1.008327    1.510010    0.617181
     20          1           0        0.531552   -0.449840    2.309588
     21          1           0        2.857823   -0.135841    2.558070
     22          1           0        5.062236    0.234015    1.484190
     23          1           0        5.260626    0.308762   -1.000861
     24          1           0        3.216541    0.007272   -2.397950
     25          1           0        1.006753   -0.362285   -1.331202
     26          1           0       -0.540687   -2.743727    0.453170
     27          1           0       -2.715363   -2.938192   -0.784616
     28          1           0       -4.032664   -0.885754   -1.316689
 ---------------------------------------------------------------------
                    Distance matrix (angstroms):
                    1          2          3          4          5
     1  C    0.000000
     2  O    1.408340   0.000000
     3  C    2.382374   1.362093   0.000000
     4  C    2.835098   2.445958   1.398345   0.000000
     5  C    4.233549   3.701507   2.423581   1.399704   0.000000
     6  N    5.118446   4.877919   3.714002   2.432977   1.415987
     7  C    5.780002   5.667829   4.586979   3.317661   2.476841
     8  C    6.860338   6.908160   5.884019   4.546810   3.743055
     9  C    7.762097   7.876576   6.915823   5.628685   4.902628
    10  C    7.755869   7.821234   6.915647   5.772233   5.142417
    11  C    6.819983   6.752692   5.852856   4.861864   4.305956
    12  C    5.765551   5.583895   4.578968   3.547184   2.913163
    13  C    5.044908   4.159866   2.800794   2.422801   1.395639
    14  C    4.794581   3.619497   2.414193   2.785303   2.410912
    15  C    3.634026   2.335068   1.398453   2.418576   2.792022
    16  H    1.096794   2.008973   3.262462   3.906908   5.298995
    17  H    1.102945   2.090555   2.730049   2.842386   4.180866
    18  H    1.102906   2.090416   2.728802   2.844132   4.180815
    19  H    2.570524   2.758462   2.180779   1.089860   2.140186
    20  H    5.497170   5.346232   4.241995   2.963364   2.089621
    21  H    7.178556   7.266639   6.245773   4.873779   4.058607
    22  H    8.662317   8.850631   7.909188   6.585524   5.859338
    23  H    8.648662   8.758468   7.904900   6.800280   6.212285
    24  H    7.104150   6.995012   6.187354   5.383901   4.950750
    25  H    5.186571   4.829861   3.831300   3.055301   2.574340
    26  H    6.112973   5.251658   3.892512   3.405883   2.149878
    27  H    5.748879   4.482560   3.400631   3.877090   3.401621
    28  H    3.929907   2.522878   2.147425   3.399914   3.884119
                    6          7          8          9         10
     6  N    0.000000
     7  C    1.386409   0.000000
     8  C    2.415381   1.405114   0.000000
     9  C    3.689459   2.427109   1.392698   0.000000
    10  C    4.202217   2.815895   2.423995   1.396052   0.000000
    11  C    3.700471   2.425911   2.784788   2.405877   1.396158
    12  C    2.433466   1.405792   2.420799   2.788273   2.426470
    13  C    2.438399   3.354804   4.609127   5.697560   5.830225
    14  C    3.709904   4.607351   5.926531   6.966815   6.959235
    15  C    4.207960   5.112953   6.468015   7.499636   7.441401
    16  H    6.214815   6.855994   7.925695   8.786331   8.728488
    17  H    4.899929   5.684196   6.635178   7.634294   7.822691
    18  H    4.898407   5.306760   6.344792   7.098339   6.980554
    19  H    2.624072   3.312875   4.347258   5.375636   5.588621
    20  H    1.009972   2.058147   2.572982   3.959265   4.746854
    21  H    2.643618   2.163450   1.093871   2.161262   3.414863
    22  H    4.564078   3.412776   2.150854   1.092452   2.159183
    23  H    5.294529   3.908217   3.414316   2.165237   1.092322
    24  H    4.580730   3.411729   3.877177   3.398188   2.158449
    25  H    2.672240   2.162755   3.410350   3.880388   3.416374
    26  H    2.654235   3.400050   4.483743   5.523424   5.713183
    27  H    4.593627   5.431642   6.713541   7.709234   7.657330
    28  H    5.299993   6.181278   7.546887   8.548597   8.421880
                   11         12         13         14         15
    11  C    0.000000
    12  C    1.393419   0.000000
    13  C    4.897641   3.566652   0.000000
    14  C    5.877494   4.587927   1.395985   0.000000
    15  C    6.301170   5.019479   2.421289   1.390069   0.000000
    16  H    7.771995   6.776147   6.023705   5.617366   4.342567
    17  H    7.034510   5.930666   5.125048   5.052992   4.029200
    18  H    6.052661   5.140174   5.119971   5.046336   4.023911
    19  H    4.825417   3.640636   3.395735   3.874650   3.419910
    20  H    4.482022   3.326483   3.025434   4.278461   4.769249
    21  H    3.878659   3.412012   4.940128   6.291985   6.849310
    22  H    3.398745   3.880709   6.663275   7.969125   8.521175
    23  H    2.166142   3.416832   6.861574   7.953228   8.425249
    24  H    1.092400   2.150677   5.407845   6.203622   6.559766
    25  H    2.162413   1.092115   3.036020   3.809365   4.155048
    26  H    4.906219   3.692247   1.091844   2.175190   3.417675
    27  H    6.563958   5.350449   2.158675   1.091800   2.148191
    28  H    7.226606   5.997741   3.418987   2.170215   1.092259
                   16         17         18         19         20
    16  H    0.000000
    17  H    1.784961   0.000000
    18  H    1.785424   1.800850   0.000000
    19  H    3.659509   2.376879   2.379059   0.000000
    20  H    6.581276   5.081474   5.385766   3.012720   0.000000
    21  H    8.247226   6.792081   6.777183   4.628497   2.360482
    22  H    9.677791   8.457471   7.999551   6.263513   4.655753
    23  H    9.580087   8.756124   7.808792   6.584893   5.822258
    24  H    7.976427   7.470026   6.276847   5.403586   5.438661
    25  H    6.156464   5.509708   4.612506   3.370791   3.672714
    26  H    7.106404   6.147746   6.140541   4.282507   3.139729
    27  H    6.490651   6.048421   6.040013   4.966439   5.129176
    28  H    4.393300   4.452240   4.445831   4.315803   5.845680
                   21         22         23         24         25
    21  H    0.000000
    22  H    2.479808   0.000000
    23  H    4.317073   2.494077   0.000000
    24  H    4.971046   4.304534   2.494201   0.000000
    25  H    4.313255   4.972821   4.319128   2.481469   0.000000
    26  H    4.773000   6.428272   6.714695   5.460187   3.354074
    27  H    7.077225   8.700656   8.614283   6.816604   4.559407
    28  H    7.940714   9.582067   9.375065   7.383603   5.066552
                   26         27         28
    26  H    0.000000
    27  H    2.509810   0.000000
    28  H    4.333402   2.496175   0.000000
 Stoichiometry    C13H13NO
 Framework group  C1[X(C13H13NO)]
 Deg. of freedom    78
 Full point group                 C1      NOp   1
 Largest Abelian subgroup         C1      NOp   1
 Largest concise Abelian subgroup C1      NOp   1
                         Standard orientation:                         
 ---------------------------------------------------------------------
 Center     Atomic      Atomic             Coordinates (Angstroms)
 Number     Number       Type             X           Y           Z
 ---------------------------------------------------------------------
      1          6           0        3.297412    2.452088   -0.217441
      2          8           0        3.611904    1.160412    0.247412
      3          6           0        2.686347    0.171703    0.102165
      4          6           0        1.429077    0.336828   -0.487220
      5          6           0        0.552890   -0.750344   -0.584811
      6          7           0       -0.721176   -0.569698   -1.175693
      7          6           0       -1.850884   -0.161886   -0.483176
      8          6           0       -3.056254    0.047939   -1.174120
      9          6           0       -4.198374    0.454653   -0.488734
     10          6           0       -4.166685    0.660296    0.891725
     11          6           0       -2.969964    0.451652    1.579898
     12          6           0       -1.819562    0.045038    0.906951
     13          6           0        0.927811   -1.999824   -0.088785
     14          6           0        2.184835   -2.156441    0.497846
     15          6           0        3.061723   -1.082198    0.594602
     16          1           0        4.174279    3.073366    0.001821
     17          1           0        3.119576    2.470203   -1.305804
     18          1           0        2.425286    2.880450    0.304389
     19          1           0        1.096379    1.299103   -0.875978
     20          1           0       -0.793564   -0.651485   -2.179742
     21          1           0       -3.090300   -0.111944   -2.255707
     22          1           0       -5.127263    0.613173   -1.041444
     23          1           0       -5.065166    0.979157    1.424853
     24          1           0       -2.930484    0.607993    2.660332
     25          1           0       -0.887450   -0.116646    1.452607
     26          1           0        0.227638   -2.833965   -0.166828
     27          1           0        2.486127   -3.131113    0.886774
     28          1           0        4.047702   -1.190723    1.051874
 ---------------------------------------------------------------------
 Rotational constants (GHZ):           1.2149102           0.3113929           0.2852560
 Standard basis: def2SVP (5D, 7F)
 There are   290 symmetry adapted cartesian basis functions of A   symmetry.
 There are   275 symmetry adapted basis functions of A   symmetry.
   275 basis functions,   466 primitive gaussians,   290 cartesian basis functions
    53 alpha electrons       53 beta electrons
       nuclear repulsion energy       901.8210971941 Hartrees.
 NAtoms=   28 NActive=   28 NUniq=   28 SFac= 1.00D+00 NAtFMM=   60 NAOKFM=F Big=F
 Integral buffers will be    131072 words long.
 Raffenetti 2 integral format.
 Two-electron integral symmetry is turned on.
 Nuclear repulsion after empirical dispersion term =      901.8044753993 Hartrees.
 One-electron integrals computed using PRISM.
   1 Symmetry operations used in ECPInt.
 ECPInt:  NShTT=    8385 NPrTT=   30369 LenC2=    7805 LenP2D=   20504.
 LDataN:  DoStor=T MaxTD1= 4 Len=   56
 NBasis=   275 RedAO= T EigKep=  2.40D-04  NBF=   275
 NBsUse=   275 1.00D-06 EigRej= -1.00D+00 NBFU=   275
 Initial guess from the checkpoint file:  "prod_3g_5.chk"
 B after Tr=    -0.000000    0.000000   -0.000000
         Rot=    0.999995    0.002223    0.000030    0.002306 Ang=   0.37 deg.
 ExpMin= 1.22D-01 ExpMax= 2.27D+03 ExpMxC= 3.41D+02 IAcc=3 IRadAn=         5 AccDes= 0.00D+00
 Harris functional with IExCor= 4639 and IRadAn=       5 diagonalized for initial guess.
 HarFok:  IExCor= 4639 AccDes= 0.00D+00 IRadAn=         5 IDoV= 1 UseB2=F ITyADJ=14
 ICtDFT=  3500011 ScaDFX=  1.000000  1.000000  1.000000  1.000000
 FoFCou: FMM=F IPFlag=           0 FMFlag=      100000 FMFlg1=           0
         NFxFlg=           0 DoJE=T BraDBF=F KetDBF=T FulRan=T
         wScrn=  0.000000 ICntrl=       500 IOpCl=  0 I1Cent=   200000004 NGrid=           0
         NMat0=    1 NMatS0=      1 NMatT0=    0 NMatD0=    1 NMtDS0=    0 NMtDT0=    0
 Petite list used in FoFCou.
 Requested convergence on RMS density matrix=1.00D-08 within 128 cycles.
 Requested convergence on MAX density matrix=1.00D-06.
 Requested convergence on             energy=1.00D-06.
 No special actions if energy rises.
 Integral accuracy reduced to 1.0D-05 until final iterations.
 Initial convergence to 1.0D-05 achieved.  Increase integral accuracy.
 SCF Done:  E(RwB97XD) =  -632.512379629     A.U. after   13 cycles
            NFock= 13  Conv=0.71D-08     -V/T= 2.0110
   1 Symmetry operations used in ECPInt.
 ECPInt:  NShTT=    8385 NPrTT=   30369 LenC2=    7805 LenP2D=   20504.
 LDataN:  DoStor=T MaxTD1= 5 Len=  102
 Calling FoFJK, ICntrl=      2127 FMM=F ISym2X=0 I1Cent= 0 IOpClX= 0 NMat=1 NMatS=1 NMatT=0.
 ***** Axes restored to original set *****
 -------------------------------------------------------------------
 Center     Atomic                   Forces (Hartrees/Bohr)
 Number     Number              X              Y              Z
 -------------------------------------------------------------------
      1        6          -0.004122077   -0.002680956   -0.002657657
      2        8           0.009367655   -0.002387476    0.005217234
      3        6          -0.005982150    0.007832649   -0.002780725
      4        6          -0.001759223    0.002513746   -0.000360108
      5        6          -0.001884827   -0.002542489   -0.001679048
      6        7           0.004343773    0.000158915    0.000279241
      7        6          -0.004860600   -0.000570480    0.001057879
      8        6           0.002857635    0.000510859   -0.001034031
[...]
     8  C   -0.000027   0.000007   0.000381   0.012068   0.008876  -0.023658
     9  C    0.000020  -0.000001  -0.000122   0.000642   0.001687   0.011046
    10  C   -0.000042   0.000001   0.000102  -0.000123  -0.000698   0.001528
    11  C    0.000073  -0.000006  -0.000366   0.000952   0.001597   0.000885
    12  C   -0.000766   0.000039   0.005897  -0.007001  -0.008534  -0.041208
    13  C    0.000958  -0.000593  -0.137245   0.067480   0.330977  -0.019243
    14  C   -0.001665   0.002531   0.069425  -0.158770   0.022035   0.009366
    15  C    0.004398  -0.056039   0.367496   0.098375  -0.111646   0.002635
    16  H    0.400759  -0.030625   0.007575  -0.003395   0.000365   0.000000
    17  H    0.413057  -0.041791  -0.016834   0.009144   0.000026  -0.000082
    18  H    0.411661  -0.041171  -0.018469   0.016764  -0.002562   0.000050
    19  H    0.009481  -0.007100  -0.045824   0.406616  -0.005098   0.002292
    20  H    0.000006   0.000008   0.000637   0.012489  -0.053808   0.399025
    21  H   -0.000000   0.000000   0.000029   0.000444   0.000722   0.004853
    22  H    0.000000  -0.000000  -0.000000  -0.000011   0.000011  -0.000299
    23  H   -0.000000   0.000000   0.000000  -0.000002  -0.000001  -0.000000
    24  H    0.000021  -0.000001  -0.000021   0.000085   0.000010  -0.000196
    25  H   -0.000381   0.000183   0.000424  -0.008386   0.001810   0.001463
    26  H   -0.000002   0.000011  -0.003813   0.012307  -0.085842   0.003360
    27  H    0.000030  -0.000125   0.016667  -0.006299   0.019030  -0.000310
    28  H   -0.000245   0.008555  -0.081553   0.026345  -0.008860   0.000008
               7          8          9         10         11         12
     1  C    0.000719  -0.000027   0.000020  -0.000042   0.000073  -0.000766
     2  O   -0.000062   0.000007  -0.000001   0.000001  -0.000006   0.000039
     3  C    0.000531   0.000381  -0.000122   0.000102  -0.000366   0.005897
     4  C   -0.008246   0.012068   0.000642  -0.000123   0.000952  -0.007001
     5  C   -0.097503   0.008876   0.001687  -0.000698   0.001597  -0.008534
     6  N    0.257940  -0.023658   0.011046   0.001528   0.000885  -0.041208
     7  C    4.957966   0.383537  -0.033038  -0.074959  -0.009798   0.376136
     8  C    0.383537   5.141498   0.447249   0.010969  -0.069481   0.019277
     9  C   -0.033038   0.447249   4.899318   0.458961   0.005761  -0.084249
    10  C   -0.074959   0.010969   0.458961   4.950263   0.454675   0.023271
    11  C   -0.009798  -0.069481   0.005761   0.454675   4.894352   0.432734
    12  C    0.376136   0.019277  -0.084249   0.023271   0.432734   5.235988
    13  C    0.016749  -0.008720  -0.000297   0.000018   0.000058   0.007691
    14  C    0.000769  -0.000228  -0.000027   0.000009  -0.000035   0.001270
    15  C    0.000041  -0.000035   0.000009  -0.000004   0.000017  -0.001033
    16  H   -0.000008   0.000001  -0.000000   0.000000  -0.000001   0.000026
    17  H    0.000082   0.000007  -0.000001  -0.000002   0.000052   0.000089
    18  H    0.000120  -0.000050   0.000004  -0.000017  -0.000022   0.000828
    19  H    0.004777  -0.000662   0.000424  -0.000311   0.000892  -0.012856
    20  H   -0.064149   0.000208   0.000938   0.000152  -0.000478   0.009541
    21  H   -0.079627   0.438330  -0.025940   0.008110  -0.001753   0.005509
    22  H    0.014964  -0.055827   0.438676  -0.057242   0.010528  -0.003181
    23  H   -0.004110   0.012551  -0.057089   0.444985  -0.059247   0.013080
    24  H    0.013831  -0.002971   0.010188  -0.055102   0.440774  -0.058833
    25  H   -0.042510   0.003945  -0.001321   0.005576  -0.031263   0.428540
    26  H    0.000664  -0.000358   0.000003  -0.000002   0.000012   0.000191
    27  H    0.000001   0.000003   0.000000  -0.000000  -0.000000  -0.000005
    28  H   -0.000002  -0.000000   0.000000  -0.000000   0.000000  -0.000006
              13         14         15         16         17         18
     1  C    0.000958  -0.001665   0.004398   0.400759   0.413057   0.411661
     2  O   -0.000593   0.002531  -0.056039  -0.030625  -0.041791  -0.041171
     3  C   -0.137245   0.069425   0.367496   0.007575  -0.016834  -0.018469
     4  C    0.067480  -0.158770   0.098375  -0.003395   0.009144   0.016764
     5  C    0.330977   0.022035  -0.111646   0.000365   0.000026  -0.002562
     6  N   -0.019243   0.009366   0.002635   0.000000  -0.000082   0.000050
     7  C    0.016749   0.000769   0.000041  -0.000008   0.000082   0.000120
     8  C   -0.008720  -0.000228  -0.000035   0.000001   0.000007  -0.000050
     9  C   -0.000297  -0.000027   0.000009  -0.000000  -0.000001   0.000004
    10  C    0.000018   0.000009  -0.000004   0.000000  -0.000002  -0.000017
    11  C    0.000058  -0.000035   0.000017  -0.000001   0.000052  -0.000022
    12  C    0.007691   0.001270  -0.001033   0.000026   0.000089   0.000828
    13  C    5.257589   0.396382   0.050914  -0.000068   0.000298   0.000045
    14  C    0.396382   4.898498   0.433082   0.000151  -0.000348  -0.000209
    15  C    0.050914   0.433082   5.100437  -0.000563   0.001436   0.000782
    16  H   -0.000068   0.000151  -0.000563   0.526464  -0.020960  -0.020030
    17  H    0.000298  -0.000348   0.001436  -0.020960   0.583082  -0.054571
    18  H    0.000045  -0.000209   0.000782  -0.020030  -0.054571   0.590279
    19  H    0.002578  -0.000075   0.001497  -0.000468   0.004099  -0.001164
    20  H   -0.007286   0.001405  -0.000286   0.000000  -0.000001   0.000000
    21  H   -0.000474   0.000001  -0.000003   0.000000  -0.000000  -0.000000
    22  H    0.000003   0.000000   0.000000  -0.000000   0.000000   0.000000
    23  H    0.000000   0.000000  -0.000000   0.000000  -0.000000  -0.000000
    24  H    0.000003  -0.000001   0.000002  -0.000000  -0.000003   0.000042
    25  H   -0.000014   0.000248  -0.000214   0.000002   0.000168  -0.000621
    26  H    0.444236  -0.032130   0.010068  -0.000000   0.000002   0.000001
    27  H   -0.066415   0.453727  -0.070107   0.000000  -0.000002  -0.000001
    28  H    0.017470  -0.065111   0.454233  -0.000223   0.000128   0.000138
              19         20         21         22         23         24
     1  C    0.009481   0.000006  -0.000000   0.000000  -0.000000   0.000021
     2  O   -0.007100   0.000008   0.000000  -0.000000   0.000000  -0.000001
     3  C   -0.045824   0.000637   0.000029  -0.000000   0.000000  -0.000021
     4  C    0.406616   0.012489   0.000444  -0.000011  -0.000002   0.000085
     5  C   -0.005098  -0.053808   0.000722   0.000011  -0.000001   0.000010
     6  N    0.002292   0.399025   0.004853  -0.000299  -0.000000  -0.000196
     7  C    0.004777  -0.064149  -0.079627   0.014964  -0.004110   0.013831
     8  C   -0.000662   0.000208   0.438330  -0.055827   0.012551  -0.002971
     9  C    0.000424   0.000938  -0.025940   0.438676  -0.057089   0.010188
    10  C   -0.000311   0.000152   0.008110  -0.057242   0.444985  -0.055102
    11  C    0.000892  -0.000478  -0.001753   0.010528  -0.059247   0.440774
    12  C   -0.012856   0.009541   0.005509  -0.003181   0.013080  -0.058833
    13  C    0.002578  -0.007286  -0.000474   0.000003   0.000000   0.000003
    14  C   -0.000075   0.001405   0.000001   0.000000   0.000000  -0.000001
    15  C    0.001497  -0.000286  -0.000003   0.000000  -0.000000   0.000002
    16  H   -0.000468   0.000000   0.000000  -0.000000   0.000000  -0.000000
    17  H    0.004099  -0.000001  -0.000000   0.000000  -0.000000  -0.000003
    18  H   -0.001164   0.000000  -0.000000   0.000000  -0.000000   0.000042
    19  H    0.456236  -0.000475   0.000001  -0.000001  -0.000002   0.000086
    20  H   -0.000475   0.463828   0.003896  -0.000043  -0.000002   0.000015
    21  H    0.000001   0.003896   0.539663  -0.008053  -0.000131   0.000040
    22  H   -0.000001  -0.000043  -0.008053   0.548634  -0.006664  -0.000172
    23  H   -0.000002  -0.000002  -0.000131  -0.006664   0.546053  -0.006990
    24  H    0.000086   0.000015   0.000040  -0.000172  -0.006990   0.545904
    25  H   -0.005598  -0.000226  -0.000190   0.000034  -0.000075  -0.006192
    26  H   -0.000195   0.003909  -0.000021   0.000000   0.000000   0.000000
    27  H   -0.000007  -0.000020   0.000000  -0.000000  -0.000000  -0.000000
    28  H    0.000118  -0.000005  -0.000000   0.000000  -0.000000   0.000000
              25         26         27         28
     1  C   -0.000381  -0.000002   0.000030  -0.000245
     2  O    0.000183   0.000011  -0.000125   0.008555
     3  C    0.000424  -0.003813   0.016667  -0.081553
     4  C   -0.008386   0.012307  -0.006299   0.026345
     5  C    0.001810  -0.085842   0.019030  -0.008860
     6  N    0.001463   0.003360  -0.000310   0.000008
     7  C   -0.042510   0.000664   0.000001  -0.000002
     8  C    0.003945  -0.000358   0.000003  -0.000000
     9  C   -0.001321   0.000003   0.000000   0.000000
    10  C    0.005576  -0.000002  -0.000000  -0.000000
    11  C   -0.031263   0.000012  -0.000000   0.000000
    12  C    0.428540   0.000191  -0.000005  -0.000006
    13  C   -0.000014   0.444236  -0.066415   0.017470
    14  C    0.000248  -0.032130   0.453727  -0.065111
    15  C   -0.000214   0.010068  -0.070107   0.454233
    16  H    0.000002  -0.000000   0.000000  -0.000223
    17  H    0.000168   0.000002  -0.000002   0.000128
    18  H   -0.000621   0.000001  -0.000001   0.000138
    19  H   -0.005598  -0.000195  -0.000007   0.000118
    20  H   -0.000226   0.003909  -0.000020  -0.000005
    21  H   -0.000190  -0.000021   0.000000  -0.000000
    22  H    0.000034   0.000000  -0.000000   0.000000
    23  H   -0.000075   0.000000  -0.000000  -0.000000
    24  H   -0.006192   0.000000  -0.000000   0.000000
    25  H    0.483257  -0.000005  -0.000000  -0.000002
    26  H   -0.000005   0.545510  -0.008185  -0.000024
    27  H   -0.000000  -0.008185   0.554758  -0.008914
    28  H   -0.000002  -0.000024  -0.008914   0.538863
 Mulliken charges:
               1
     1  C   -0.203465
     2  O   -0.284075
     3  C    0.427511
     4  C   -0.496826
     5  C    0.366086
     6  N   -0.343168
     7  C    0.385186
     8  C   -0.316890
     9  C   -0.072839
    10  C   -0.170117
    11  C   -0.070913
    12  C   -0.342436
    13  C   -0.353094
    14  C   -0.030301
    15  C   -0.285493
    16  H    0.140998
    17  H    0.122927
    18  H    0.118173
    19  H    0.190739
    20  H    0.230723
    21  H    0.114594
    22  H    0.118642
    23  H    0.117644
    24  H    0.119484
    25  H    0.171350
    26  H    0.110303
    27  H    0.116173
    28  H    0.119087
 Sum of Mulliken charges =  -0.00000
 Mulliken charges with hydrogens summed into heavy atoms:
               1
     1  C    0.178633
     2  O   -0.284075
     3  C    0.427511
     4  C   -0.306087
     5  C    0.366086
     6  N   -0.112445
     7  C    0.385186
     8  C   -0.202296
     9  C    0.045803
    10  C   -0.052473
    11  C    0.048571
    12  C   -0.171086
    13  C   -0.242791
    14  C    0.085872
    15  C   -0.166407
 Electronic spatial extent (au):  <R**2>=           3823.9347
 Charge=              0.0000 electrons
 Dipole moment (field-independent basis, Debye):
    X=             -1.0567    Y=              0.0490    Z=             -0.4939  Tot=              1.1675
 Quadrupole moment (field-independent basis, Debye-Ang):
   XX=            -88.4180   YY=            -75.9252   ZZ=            -91.2232
   XY=              0.3022   XZ=              2.4746   YZ=              2.3032
 Traceless Quadrupole moment (field-independent basis, Debye-Ang):
   XX=             -3.2292   YY=              9.2636   ZZ=             -6.0344
   XY=              0.3022   XZ=              2.4746   YZ=              2.3032
 Octapole moment (field-independent basis, Debye-Ang**2):
  XXX=            -11.2347  YYY=              5.5876  ZZZ=             -3.6291  XYY=             11.0559
  XXY=             -0.9315  XXZ=             -7.4358  XZZ=              0.0997  YZZ=              7.4766
  YYZ=             -2.7866  XYZ=            -16.5908
 Hexadecapole moment (field-independent basis, Debye-Ang**3):
 XXXX=          -3641.3290 YYYY=          -1055.3025 ZZZZ=           -255.9590 XXXY=            -64.3445
 XXXZ=             80.1641 YYYX=             64.1196 YYYZ=             -0.9148 ZZZX=             -3.4695
 ZZZY=              7.6112 XXYY=           -785.1285 XXZZ=           -705.9233 YYZZ=           -236.6880
 XXYZ=             20.2433 YYXZ=             -3.6327 ZZXY=             20.3556
 N-N= 9.064561126058D+02 E-N=-3.285260273012D+03  KE= 6.297578163793D+02
 Breneman (CHELPG) radii used.
 Read replacement radii for each type of atom:
 Atom Element Radius
    1     6    1.50
    2     8    1.70
    3     6    1.50
    4     6    1.50
    5     6    1.50
    6     7    1.70
    7     6    1.50
    8     6    1.50
    9     6    1.50
   10     6    1.50
   11     6    1.50
   12     6    1.50
   13     6    1.50
   14     6    1.50
   15     6    1.50
   16     1    1.45
   17     1    1.45
   18     1    1.45
   19     1    1.45
   20     1    1.45
   21     1    1.45
   22     1    1.45
   23     1    1.45
   24     1    1.45
   25     1    1.45
   26     1    1.45
   27     1    1.45
   28     1    1.45
 Generate Potential Derived Charges using the Breneman model, NDens= 1.
 Grid spacing= 0.300 Box extension= 2.800
 NStep X,Y,Z=   52     43     30   Total possible points=       67080
 Number of Points to Fit=   17569

 **********************************************************************

            Electrostatic Properties Using The SCF Density.

 **********************************************************************

       Atomic Center    1 is at   2.205625  2.786728 -0.485594
       Atomic Center    2 is at   3.055271  1.708437 -0.208003
       Atomic Center    3 is at   2.529395  0.472838 -0.068954
       Atomic Center    4 is at   1.167444  0.195783 -0.208466
       Atomic Center    5 is at   0.695757 -1.118040 -0.040900
       Atomic Center    6 is at  -0.651723 -1.437356 -0.197527
       Atomic Center    7 is at  -1.768350 -0.617179 -0.050300
       Atomic Center    8 is at  -2.941302 -0.935184 -0.754964
       Atomic Center    9 is at  -4.092657 -0.169668 -0.602073
       Atomic Center   10 is at  -4.099178  0.940970  0.241093
       Atomic Center   11 is at  -2.938842  1.259855  0.945198
       Atomic Center   12 is at  -1.786389  0.489338  0.815091
       Atomic Center   13 is at   1.606193 -2.144604  0.240694
       Atomic Center   14 is at   2.964536 -1.853266  0.356042
       Atomic Center   15 is at   3.437797 -0.556521  0.215782
       Atomic Center   16 is at   2.837920  3.681820 -0.531367
       Atomic Center   17 is at   1.689737  2.665762 -1.454213
       Atomic Center   18 is at   1.446788  2.926154  0.304459
       Atomic Center   19 is at   0.463489  0.981681 -0.474627
       Atomic Center   20 is at  -0.842556 -2.391447 -0.470083
       Atomic Center   21 is at  -2.940566 -1.791931 -1.434028
       Atomic Center   22 is at  -4.992281 -0.439906 -1.159786
       Atomic Center   23 is at  -4.999815  1.547359  0.352527
       Atomic Center   24 is at  -2.930821  2.115481  1.624612
       Atomic Center   25 is at  -0.900868  0.731787  1.403967
       Atomic Center   26 is at   1.245845 -3.166693  0.377054
       Atomic Center   27 is at   3.667332 -2.660409  0.574959
       Atomic Center   28 is at   4.495516 -0.311953  0.317339
   17569 points will be used for fitting atomic charges
 Fitting point charges to electrostatic potential
 Charges from ESP fit, RMS=   0.00401 RRMS=   0.34609:
 ESP charges:
               1
     1  C    0.087992
     2  O   -0.348126
     3  C    0.440493
     4  C   -0.388250
     5  C    0.482263
     6  N   -0.739951
     7  C    0.491319
     8  C   -0.316079
     9  C   -0.022794
    10  C   -0.181780
    11  C   -0.047126
    12  C   -0.251933
    13  C   -0.376715
    14  C    0.022557
    15  C   -0.363045
    16  H    0.060134
    17  H    0.019196
    18  H    0.031647
    19  H    0.134344
    20  H    0.358029
    21  H    0.129699
    22  H    0.090726
    23  H    0.100934
    24  H    0.094819
    25  H    0.114000
    26  H    0.138231
    27  H    0.096790
    28  H    0.142624
 Sum of ESP charges =  -0.00000
 ESP charges with hydrogens summed into heavy atoms:
               1
     1  C    0.198969
     2  O   -0.348126
     3  C    0.440493
     4  C   -0.253906
     5  C    0.482263
     6  N   -0.381921
     7  C    0.491319
     8  C   -0.186379
     9  C    0.067932
    10  C   -0.080846
    11  C    0.047693
    12  C   -0.137933
    13  C   -0.238484
    14  C    0.119347
    15  C   -0.220422
 Charge=  -0.00000 Dipole=    -1.1096    -0.0635    -0.4380 Tot=     1.1946
 -----------------------------------------------------------------

              Electrostatic Properties (Atomic Units)

 -----------------------------------------------------------------
    Center     Electric         -------- Electric Field --------
               Potential          X             Y             Z
 -----------------------------------------------------------------
    1 Atom    -14.714409
    2 Atom    -22.326257
    3 Atom    -14.708178
    4 Atom    -14.775603
    5 Atom    -14.719652
    6 Atom    -18.358097
    7 Atom    -14.719360
    8 Atom    -14.769237
    9 Atom    -14.766563
   10 Atom    -14.774765
   11 Atom    -14.767008
   12 Atom    -14.771151
   13 Atom    -14.779012
   14 Atom    -14.768695
   15 Atom    -14.783429
   16 Atom     -1.105045
   17 Atom     -1.107150
   18 Atom     -1.106560
   19 Atom     -1.099334
   20 Atom     -1.022232
   21 Atom     -1.099931
   22 Atom     -1.105972
   23 Atom     -1.109943
   24 Atom     -1.107031
   25 Atom     -1.105030
   26 Atom     -1.105932
   27 Atom     -1.109440
   28 Atom     -1.111832
 -----------------------------------------------------------------
 Unable to Open any file for archive entry.
 1\1\GINC-NOTCH310\SP\RwB97XD\def2TZVP\C13H13N1O1\U1366379\17-Feb-2026\
 0\\#N Guess=Read Geom=Check Integral(Ultrafine) Density Pop=(ChelpG,Re
 adRadii) NMR wB97XD def2TZVP\\prod_3g_5\\0,1\C,0,-2.2721771803,2.61796
 00519,-0.9539055427\O,0,-3.0808776032,1.4824412202,-0.818750018\C,0,-2
 .5359534869,0.3349081844,-0.3617945424\C,0,-1.1952287552,0.2145406399,
 0.0111707096\C,0,-0.7006669789,-1.0185693647,0.4711124862\N,0,0.624080
 0535,-1.170499464,0.8762764218\C,0,1.7452722477,-0.4358786511,0.496167
 1666\C,0,2.8377260609,-0.3612209494,1.3762040436\C,0,3.9943694618,0.32
 34320437,1.0178274527\C,0,4.0848140875,0.9654998344,-0.2166991577\C,0,
 3.0048378828,0.8925244023,-1.0954242496\C,0,1.8495752248,0.1935573585,
 -0.7554474596\C,0,-1.5696773514,-2.1122418774,0.5746640388\C,0,-2.9094
 886417,-1.9684658655,0.2175756561\C,0,-3.402588383,-0.7625267562,-0.25
 96672362\H,0,-2.9109246851,3.4128342757,-1.357958206\H,0,-1.8624365937
 ,2.9495514198,0.0162264792\H,0,-1.433820182,2.4449171495,-1.6515227291
 \H,0,-0.5284524689,1.0738054913,-0.0220469013\H,0,0.7901270264,-1.9051
 723807,1.5498328009\H,0,2.7691548159,-0.8440411798,2.3546349239\H,0,4.
 8305563909,0.364303447,1.7196232463\H,0,4.9886686497,1.5113877221,-0.4
 929700293\H,0,3.0647471921,1.3737332553,-2.0745115937\H,0,1.0309127441
 ,0.1150046363,-1.471915008\H,0,-1.1908523467,-3.0744465973,0.926466744
 \H,0,-3.5800557243,-2.826638883,0.3024578206\H,0,-4.4447214569,-0.6396
 091631,-0.5558873168\\Version=ES64L-G16RevC.01\State=1-A\HF=-633.19040
 27\RMSD=2.603e-09\Dipole=0.3923931,0.1218732,0.2053177\Quadrupole=-2.8
 163108,3.5207145,-0.7044037,0.7875056,1.8733674,-5.3375425\PG=C01 [X(C
 13H13N1O1)]\\@
 The archive entry for this job was punched.


 ASKING DUMB QUESTIONS IS EASIER THAN CORECTING DUMB MISTAKES.
 Job cpu time:       0 days  1 hours  3 minutes 27.1 seconds.
 Elapsed time:       0 days  0 hours  8 minutes 11.4 seconds.
 File lengths (MBytes):  RWF=    183 Int=      0 D2E=      0 Chk=     28 Scr=      2
 Normal termination of Gaussian 16 at Tue Feb 17 16:51:38 2026.
