 Entering Gaussian System, Link 0=g16
 Input=prod_5l_6.com
 Output=prod_5l_6.log
 Initial command:
 /uufs/chpc.utah.edu/sys/installdir/gaussian16/C01/AVX/g16/l1.exe "/scratch/general/vast/u1366379/GAUSSSCRDIR/11047003-notchpeak.peaks/Gau-3065909.inp" -scrdir="/scratch/general/vast/u1366379/GAUSSSCRDIR/11047003-notchpeak.peaks/"
 Entering Link 1 = /uufs/chpc.utah.edu/sys/installdir/gaussian16/C01/AVX/g16/l1.exe PID=   3065910.
  
 Copyright (c) 1988-2019, Gaussian, Inc.  All Rights Reserved.
  
 This is part of the Gaussian(R) 16 program.  It is based on
 the Gaussian(R) 09 system (copyright 2009, Gaussian, Inc.),
 the Gaussian(R) 03 system (copyright 2003, Gaussian, Inc.),
 the Gaussian(R) 98 system (copyright 1998, Gaussian, Inc.),
 the Gaussian(R) 94 system (copyright 1995, Gaussian, Inc.),
 the Gaussian 92(TM) system (copyright 1992, Gaussian, Inc.),
 the Gaussian 90(TM) system (copyright 1990, Gaussian, Inc.),
 the Gaussian 88(TM) system (copyright 1988, Gaussian, Inc.),
 the Gaussian 86(TM) system (copyright 1986, Carnegie Mellon
 University), and the Gaussian 82(TM) system (copyright 1983,
 Carnegie Mellon University). Gaussian is a federally registered
 trademark of Gaussian, Inc.
  
 This software contains proprietary and confidential information,
 including trade secrets, belonging to Gaussian, Inc.
  
 This software is provided under written license and may be
 used, copied, transmitted, or stored only in accord with that
 written license.
  
 The following legend is applicable only to US Government
 contracts under FAR:
  
                    RESTRICTED RIGHTS LEGEND
  
 Use, reproduction and disclosure by the US Government is
 subject to restrictions as set forth in subparagraphs (a)
 and (c) of the Commercial Computer Software - Restricted
 Rights clause in FAR 52.227-19.
  
 Gaussian, Inc.
 340 Quinnipiac St., Bldg. 40, Wallingford CT 06492
  
  
 ---------------------------------------------------------------
 Warning -- This program may not be used in any manner that
 competes with the business of Gaussian, Inc. or will provide
 assistance to any competitor of Gaussian, Inc.  The licensee
 of this program is prohibited from giving any competitor of
 Gaussian, Inc. access to this program.  By using this program,
 the user acknowledges that Gaussian, Inc. is engaged in the
 business of creating and licensing software in the field of
 computational chemistry and represents and warrants to the
 licensee that it is not a competitor of Gaussian, Inc. and that
 it will not use this program in any manner prohibited above.
 ---------------------------------------------------------------
  

 Cite this work as:
 Gaussian 16, Revision C.01,
 M. J. Frisch, G. W. Trucks, H. B. Schlegel, G. E. Scuseria, 
 M. A. Robb, J. R. Cheeseman, G. Scalmani, V. Barone, 
 G. A. Petersson, H. Nakatsuji, X. Li, M. Caricato, A. V. Marenich, 
 J. Bloino, B. G. Janesko, R. Gomperts, B. Mennucci, H. P. Hratchian, 
 J. V. Ortiz, A. F. Izmaylov, J. L. Sonnenberg, D. Williams-Young, 
 F. Ding, F. Lipparini, F. Egidi, J. Goings, B. Peng, A. Petrone, 
 T. Henderson, D. Ranasinghe, V. G. Zakrzewski, J. Gao, N. Rega, 
 G. Zheng, W. Liang, M. Hada, M. Ehara, K. Toyota, R. Fukuda, 
 J. Hasegawa, M. Ishida, T. Nakajima, Y. Honda, O. Kitao, H. Nakai, 
 T. Vreven, K. Throssell, J. A. Montgomery, Jr., J. E. Peralta, 
 F. Ogliaro, M. J. Bearpark, J. J. Heyd, E. N. Brothers, K. N. Kudin, 
 V. N. Staroverov, T. A. Keith, R. Kobayashi, J. Normand, 
 K. Raghavachari, A. P. Rendell, J. C. Burant, S. S. Iyengar, 
 J. Tomasi, M. Cossi, J. M. Millam, M. Klene, C. Adamo, R. Cammi, 
 J. W. Ochterski, R. L. Martin, K. Morokuma, O. Farkas, 
 J. B. Foresman, and D. J. Fox, Gaussian, Inc., Wallingford CT, 2019.
 
 ******************************************
 Gaussian 16:  ES64L-G16RevC.01  3-Jul-2019
                20-Feb-2026 
 ******************************************
 %NProcShared=16
 Will use up to   16 processors via shared memory.
 %Mem=16GB
 %chk=prod_5l_6.chk
 ---------------------------------------------------------------
 #N OPT=(CalcFC) FREQ=NORAMAN Integral(Ultrafine) wB97XD def2SVP
 ---------------------------------------------------------------
 1/10=4,18=20,19=15,26=4,38=1/1,3;
 2/9=110,12=2,17=6,18=5,40=1/2;
 3/5=43,7=101,11=2,25=1,30=1,71=2,74=-58,75=-5,140=1/1,2,3;
 4//1;
 5/5=2,38=5/2;
 8/6=4,10=90,11=11/1;
 11/6=1,8=1,9=11,15=111,16=1/1,2,10;
 10/6=1,13=1/2;
 6/7=2,8=2,9=2,10=2,28=1/1;
 7/10=1,25=1/1,2,3,16;
 1/10=4,18=20,19=15,26=4/3(2);
 2/9=110/2;
 99//99;
 2/9=110/2;
 3/5=43,7=101,11=2,25=1,30=1,71=1,74=-58,75=-5/1,2,3;
 4/5=5,16=3,69=1/1;
 5/5=2,38=5/2;
 7//1,2,3,16;
 1/18=20,19=15,26=4/3(-5);
 2/9=110/2;
 6/7=2,8=2,9=2,10=2,19=2,28=1/1;
 99/9=1/99;
 ---------
 prod_5l_6
 ---------
 Symbolic Z-matrix:
 Charge =  0 Multiplicity = 1
 O                     0.38096   1.75689   1.04879 
 S                     0.04032   1.15317  -0.28276 
 N                     0.88455  -0.27624  -0.68405 
 C                     2.19566  -0.44911  -0.2372 
 C                     2.98736  -1.44443  -0.82401 
 C                     4.28179  -1.65755  -0.41175 
 C                     4.82493  -0.88862   0.59806 
 C                     4.06475   0.09574   1.19657 
 C                     2.77098   0.3121    0.78789 
 C                    -1.56345   0.37227  -0.0731 
 C                    -2.57187   0.62694  -0.97088 
 C                    -3.80449   0.02726  -0.81025 
 C                    -4.03866  -0.82821   0.25672 
 C                    -5.35995  -1.4929    0.4185 
 C                    -3.00569  -1.07957   1.14857 
 C                    -1.77415  -0.47823   0.98503 
 O                    -0.01622   1.96974  -1.54189 
 H                     0.77133  -0.30934  -1.67492 
 H                     2.56025  -2.04558  -1.60723 
 H                     4.87427  -2.42736  -0.87817 
 H                     5.83978  -1.05681   0.91871 
 H                     4.48666   0.69661   1.98544 
 H                     2.17995   1.07751   1.25525 
 H                    -2.3841    1.29886  -1.79241 
 H                    -4.59529   0.22141  -1.51411 
 H                    -5.56216  -1.71677   1.46628 
 H                    -6.16687  -0.85591   0.05519 
 H                    -5.39262  -2.42948  -0.13872 
 H                    -3.17342  -1.74951   1.9741 
 H                    -0.97194  -0.66281   1.68044 
 

 GradGradGradGradGradGradGradGradGradGradGradGradGradGradGradGradGradGrad
 Berny optimization.
 Initialization pass.
                           ----------------------------
                           !    Initial Parameters    !
                           ! (Angstroms and Degrees)  !
 --------------------------                            --------------------------
 ! Name  Definition              Value          Derivative Info.                !
 --------------------------------------------------------------------------------
 ! R1    R(1,2)                  1.5012         calculate D2E/DX2 analytically  !
 ! R2    R(2,3)                  1.7079         calculate D2E/DX2 analytically  !
 ! R3    R(2,10)                 1.7961         calculate D2E/DX2 analytically  !
 ! R4    R(2,17)                 1.5018         calculate D2E/DX2 analytically  !
 ! R5    R(3,4)                  1.3959         calculate D2E/DX2 analytically  !
 ! R6    R(3,18)                 0.9979         calculate D2E/DX2 analytically  !
 ! R7    R(4,5)                  1.4006         calculate D2E/DX2 analytically  !
 ! R8    R(4,9)                  1.4004         calculate D2E/DX2 analytically  !
 ! R9    R(5,6)                  1.3751         calculate D2E/DX2 analytically  !
 ! R10   R(5,19)                 1.0757         calculate D2E/DX2 analytically  !
 ! R11   R(6,7)                  1.3806         calculate D2E/DX2 analytically  !
 ! R12   R(6,20)                 1.0776         calculate D2E/DX2 analytically  !
 ! R13   R(7,8)                  1.3802         calculate D2E/DX2 analytically  !
 ! R14   R(7,21)                 1.0775         calculate D2E/DX2 analytically  !
 ! R15   R(8,9)                  1.3739         calculate D2E/DX2 analytically  !
 ! R16   R(8,22)                 1.0777         calculate D2E/DX2 analytically  !
 ! R17   R(9,23)                 1.0741         calculate D2E/DX2 analytically  !
 ! R18   R(10,11)                1.374          calculate D2E/DX2 analytically  !
 ! R19   R(10,16)                1.3738         calculate D2E/DX2 analytically  !
 ! R20   R(11,12)                1.3801         calculate D2E/DX2 analytically  !
 ! R21   R(11,24)                1.0778         calculate D2E/DX2 analytically  !
 ! R22   R(12,13)                1.3875         calculate D2E/DX2 analytically  !
 ! R23   R(12,25)                1.0763         calculate D2E/DX2 analytically  !
 ! R24   R(13,14)                1.4879         calculate D2E/DX2 analytically  !
 ! R25   R(13,15)                1.3877         calculate D2E/DX2 analytically  !
 ! R26   R(14,26)                1.0903         calculate D2E/DX2 analytically  !
 ! R27   R(14,27)                1.0904         calculate D2E/DX2 analytically  !
 ! R28   R(14,28)                1.0903         calculate D2E/DX2 analytically  !
 ! R29   R(15,16)                1.3802         calculate D2E/DX2 analytically  !
 ! R30   R(15,29)                1.0763         calculate D2E/DX2 analytically  !
 ! R31   R(16,30)                1.0776         calculate D2E/DX2 analytically  !
 ! A1    A(1,2,3)              115.6472         calculate D2E/DX2 analytically  !
 ! A2    A(1,2,10)             105.8984         calculate D2E/DX2 analytically  !
 ! A3    A(1,2,17)             122.2458         calculate D2E/DX2 analytically  !
 ! A4    A(3,2,10)              96.0228         calculate D2E/DX2 analytically  !
 ! A5    A(3,2,17)             106.0622         calculate D2E/DX2 analytically  !
 ! A6    A(10,2,17)            107.4971         calculate D2E/DX2 analytically  !
 ! A7    A(2,3,4)              119.5187         calculate D2E/DX2 analytically  !
 ! A8    A(2,3,18)             101.8288         calculate D2E/DX2 analytically  !
 ! A9    A(4,3,18)             114.8554         calculate D2E/DX2 analytically  !
 ! A10   A(3,4,5)              118.9988         calculate D2E/DX2 analytically  !
 ! A11   A(3,4,9)              123.5633         calculate D2E/DX2 analytically  !
 ! A12   A(5,4,9)              117.4332         calculate D2E/DX2 analytically  !
 ! A13   A(4,5,6)              121.105          calculate D2E/DX2 analytically  !
 ! A14   A(4,5,19)             118.5364         calculate D2E/DX2 analytically  !
 ! A15   A(6,5,19)             120.3584         calculate D2E/DX2 analytically  !
 ! A16   A(5,6,7)              120.2187         calculate D2E/DX2 analytically  !
 ! A17   A(5,6,20)             119.9019         calculate D2E/DX2 analytically  !
 ! A18   A(7,6,20)             119.8794         calculate D2E/DX2 analytically  !
 ! A19   A(6,7,8)              119.8489         calculate D2E/DX2 analytically  !
 ! A20   A(6,7,21)             120.084          calculate D2E/DX2 analytically  !
 ! A21   A(8,7,21)             120.0671         calculate D2E/DX2 analytically  !
 ! A22   A(7,8,9)              120.1293         calculate D2E/DX2 analytically  !
 ! A23   A(7,8,22)             119.9632         calculate D2E/DX2 analytically  !
 ! A24   A(9,8,22)             119.9074         calculate D2E/DX2 analytically  !
 ! A25   A(4,9,8)              121.2638         calculate D2E/DX2 analytically  !
 ! A26   A(4,9,23)             118.6723         calculate D2E/DX2 analytically  !
 ! A27   A(8,9,23)             120.0639         calculate D2E/DX2 analytically  !
 ! A28   A(2,10,11)            119.9011         calculate D2E/DX2 analytically  !
 ! A29   A(2,10,16)            119.7371         calculate D2E/DX2 analytically  !
 ! A30   A(11,10,16)           120.3617         calculate D2E/DX2 analytically  !
 ! A31   A(10,11,12)           119.9282         calculate D2E/DX2 analytically  !
 ! A32   A(10,11,24)           119.0614         calculate D2E/DX2 analytically  !
 ! A33   A(12,11,24)           121.0102         calculate D2E/DX2 analytically  !
 ! A34   A(11,12,13)           120.54           calculate D2E/DX2 analytically  !
 ! A35   A(11,12,25)           120.1127         calculate D2E/DX2 analytically  !
 ! A36   A(13,12,25)           119.3472         calculate D2E/DX2 analytically  !
 ! A37   A(12,13,14)           120.5928         calculate D2E/DX2 analytically  !
 ! A38   A(12,13,15)           118.7041         calculate D2E/DX2 analytically  !
 ! A39   A(14,13,15)           120.6802         calculate D2E/DX2 analytically  !
 ! A40   A(13,14,26)           111.1556         calculate D2E/DX2 analytically  !
 ! A41   A(13,14,27)           111.0988         calculate D2E/DX2 analytically  !
 ! A42   A(13,14,28)           110.7807         calculate D2E/DX2 analytically  !
 ! A43   A(26,14,27)           107.6318         calculate D2E/DX2 analytically  !
 ! A44   A(26,14,28)           108.0105         calculate D2E/DX2 analytically  !
 ! A45   A(27,14,28)           108.0215         calculate D2E/DX2 analytically  !
 ! A46   A(13,15,16)           120.606          calculate D2E/DX2 analytically  !
 ! A47   A(13,15,29)           119.3204         calculate D2E/DX2 analytically  !
 ! A48   A(16,15,29)           120.0736         calculate D2E/DX2 analytically  !
 ! A49   A(10,16,15)           119.8562         calculate D2E/DX2 analytically  !
 ! A50   A(10,16,30)           119.2691         calculate D2E/DX2 analytically  !
 ! A51   A(15,16,30)           120.8742         calculate D2E/DX2 analytically  !
 ! D1    D(1,2,3,4)            -32.6467         calculate D2E/DX2 analytically  !
 ! D2    D(1,2,3,18)          -160.3877         calculate D2E/DX2 analytically  !
 ! D3    D(10,2,3,4)          -143.5146         calculate D2E/DX2 analytically  !
 ! D4    D(10,2,3,18)           88.7443         calculate D2E/DX2 analytically  !
 ! D5    D(17,2,3,4)           106.3044         calculate D2E/DX2 analytically  !
 ! D6    D(17,2,3,18)          -21.4367         calculate D2E/DX2 analytically  !
 ! D7    D(1,2,10,11)          129.9214         calculate D2E/DX2 analytically  !
 ! D8    D(1,2,10,16)          -50.1348         calculate D2E/DX2 analytically  !
 ! D9    D(3,2,10,11)         -111.2238         calculate D2E/DX2 analytically  !
 ! D10   D(3,2,10,16)           68.72           calculate D2E/DX2 analytically  !
 ! D11   D(17,2,10,11)          -2.2597         calculate D2E/DX2 analytically  !
 ! D12   D(17,2,10,16)         177.6841         calculate D2E/DX2 analytically  !
 ! D13   D(2,3,4,5)           -164.5848         calculate D2E/DX2 analytically  !
 ! D14   D(2,3,4,9)             16.2258         calculate D2E/DX2 analytically  !
 ! D15   D(18,3,4,5)           -43.1249         calculate D2E/DX2 analytically  !
 ! D16   D(18,3,4,9)           137.6858         calculate D2E/DX2 analytically  !
 ! D17   D(3,4,5,6)           -179.6041         calculate D2E/DX2 analytically  !
 ! D18   D(3,4,5,19)             0.2277         calculate D2E/DX2 analytically  !
 ! D19   D(9,4,5,6)             -0.3652         calculate D2E/DX2 analytically  !
 ! D20   D(9,4,5,19)           179.4667         calculate D2E/DX2 analytically  !
 ! D21   D(3,4,9,8)            179.5702         calculate D2E/DX2 analytically  !
 ! D22   D(3,4,9,23)            -0.4946         calculate D2E/DX2 analytically  !
 ! D23   D(5,4,9,8)              0.369          calculate D2E/DX2 analytically  !
 ! D24   D(5,4,9,23)          -179.6957         calculate D2E/DX2 analytically  !
 ! D25   D(4,5,6,7)              0.1398         calculate D2E/DX2 analytically  !
 ! D26   D(4,5,6,20)          -179.872          calculate D2E/DX2 analytically  !
 ! D27   D(19,5,6,7)          -179.689          calculate D2E/DX2 analytically  !
 ! D28   D(19,5,6,20)            0.2992         calculate D2E/DX2 analytically  !
 ! D29   D(5,6,7,8)              0.0962         calculate D2E/DX2 analytically  !
 ! D30   D(5,6,7,21)          -179.9378         calculate D2E/DX2 analytically  !
 ! D31   D(20,6,7,8)          -179.8921         calculate D2E/DX2 analytically  !
 ! D32   D(20,6,7,21)            0.0739         calculate D2E/DX2 analytically  !
 ! D33   D(6,7,8,9)             -0.0928         calculate D2E/DX2 analytically  !
 ! D34   D(6,7,8,22)           179.9597         calculate D2E/DX2 analytically  !
 ! D35   D(21,7,8,9)           179.9412         calculate D2E/DX2 analytically  !
 ! D36   D(21,7,8,22)           -0.0063         calculate D2E/DX2 analytically  !
 ! D37   D(7,8,9,4)             -0.1467         calculate D2E/DX2 analytically  !
 ! D38   D(7,8,9,23)           179.9189         calculate D2E/DX2 analytically  !
 ! D39   D(22,8,9,4)           179.8007         calculate D2E/DX2 analytically  !
 ! D40   D(22,8,9,23)           -0.1336         calculate D2E/DX2 analytically  !
 ! D41   D(2,10,11,12)        -179.9951         calculate D2E/DX2 analytically  !
 ! D42   D(2,10,11,24)          -0.1542         calculate D2E/DX2 analytically  !
 ! D43   D(16,10,11,12)          0.0614         calculate D2E/DX2 analytically  !
 ! D44   D(16,10,11,24)        179.9023         calculate D2E/DX2 analytically  !
 ! D45   D(2,10,16,15)         179.9941         calculate D2E/DX2 analytically  !
 ! D46   D(2,10,16,30)           0.2626         calculate D2E/DX2 analytically  !
 ! D47   D(11,10,16,15)         -0.0624         calculate D2E/DX2 analytically  !
 ! D48   D(11,10,16,30)       -179.7938         calculate D2E/DX2 analytically  !
 ! D49   D(10,11,12,13)          0.3327         calculate D2E/DX2 analytically  !
 ! D50   D(10,11,12,25)       -179.7419         calculate D2E/DX2 analytically  !
 ! D51   D(24,11,12,13)       -179.5051         calculate D2E/DX2 analytically  !
 ! D52   D(24,11,12,25)          0.4204         calculate D2E/DX2 analytically  !
 ! D53   D(11,12,13,14)       -178.9841         calculate D2E/DX2 analytically  !
 ! D54   D(11,12,13,15)         -0.7116         calculate D2E/DX2 analytically  !
 ! D55   D(25,12,13,14)          1.0899         calculate D2E/DX2 analytically  !
 ! D56   D(25,12,13,15)        179.3624         calculate D2E/DX2 analytically  !
 ! D57   D(12,13,14,26)       -152.673          calculate D2E/DX2 analytically  !
 ! D58   D(12,13,14,27)        -32.842          calculate D2E/DX2 analytically  !
 ! D59   D(12,13,14,28)         87.2306         calculate D2E/DX2 analytically  !
 ! D60   D(15,13,14,26)         29.0888         calculate D2E/DX2 analytically  !
 ! D61   D(15,13,14,27)        148.9198         calculate D2E/DX2 analytically  !
 ! D62   D(15,13,14,28)        -91.0075         calculate D2E/DX2 analytically  !
 ! D63   D(12,13,15,16)          0.7111         calculate D2E/DX2 analytically  !
 ! D64   D(12,13,15,29)       -179.3778         calculate D2E/DX2 analytically  !
 ! D65   D(14,13,15,16)        178.982          calculate D2E/DX2 analytically  !
 ! D66   D(14,13,15,29)         -1.1069         calculate D2E/DX2 analytically  !
 ! D67   D(13,15,16,10)         -0.3309         calculate D2E/DX2 analytically  !
 ! D68   D(13,15,16,30)        179.3961         calculate D2E/DX2 analytically  !
 ! D69   D(29,15,16,10)        179.7586         calculate D2E/DX2 analytically  !
 ! D70   D(29,15,16,30)         -0.5143         calculate D2E/DX2 analytically  !
 --------------------------------------------------------------------------------
 Trust Radius=3.00D-01 FncErr=1.00D-07 GrdErr=1.00D-06 EigMax=2.50D+02 EigMin=1.00D-04
 Number of steps in this run=    162 maximum allowed number of steps=    180.
 GradGradGradGradGradGradGradGradGradGradGradGradGradGradGradGradGradGrad

                          Input orientation:                          
 ---------------------------------------------------------------------
 Center     Atomic      Atomic             Coordinates (Angstroms)
 Number     Number       Type             X           Y           Z
 ---------------------------------------------------------------------
      1          8           0        0.380960    1.756890    1.048790
      2         16           0        0.040320    1.153170   -0.282760
      3          7           0        0.884550   -0.276240   -0.684050
      4          6           0        2.195660   -0.449110   -0.237200
      5          6           0        2.987360   -1.444430   -0.824010
      6          6           0        4.281790   -1.657550   -0.411750
      7          6           0        4.824930   -0.888620    0.598060
      8          6           0        4.064750    0.095740    1.196570
      9          6           0        2.770980    0.312100    0.787890
     10          6           0       -1.563450    0.372270   -0.073100
     11          6           0       -2.571870    0.626940   -0.970880
     12          6           0       -3.804490    0.027260   -0.810250
     13          6           0       -4.038660   -0.828210    0.256720
     14          6           0       -5.359950   -1.492900    0.418500
     15          6           0       -3.005690   -1.079570    1.148570
     16          6           0       -1.774150   -0.478230    0.985030
     17          8           0       -0.016220    1.969740   -1.541890
     18          1           0        0.771330   -0.309340   -1.674920
     19          1           0        2.560250   -2.045580   -1.607230
     20          1           0        4.874270   -2.427360   -0.878170
     21          1           0        5.839780   -1.056810    0.918710
     22          1           0        4.486660    0.696610    1.985440
     23          1           0        2.179950    1.077510    1.255250
     24          1           0       -2.384100    1.298860   -1.792410
     25          1           0       -4.595290    0.221410   -1.514110
     26          1           0       -5.562160   -1.716770    1.466280
     27          1           0       -6.166870   -0.855910    0.055190
     28          1           0       -5.392620   -2.429480   -0.138720
     29          1           0       -3.173420   -1.749510    1.974100
     30          1           0       -0.971940   -0.662810    1.680440
 ---------------------------------------------------------------------
                    Distance matrix (angstroms):
                    1          2          3          4          5
     1  O    0.000000
     2  S    1.501179   0.000000
     3  N    2.718447   1.707914   0.000000
     4  C    3.132625   2.686051   1.395911   0.000000
     5  C    4.533117   3.965542   2.409578   1.400642   0.000000
     6  C    5.385912   5.089878   3.677418   2.417175   1.375110
     7  C    5.191411   5.276101   4.188724   2.793544   2.389115
     8  C    4.043707   4.416176   3.713324   2.417862   2.759644
     9  C    2.804939   3.051261   2.464015   1.400444   2.393834
    10  C    2.637525   1.796062   2.605097   3.851299   4.957231
    11  C    3.751674   2.752084   3.583971   4.942217   5.934407
    12  C    4.895472   4.040852   4.700546   6.046248   6.949481
    13  C    5.181038   4.566726   5.042590   6.265335   7.135311
    14  C    6.626949   6.054450   6.456753   7.655500   8.439417
    15  C    4.418694   4.038813   4.374677   5.419583   6.319877
    16  C    3.105531   2.749738   3.145682   4.153804   5.184414
    17  O    2.629578   1.501796   2.567431   3.527813   4.603629
    18  H    3.440972   2.147422   0.997867   2.028618   2.631210
    19  H    5.124698   4.282087   2.605916   2.135094   1.075750
    20  H    6.435135   6.044980   4.536834   3.391057   2.128266
    21  H    6.142682   6.321493   5.266159   3.871051   3.365059
    22  H    4.342612   5.012297   4.587789   3.391384   3.837312
    23  H    1.934050   2.636137   2.696588   2.134999   3.366811
    24  H    3.990961   2.859734   3.793873   5.142789   6.108684
    25  H    5.804241   4.886029   5.564647   6.942413   7.794090
    26  H    6.896469   6.533259   6.946878   8.043170   8.855162
    27  H    7.119554   6.532979   7.113720   8.377523   9.215166
    28  H    7.229806   6.509452   6.658580   7.843058   8.465460
    29  H    5.077859   4.883349   5.069853   5.950454   6.773308
    30  H    2.843285   2.859477   3.030974   3.709003   4.749659
                    6          7          8          9         10
     6  C    0.000000
     7  C    1.380569   0.000000
     8  C    2.389106   1.380236   0.000000
     9  C    2.757028   2.386729   1.373926   0.000000
    10  C    6.196909   6.546121   5.776259   4.419526   0.000000
    11  C    7.245977   7.711754   7.001767   5.633688   1.373964
    12  C    8.269541   8.791420   8.121389   6.772886   2.384257
    13  C    8.388358   8.870366   8.209888   6.924857   2.770667
    14  C    9.678821  10.204370   9.589272   8.337056   4.258397
    15  C    7.475027   7.852269   7.167620   5.952878   2.383353
    16  C    6.325836   6.623143   5.870855   4.617542   1.373821
    17  O    5.736492   6.015508   5.259787   3.993010   2.665178
    18  H    3.966938   4.683340   4.388184   3.232680   2.912322
    19  H    2.131535   3.366101   3.835370   3.367441   5.020404
    20  H    1.077584   2.132935   3.365398   3.834609   7.066138
    21  H    2.135028   1.077509   2.134551   3.362821   7.604852
    22  H    3.366090   2.133589   1.077668   2.127330   6.398954
    23  H    3.831080   3.360578   2.125979   1.074055   4.034219
    24  H    7.421635   7.903767   7.208964   5.848632   2.118505
    25  H    9.140473   9.717714   9.075234   7.718119   3.360256
    26  H   10.021669  10.456160   9.799762   8.603357   4.766913
    27  H   10.489764  11.005246  10.338976   9.043576   4.766168
    28  H    9.708997  10.359316   9.879351   8.661364   4.745171
    29  H    7.828211   8.161386   7.510034   6.402595   3.359313
    30  H    5.741816   5.901376   5.116422   3.969451   2.120419
                   11         12         13         14         15
    11  C    0.000000
    12  C    1.380134   0.000000
    13  C    2.403318   1.387476   0.000000
    14  C    3.767955   2.498033   1.487882   0.000000
    15  C    2.755439   2.387494   1.387662   2.499277   0.000000
    16  C    2.383976   2.756960   2.404356   3.769413   1.380234
    17  O    2.942875   4.319666   5.219535   6.662466   5.047157
    18  H    3.542496   4.668949   5.209267   6.586032   4.778204
    19  H    5.821165   6.741050   6.964331   8.193815   6.285483
    20  H    8.048748   9.019459   9.126093  10.358273   8.247302
    21  H    8.784157   9.857812   9.903235  11.219373   8.848485
    22  H    7.652942   8.775368   8.831457  10.208084   7.745352
    23  H    5.266732   6.417386   6.580269   8.009822   5.617405
    24  H    1.077797   2.144554   3.385399   4.640876   3.833101
    25  H    2.133959   1.076326   2.132458   2.694169   3.362922
    26  H    4.513819   3.363574   2.138604   1.090344   2.653771
    27  H    4.021901   2.666424   2.137910   1.090353   3.352397
    28  H    4.241559   3.001446   2.133927   1.090295   3.029325
    29  H    3.831747   3.362702   2.132329   2.695673   1.076314
    30  H    3.354509   3.834459   3.385130   4.640708   2.143062
                   16         17         18         19         20
    16  C    0.000000
    17  O    3.932963   0.000000
    18  H    3.685556   2.414982   0.000000
    19  H    5.288045   4.771296   2.493862   0.000000
    20  H    7.174407   6.609985   4.685609   2.456008   0.000000
    21  H    7.636169   7.036142   5.742370   4.255979   2.457518
    22  H    6.448163   5.859936   5.311671   4.913038   4.255548
    23  H    4.257729   3.666501   3.534609   4.253482   4.908661
    24  H    3.353246   2.473802   3.543565   5.972116   8.210023
    25  H    3.833279   4.901562   5.395198   7.506642   9.853576
    26  H    4.014300   7.307318   7.208404   8.690692  10.720096
    27  H    4.505911   6.954528   7.171516   8.963346  11.191398
    28  H    4.261868   7.087150   6.696953   8.096422  10.293484
    29  H    2.133628   6.013561   5.563316   6.766724   8.565059
    30  H    1.077593   4.269324   3.797680   5.019681   6.621049
                   21         22         23         24         25
    21  H    0.000000
    22  H    2.458318   0.000000
    23  H    4.250051   2.449321   0.000000
    24  H    8.973938   7.863981   5.492520   0.000000
    25  H   10.790883   9.744459   7.369270   2.475421   0.000000
    26  H   11.434143  10.347595   8.233638   5.460142   3.684305
    27  H   12.039339  10.937728   8.651454   4.729271   2.468438
    28  H   11.365262  10.577555   8.460848   5.068175   3.091060
    29  H    9.101179   8.041173   6.096504   4.909397   4.251335
    30  H    6.865493   5.633592   3.625453   4.231197   4.910770
                   26         27         28         29         30
    26  H    0.000000
    27  H    1.760093   0.000000
    28  H    1.764291   1.764422   0.000000
    29  H    2.442341   3.666262   3.138665   0.000000
    30  H    4.714532   5.446652   5.096359   2.472583   0.000000
 Stoichiometry    C13H13NO2S
 Framework group  C1[X(C13H13NO2S)]
 Deg. of freedom    84
 Full point group                 C1      NOp   1
 Largest Abelian subgroup         C1      NOp   1
 Largest concise Abelian subgroup C1      NOp   1
                         Standard orientation:                         
 ---------------------------------------------------------------------
 Center     Atomic      Atomic             Coordinates (Angstroms)
 Number     Number       Type             X           Y           Z
 ---------------------------------------------------------------------
      1          8           0        0.428540    1.391973    1.534366
      2         16           0        0.066946    1.222782    0.087243
      3          7           0        0.902437   -0.013436   -0.743836
      4          6           0        2.219745   -0.310853   -0.390552
      5          6           0        3.000749   -1.077211   -1.264923
      6          6           0        4.300789   -1.402439   -0.956618
      7          6           0        4.860365   -0.977112    0.231634
      8          6           0        4.111031   -0.224676    1.113331
      9          6           0        2.811711    0.102546    0.809415
     10          6           0       -1.534965    0.410692    0.072080
     11          6           0       -2.556194    0.924553   -0.690031
     12          6           0       -3.787392    0.301032   -0.702017
     13          6           0       -4.007204   -0.840057    0.056064
     14          6           0       -5.327166   -1.526080    0.026630
     15          6           0       -2.961510   -1.348887    0.813178
     16          6           0       -1.731432   -0.722900    0.822916
     17          8           0       -0.006859    2.384703   -0.861380
     18          1           0        0.774382    0.257327   -1.695691
     19          1           0        2.560883   -1.411648   -2.187911
     20          1           0        4.884811   -1.991382   -1.644551
     21          1           0        5.879572   -1.232359    0.470568
     22          1           0        4.545782    0.107754    2.041691
     23          1           0        2.229144    0.687016    1.496878
     24          1           0       -2.379456    1.815778   -1.269795
     25          1           0       -4.588245    0.698651   -1.301193
     26          1           0       -5.514134   -2.059795    0.958853
     27          1           0       -6.138232   -0.810823   -0.112826
     28          1           0       -5.369888   -2.247839   -0.789448
     29          1           0       -3.118147   -2.239393    1.397058
     30          1           0       -0.919279   -1.108794    1.416800
 ---------------------------------------------------------------------
 Rotational constants (GHZ):           1.0250188           0.2167329           0.2028456
 Standard basis: def2SVP (5D, 7F)
 There are   324 symmetry adapted cartesian basis functions of A   symmetry.
 There are   307 symmetry adapted basis functions of A   symmetry.
   307 basis functions,   528 primitive gaussians,   324 cartesian basis functions
    65 alpha electrons       65 beta electrons
       nuclear repulsion energy      1294.6363464779 Hartrees.
 NAtoms=   30 NActive=   30 NUniq=   30 SFac= 1.00D+00 NAtFMM=   60 NAOKFM=F Big=F
 Integral buffers will be    131072 words long.
 Raffenetti 2 integral format.
 Two-electron integral symmetry is turned on.
 Nuclear repulsion after empirical dispersion term =     1294.6182055263 Hartrees.
 One-electron integrals computed using PRISM.
   1 Symmetry operations used in ECPInt.
 ECPInt:  NShTT=   10296 NPrTT=   38220 LenC2=    9224 LenP2D=   24178.
 LDataN:  DoStor=T MaxTD1= 4 Len=   56
 NBasis=   307 RedAO= T EigKep=  2.45D-04  NBF=   307
 NBsUse=   307 1.00D-06 EigRej= -1.00D+00 NBFU=   307
 ExpMin= 1.22D-01 ExpMax= 9.18D+03 ExpMxC= 1.38D+03 IAcc=3 IRadAn=         5 AccDes= 0.00D+00
 Harris functional with IExCor= 4639 and IRadAn=       5 diagonalized for initial guess.
 HarFok:  IExCor= 4639 AccDes= 0.00D+00 IRadAn=         5 IDoV= 1 UseB2=F ITyADJ=14
 ICtDFT=  3500011 ScaDFX=  1.000000  1.000000  1.000000  1.000000
 FoFCou: FMM=F IPFlag=           0 FMFlag=      100000 FMFlg1=           0
         NFxFlg=           0 DoJE=T BraDBF=F KetDBF=T FulRan=T
         wScrn=  0.000000 ICntrl=       500 IOpCl=  0 I1Cent=   200000004 NGrid=           0
         NMat0=    1 NMatS0=      1 NMatT0=    0 NMatD0=    1 NMtDS0=    0 NMtDT0=    0
 Petite list used in FoFCou.
 Requested convergence on RMS density matrix=1.00D-08 within 128 cycles.
 Requested convergence on MAX density matrix=1.00D-06.
 Requested convergence on             energy=1.00D-06.
 No special actions if energy rises.
 Integral accuracy reduced to 1.0D-05 until final iterations.
 Initial convergence to 1.0D-05 achieved.  Increase integral accuracy.
 SCF Done:  E(RwB97XD) =  -1105.63881784     A.U. after   15 cycles
            NFock= 15  Conv=0.69D-08     -V/T= 2.0070
 DoSCS=F DFT=T ScalE2(SS,OS)=  1.000000  1.000000
 Range of M.O.s used for correlation:     1   307
 NBasis=   307 NAE=    65 NBE=    65 NFC=     0 NFV=     0
 NROrb=    307 NOA=    65 NOB=    65 NVA=   242 NVB=   242

 **** Warning!!: The largest alpha MO coefficient is  0.14511552D+02

   1 Symmetry operations used in ECPInt.
 ECPInt:  NShTT=   10296 NPrTT=   38220 LenC2=    9224 LenP2D=   24178.
 LDataN:  DoStor=T MaxTD1= 5 Len=  102
 Symmetrizing basis deriv contribution to polar:
 IMax=3 JMax=2 DiffMx= 0.00D+00
 G2DrvN: will do    31 centers at a time, making    1 passes.
 Calling FoFCou, ICntrl=  3107 FMM=F I1Cent=   0 AccDes= 0.00D+00.
 End of G2Drv F.D. properties file   721 does not exist.
 End of G2Drv F.D. properties file   722 does not exist.
 End of G2Drv F.D. properties file   788 does not exist.
          IDoAtm=111111111111111111111111111111
          Differentiating once with respect to nuclear coordinates.
 CalDSu exits because no D1Ps are significant.
          There are    93 degrees of freedom in the 1st order CPHF.  IDoFFX=6 NUNeed=     0.
     87 vectors produced by pass  0 Test12= 1.69D-14 1.08D-09 XBig12= 1.20D-01 9.72D-02.
 AX will form    87 AO Fock derivatives at one time.
     87 vectors produced by pass  1 Test12= 1.69D-14 1.08D-09 XBig12= 2.66D-02 3.01D-02.
     87 vectors produced by pass  2 Test12= 1.69D-14 1.08D-09 XBig12= 5.23D-04 3.53D-03.
     87 vectors produced by pass  3 Test12= 1.69D-14 1.08D-09 XBig12= 1.06D-05 3.21D-04.
     87 vectors produced by pass  4 Test12= 1.69D-14 1.08D-09 XBig12= 1.85D-07 5.45D-05.
     87 vectors produced by pass  5 Test12= 1.69D-14 1.08D-09 XBig12= 1.58D-09 4.70D-06.
     87 vectors produced by pass  6 Test12= 1.69D-14 1.08D-09 XBig12= 8.57D-12 2.63D-07.
     42 vectors produced by pass  7 Test12= 1.69D-14 1.08D-09 XBig12= 4.25D-14 1.98D-08.
      2 vectors produced by pass  8 Test12= 1.69D-14 1.08D-09 XBig12= 3.84D-16 1.52D-09.
 InvSVY:  IOpt=1 It=  1 EMax= 6.66D-16
 Solved reduced A of dimension   653 with    93 vectors.
 End of Minotr F.D. properties file   721 does not exist.
 End of Minotr F.D. properties file   722 does not exist.
 End of Minotr F.D. properties file   788 does not exist.

 **********************************************************************

            Population analysis using the SCF Density.

 **********************************************************************

 Orbital symmetries:
       Occupied  (A) (A) (A) (A) (A) (A) (A) (A) (A) (A) (A) (A)
                 (A) (A) (A) (A) (A) (A) (A) (A) (A) (A) (A) (A)
                 (A) (A) (A) (A) (A) (A) (A) (A) (A) (A) (A) (A)
                 (A) (A) (A) (A) (A) (A) (A) (A) (A) (A) (A) (A)
                 (A) (A) (A) (A) (A) (A) (A) (A) (A) (A) (A) (A)
                 (A) (A) (A) (A) (A)
       Virtual   (A) (A) (A) (A) (A) (A) (A) (A) (A) (A) (A) (A)
                 (A) (A) (A) (A) (A) (A) (A) (A) (A) (A) (A) (A)
                 (A) (A) (A) (A) (A) (A) (A) (A) (A) (A) (A) (A)
                 (A) (A) (A) (A) (A) (A) (A) (A) (A) (A) (A) (A)
                 (A) (A) (A) (A) (A) (A) (A) (A) (A) (A) (A) (A)
                 (A) (A) (A) (A) (A) (A) (A) (A) (A) (A) (A) (A)
                 (A) (A) (A) (A) (A) (A) (A) (A) (A) (A) (A) (A)
                 (A) (A) (A) (A) (A) (A) (A) (A) (A) (A) (A) (A)
                 (A) (A) (A) (A) (A) (A) (A) (A) (A) (A) (A) (A)
                 (A) (A) (A) (A) (A) (A) (A) (A) (A) (A) (A) (A)
                 (A) (A) (A) (A) (A) (A) (A) (A) (A) (A) (A) (A)
                 (A) (A) (A) (A) (A) (A) (A) (A) (A) (A) (A) (A)
                 (A) (A) (A) (A) (A) (A) (A) (A) (A) (A) (A) (A)
                 (A) (A) (A) (A) (A) (A) (A) (A) (A) (A) (A) (A)
                 (A) (A) (A) (A) (A) (A) (A) (A) (A) (A) (A) (A)
                 (A) (A) (A) (A) (A) (A) (A) (A) (A) (A) (A) (A)
                 (A) (A) (A) (A) (A) (A) (A) (A) (A) (A) (A) (A)
                 (A) (A) (A) (A) (A) (A) (A) (A) (A) (A) (A) (A)
                 (A) (A) (A) (A) (A) (A) (A) (A) (A) (A) (A) (A)
                 (A) (A) (A) (A) (A) (A) (A) (A) (A) (A) (A) (A)
                 (A) (A)
 The electronic state is 1-A.
 Alpha  occ. eigenvalues --  -89.25844 -19.26678 -19.25818 -14.49848 -10.35369
 Alpha  occ. eigenvalues --  -10.33469 -10.32666 -10.32385 -10.32220 -10.31549
 Alpha  occ. eigenvalues --  -10.31457 -10.30826 -10.30331 -10.30205 -10.29840
 Alpha  occ. eigenvalues --  -10.29370 -10.29056  -8.27660  -6.23082  -6.22993
 Alpha  occ. eigenvalues --   -6.22850  -1.20602  -1.09254  -1.05513  -0.98732
 Alpha  occ. eigenvalues --   -0.95230  -0.90343  -0.86461  -0.85024  -0.84601
 Alpha  occ. eigenvalues --   -0.81218  -0.75856  -0.72646  -0.71609  -0.70462
 Alpha  occ. eigenvalues --   -0.68154  -0.64376  -0.63810  -0.60399  -0.58941
 Alpha  occ. eigenvalues --   -0.58186  -0.56475  -0.54887  -0.53893  -0.53541
 Alpha  occ. eigenvalues --   -0.52993  -0.52907  -0.52732  -0.51124  -0.49661
 Alpha  occ. eigenvalues --   -0.48610  -0.47580  -0.46391  -0.45842  -0.44310
 Alpha  occ. eigenvalues --   -0.44067  -0.43947  -0.41345  -0.40400  -0.39584
 Alpha  occ. eigenvalues --   -0.38238  -0.35446  -0.34635  -0.33754  -0.30427
 Alpha virt. eigenvalues --    0.02776   0.04323   0.05990   0.06554   0.10014
 Alpha virt. eigenvalues --    0.12826   0.14047   0.14952   0.15379   0.15703
 Alpha virt. eigenvalues --    0.16913   0.17315   0.18717   0.19336   0.20156
 Alpha virt. eigenvalues --    0.21090   0.21380   0.23158   0.23747   0.24196
 Alpha virt. eigenvalues --    0.24495   0.25678   0.29145   0.29583   0.32968
 Alpha virt. eigenvalues --    0.35231   0.36320   0.36754   0.37419   0.37602
 Alpha virt. eigenvalues --    0.38150   0.39547   0.40156   0.40890   0.43623
 Alpha virt. eigenvalues --    0.46470   0.47433   0.47712   0.48456   0.49144
 Alpha virt. eigenvalues --    0.49327   0.51254   0.51900   0.52482   0.54327
 Alpha virt. eigenvalues --    0.54405   0.54847   0.55540   0.56571   0.57060
 Alpha virt. eigenvalues --    0.58166   0.58611   0.59333   0.60093   0.61928
 Alpha virt. eigenvalues --    0.62924   0.63856   0.64336   0.64622   0.65902
 Alpha virt. eigenvalues --    0.67351   0.69489   0.70184   0.70852   0.71258
 Alpha virt. eigenvalues --    0.72516   0.72800   0.73141   0.73431   0.74043
 Alpha virt. eigenvalues --    0.74774   0.75384   0.75681   0.76586   0.77096
 Alpha virt. eigenvalues --    0.77306   0.78163   0.78412   0.79187   0.79968
 Alpha virt. eigenvalues --    0.81455   0.82095   0.82788   0.83053   0.83354
 Alpha virt. eigenvalues --    0.84591   0.84871   0.86157   0.88123   0.89857
 Alpha virt. eigenvalues --    0.90586   0.92405   0.92923   0.95625   0.97235
 Alpha virt. eigenvalues --    0.98190   0.99595   1.00205   1.02839   1.06682
 Alpha virt. eigenvalues --    1.09597   1.10418   1.10956   1.12525   1.13656
 Alpha virt. eigenvalues --    1.15038   1.15274   1.20848   1.20984   1.22804
 Alpha virt. eigenvalues --    1.24891   1.26177   1.26625   1.28150   1.29964
 Alpha virt. eigenvalues --    1.30563   1.31160   1.32320   1.32632   1.33167
 Alpha virt. eigenvalues --    1.34717   1.35117   1.36716   1.37257   1.38402
 Alpha virt. eigenvalues --    1.38932   1.40079   1.41654   1.44568   1.51373
 Alpha virt. eigenvalues --    1.55097   1.56648   1.57478   1.59938   1.60884
 Alpha virt. eigenvalues --    1.62535   1.63986   1.69254   1.75283   1.75919
 Alpha virt. eigenvalues --    1.76781   1.77970   1.78374   1.80332   1.81284
 Alpha virt. eigenvalues --    1.81828   1.82606   1.83648   1.84034   1.84463
 Alpha virt. eigenvalues --    1.84848   1.86342   1.86602   1.87402   1.87807
 Alpha virt. eigenvalues --    1.88122   1.88494   1.90705   1.91955   1.92809
 Alpha virt. eigenvalues --    1.93887   1.96967   1.98070   1.99025   2.02798
 Alpha virt. eigenvalues --    2.04227   2.04597   2.05146   2.06086   2.08181
 Alpha virt. eigenvalues --    2.10424   2.10949   2.13398   2.14055   2.16886
 Alpha virt. eigenvalues --    2.17636   2.20017   2.20929   2.21154   2.23130
 Alpha virt. eigenvalues --    2.24635   2.25632   2.29407   2.30316   2.31683
 Alpha virt. eigenvalues --    2.33416   2.34914   2.35739   2.38224   2.38860
 Alpha virt. eigenvalues --    2.40752   2.42695   2.43574   2.44774   2.45303
 Alpha virt. eigenvalues --    2.45601   2.51299   2.55402   2.56391   2.57113
 Alpha virt. eigenvalues --    2.59592   2.61538   2.68537   2.68957   2.71456
 Alpha virt. eigenvalues --    2.71701   2.72910   2.73137   2.73788   2.73904
 Alpha virt. eigenvalues --    2.74815   2.75550   2.76181   2.78604   2.81508
 Alpha virt. eigenvalues --    2.82957   2.83101   2.84431   2.85425   2.86300
 Alpha virt. eigenvalues --    2.91849   2.94526   2.95173   2.96833   2.99255
 Alpha virt. eigenvalues --    3.00581   3.00759   3.02125   3.03024   3.04767
 Alpha virt. eigenvalues --    3.06999   3.08610   3.22635   3.23639   3.25928
 Alpha virt. eigenvalues --    3.32220   3.33760   3.34393   3.45684   3.46978
 Alpha virt. eigenvalues --    3.69642   3.78802
          Condensed to atoms (all electrons):
               1          2          3          4          5          6
     1  O    8.156909   0.390817  -0.033339  -0.005941  -0.000049   0.000003
     2  S    0.390817  13.944391   0.206887  -0.038904  -0.000636  -0.000140
     3  N   -0.033339   0.206887   6.835967   0.267461  -0.068956   0.006554
     4  C   -0.005941  -0.038904   0.267461   5.197779   0.262320   0.107959
     5  C   -0.000049  -0.000636  -0.068956   0.262320   5.134584   0.313802
     6  C    0.000003  -0.000140   0.006554   0.107959   0.313802   5.004487
     7  C   -0.000035   0.000010  -0.000470  -0.162331   0.084591   0.287207
     8  C    0.002274  -0.000941   0.007554   0.106447  -0.145419   0.095165
     9  C   -0.021200   0.001294  -0.086345   0.255765   0.075829  -0.144653
    10  C   -0.059286   0.227588  -0.092417   0.008331  -0.000722  -0.000001
    11  C   -0.000698  -0.023199  -0.004629  -0.000290  -0.000010   0.000000
    12  C   -0.000032   0.002863  -0.000113  -0.000020   0.000001   0.000000
    13  C   -0.000026   0.000890  -0.000006   0.000005  -0.000000  -0.000000
    14  C   -0.000000   0.000007  -0.000000  -0.000000   0.000000   0.000000
    15  C    0.000749  -0.001285  -0.000388   0.000025   0.000000  -0.000000
    16  C    0.007163  -0.041565   0.007210   0.000007   0.000071  -0.000000
    17  O   -0.027266   0.430235  -0.056576   0.004345  -0.000215  -0.000001
    18  H    0.002480  -0.006392   0.325004  -0.005074  -0.012838   0.000293
    19  H    0.000004  -0.000129  -0.009468  -0.081082   0.450799  -0.059475
    20  H   -0.000000   0.000004  -0.000113   0.015551  -0.069574   0.453941
    21  H    0.000000   0.000000   0.000011  -0.001412   0.014395  -0.070440
    22  H    0.000016   0.000000  -0.000107   0.015241  -0.001958   0.014140
    23  H    0.035819  -0.009237  -0.013952  -0.070336   0.013165  -0.002205
    24  H    0.000203  -0.012486   0.000671  -0.000084   0.000002   0.000000
    25  H    0.000001  -0.000159   0.000004  -0.000000   0.000000   0.000000
    26  H    0.000000  -0.000000   0.000000  -0.000000   0.000000  -0.000000
    27  H   -0.000000  -0.000000   0.000000  -0.000000   0.000000   0.000000
    28  H    0.000000   0.000000  -0.000000   0.000000  -0.000000  -0.000000
    29  H   -0.000005  -0.000156   0.000000  -0.000001   0.000000   0.000000
    30  H    0.006590  -0.005637   0.001253   0.000183  -0.000002  -0.000001
               7          8          9         10         11         12
     1  O   -0.000035   0.002274  -0.021200  -0.059286  -0.000698  -0.000032
     2  S    0.000010  -0.000941   0.001294   0.227588  -0.023199   0.002863
     3  N   -0.000470   0.007554  -0.086345  -0.092417  -0.004629  -0.000113
     4  C   -0.162331   0.106447   0.255765   0.008331  -0.000290  -0.000020
     5  C    0.084591  -0.145419   0.075829  -0.000722  -0.000010   0.000001
     6  C    0.287207   0.095165  -0.144653  -0.000001   0.000000   0.000000
     7  C    5.105549   0.272308   0.087586   0.000001  -0.000000  -0.000000
     8  C    0.272308   5.056409   0.261316  -0.000049   0.000000   0.000000
     9  C    0.087586   0.261316   5.223761  -0.000873  -0.000044   0.000001
    10  C    0.000001  -0.000049  -0.000873   5.758124   0.284300   0.087042
    11  C   -0.000000   0.000000  -0.000044   0.284300   5.054081   0.264939
    12  C   -0.000000   0.000000   0.000001   0.087042   0.264939   5.117498
    13  C    0.000000  -0.000000  -0.000000  -0.184047   0.099156   0.281570
    14  C   -0.000000   0.000000  -0.000000   0.000574   0.009470  -0.077162
    15  C   -0.000000   0.000000   0.000003   0.086777  -0.122640   0.051988
    16  C    0.000000   0.000005   0.000039   0.166928   0.042748  -0.122461
    17  O    0.000000  -0.000053  -0.000365  -0.070874   0.005176   0.001564
    18  H   -0.000026  -0.000110   0.003915   0.002458   0.001838  -0.000026
    19  H    0.014885  -0.002251   0.016856   0.000000  -0.000008  -0.000000
    20  H   -0.069201   0.013822  -0.001905  -0.000000   0.000000   0.000000
    21  H    0.451513  -0.067801   0.014713   0.000000   0.000000   0.000000
    22  H   -0.074286   0.457599  -0.067282  -0.000001   0.000000   0.000000
    23  H    0.013698  -0.051814   0.450657   0.001326  -0.000068  -0.000002
    24  H   -0.000000   0.000000   0.000002  -0.068310   0.446649  -0.052685
    25  H    0.000000  -0.000000   0.000000   0.016757  -0.066497   0.461111
    26  H   -0.000000   0.000000  -0.000000   0.000001  -0.000540   0.007627
    27  H   -0.000000   0.000000  -0.000000   0.000002   0.000765  -0.008527
    28  H    0.000000  -0.000000   0.000000   0.000125  -0.000213  -0.003750
    29  H    0.000000  -0.000000   0.000000   0.016269  -0.002040   0.014627
    30  H   -0.000002   0.000005   0.000030  -0.081293   0.011752  -0.001398
              13         14         15         16         17         18
     1  O   -0.000026  -0.000000   0.000749   0.007163  -0.027266   0.002480
     2  S    0.000890   0.000007  -0.001285  -0.041565   0.430235  -0.006392
     3  N   -0.000006  -0.000000  -0.000388   0.007210  -0.056576   0.325004
     4  C    0.000005  -0.000000   0.000025   0.000007   0.004345  -0.005074
     5  C   -0.000000   0.000000   0.000000   0.000071  -0.000215  -0.012838
     6  C   -0.000000   0.000000  -0.000000  -0.000000  -0.000001   0.000293
     7  C    0.000000  -0.000000  -0.000000   0.000000   0.000000  -0.000026
     8  C   -0.000000   0.000000   0.000000   0.000005  -0.000053  -0.000110
     9  C   -0.000000  -0.000000   0.000003   0.000039  -0.000365   0.003915
    10  C   -0.184047   0.000574   0.086777   0.166928  -0.070874   0.002458
    11  C    0.099156   0.009470  -0.122640   0.042748   0.005176   0.001838
    12  C    0.281570  -0.077162   0.051988  -0.122461   0.001564  -0.000026
    13  C    5.261998   0.407576   0.295998   0.087175  -0.000037   0.000006
    14  C    0.407576   4.549548  -0.077084   0.010348   0.000000  -0.000000
    15  C    0.295998  -0.077084   5.043029   0.334617   0.000019  -0.000030
    16  C    0.087175   0.010348   0.334617   5.062682   0.004643  -0.001460
    17  O   -0.000037   0.000000   0.000019   0.004643   8.158223   0.013205
    18  H    0.000006  -0.000000  -0.000030  -0.001460   0.013205   0.511500
    19  H    0.000000   0.000000   0.000001   0.000019  -0.000020   0.003100
    20  H   -0.000000  -0.000000   0.000000  -0.000000  -0.000000  -0.000024
    21  H    0.000000   0.000000   0.000000   0.000000   0.000000  -0.000001
    22  H    0.000000  -0.000000   0.000000   0.000000   0.000000   0.000013
    23  H    0.000001   0.000000   0.000005  -0.000063   0.000427  -0.000679
    24  H    0.013698  -0.000207  -0.001895   0.013528   0.018240   0.000092
    25  H   -0.077384  -0.013472   0.014469  -0.001997  -0.000009  -0.000002
    26  H   -0.018589   0.392325  -0.009125   0.000842   0.000000  -0.000000
    27  H   -0.018626   0.392338   0.007062  -0.000505   0.000000  -0.000000
    28  H   -0.012174   0.389582  -0.002800  -0.000391  -0.000000   0.000000
    29  H   -0.075268  -0.013851   0.459976  -0.066298   0.000000   0.000000
    30  H    0.014131  -0.000245  -0.047255   0.450847   0.000211   0.000024
              19         20         21         22         23         24
     1  O    0.000004  -0.000000   0.000000   0.000016   0.035819   0.000203
     2  S   -0.000129   0.000004   0.000000   0.000000  -0.009237  -0.012486
     3  N   -0.009468  -0.000113   0.000011  -0.000107  -0.013952   0.000671
     4  C   -0.081082   0.015551  -0.001412   0.015241  -0.070336  -0.000084
     5  C    0.450799  -0.069574   0.014395  -0.001958   0.013165   0.000002
     6  C   -0.059475   0.453941  -0.070440   0.014140  -0.002205   0.000000
     7  C    0.014885  -0.069201   0.451513  -0.074286   0.013698  -0.000000
     8  C   -0.002251   0.013822  -0.067801   0.457599  -0.051814   0.000000
     9  C    0.016856  -0.001905   0.014713  -0.067282   0.450657   0.000002
    10  C    0.000000  -0.000000   0.000000  -0.000001   0.001326  -0.068310
    11  C   -0.000008   0.000000   0.000000   0.000000  -0.000068   0.446649
    12  C   -0.000000   0.000000   0.000000   0.000000  -0.000002  -0.052685
    13  C    0.000000  -0.000000   0.000000   0.000000   0.000001   0.013698
    14  C    0.000000  -0.000000   0.000000  -0.000000   0.000000  -0.000207
    15  C    0.000001   0.000000   0.000000   0.000000   0.000005  -0.001895
    16  C    0.000019  -0.000000   0.000000   0.000000  -0.000063   0.013528
    17  O   -0.000020  -0.000000   0.000000   0.000000   0.000427   0.018240
    18  H    0.003100  -0.000024  -0.000001   0.000013  -0.000679   0.000092
    19  H    0.687613  -0.013190  -0.000233   0.000023  -0.000085  -0.000001
    20  H   -0.013190   0.668908  -0.012397  -0.000258   0.000011   0.000000
    21  H   -0.000233  -0.012397   0.673583  -0.012025  -0.000189  -0.000000
    22  H    0.000023  -0.000258  -0.012025   0.665519  -0.012712  -0.000000
    23  H   -0.000085   0.000011  -0.000189  -0.012712   0.605229  -0.000009
    24  H   -0.000001   0.000000  -0.000000  -0.000000  -0.000009   0.619483
    25  H    0.000000   0.000000  -0.000000  -0.000000  -0.000000  -0.011208
    26  H    0.000000   0.000000   0.000000   0.000000   0.000000   0.000007
    27  H    0.000000   0.000000   0.000000   0.000000   0.000000  -0.000002
    28  H   -0.000000  -0.000000  -0.000000  -0.000000  -0.000000   0.000002
    29  H   -0.000000   0.000000  -0.000000  -0.000000  -0.000001   0.000022
    30  H   -0.000003  -0.000000  -0.000000   0.000000  -0.000175  -0.000235
              25         26         27         28         29         30
     1  O    0.000001   0.000000  -0.000000   0.000000  -0.000005   0.006590
     2  S   -0.000159  -0.000000  -0.000000   0.000000  -0.000156  -0.005637
     3  N    0.000004   0.000000   0.000000  -0.000000   0.000000   0.001253
     4  C   -0.000000  -0.000000  -0.000000   0.000000  -0.000001   0.000183
     5  C    0.000000   0.000000   0.000000  -0.000000   0.000000  -0.000002
     6  C    0.000000  -0.000000   0.000000  -0.000000   0.000000  -0.000001
     7  C    0.000000  -0.000000  -0.000000   0.000000   0.000000  -0.000002
     8  C   -0.000000   0.000000   0.000000  -0.000000  -0.000000   0.000005
     9  C    0.000000  -0.000000  -0.000000   0.000000   0.000000   0.000030
    10  C    0.016757   0.000001   0.000002   0.000125   0.016269  -0.081293
    11  C   -0.066497  -0.000540   0.000765  -0.000213  -0.002040   0.011752
    12  C    0.461111   0.007627  -0.008527  -0.003750   0.014627  -0.001398
    13  C   -0.077384  -0.018589  -0.018626  -0.012174  -0.075268   0.014131
    14  C   -0.013472   0.392325   0.392338   0.389582  -0.013851  -0.000245
    15  C    0.014469  -0.009125   0.007062  -0.002800   0.459976  -0.047255
    16  C   -0.001997   0.000842  -0.000505  -0.000391  -0.066298   0.450847
    17  O   -0.000009   0.000000   0.000000  -0.000000   0.000000   0.000211
    18  H   -0.000002  -0.000000  -0.000000   0.000000   0.000000   0.000024
    19  H    0.000000   0.000000   0.000000  -0.000000  -0.000000  -0.000003
    20  H    0.000000   0.000000   0.000000  -0.000000   0.000000  -0.000000
    21  H   -0.000000   0.000000   0.000000  -0.000000  -0.000000  -0.000000
    22  H   -0.000000   0.000000   0.000000  -0.000000  -0.000000   0.000000
    23  H   -0.000000   0.000000   0.000000  -0.000000  -0.000001  -0.000175
    24  H   -0.011208   0.000007  -0.000002   0.000002   0.000022  -0.000235
    25  H    0.665955   0.000158   0.004322   0.000780  -0.000224   0.000025
    26  H    0.000158   0.619702  -0.022136  -0.017278   0.004600   0.000000
    27  H    0.004322  -0.022136   0.617892  -0.017135   0.000158   0.000008
    28  H    0.000780  -0.017278  -0.017135   0.598980   0.000695   0.000004
    29  H   -0.000224   0.004600   0.000158   0.000695   0.664809  -0.011773
    30  H    0.000025   0.000000   0.000008   0.000004  -0.011773   0.637328
 Mulliken charges:
               1
     1  O   -0.455149
     2  S    0.935881
     3  N   -0.291698
     4  C    0.124056
     5  C   -0.049182
     6  C   -0.006637
     7  C   -0.010998
     8  C   -0.004467
     9  C   -0.069100
    10  C   -0.098730
    11  C    0.000000
    12  C   -0.024656
    13  C   -0.076048
    14  C    0.030253
    15  C   -0.032217
    16  C    0.045869
    17  O   -0.480872
    18  H    0.162732
    19  H   -0.007356
    20  H    0.014426
    21  H    0.010283
    22  H    0.016076
    23  H    0.041191
    24  H    0.034522
    25  H    0.007370
    26  H    0.042406
    27  H    0.044384
    28  H    0.063572
    29  H    0.008461
    30  H    0.025626
 Sum of Mulliken charges =  -0.00000
 Mulliken charges with hydrogens summed into heavy atoms:
               1
     1  O   -0.455149
     2  S    0.935881
     3  N   -0.128966
     4  C    0.124056
     5  C   -0.056538
     6  C    0.007789
     7  C   -0.000715
     8  C    0.011610
     9  C   -0.027909
    10  C   -0.098730
    11  C    0.034522
    12  C   -0.017286
    13  C   -0.076048
    14  C    0.180616
    15  C   -0.023756
    16  C    0.071495
    17  O   -0.480872
 APT charges:
               1
     1  O   -0.172097
     2  S    0.158281
     3  N   -0.414527
     4  C   -0.730389
     5  C   -0.387957
     6  C   -0.485598
     7  C   -0.644011
     8  C   -0.462193
     9  C   -0.328367
    10  C   -0.527556
    11  C   -0.365667
    12  C   -0.710776
    13  C    0.210709
    14  C   -1.069152
    15  C   -0.623975
    16  C   -0.343162
    17  O   -0.039716
    18  H    0.447653
    19  H    0.259119
    20  H    0.900696
    21  H    1.093251
    22  H    0.691881
    23  H    0.054780
    24  H    0.380806
    25  H    0.801111
    26  H    0.504204
    27  H    0.719387
    28  H    0.413548
    29  H    0.552718
    30  H    0.116998
 Sum of APT charges =  -0.00000
 APT charges with hydrogens summed into heavy atoms:
               1
     1  O   -0.172097
     2  S    0.158281
     3  N    0.033127
     4  C   -0.730389
     5  C   -0.128838
     6  C    0.415099
     7  C    0.449239
     8  C    0.229688
     9  C   -0.273587
    10  C   -0.527556
    11  C    0.015139
    12  C    0.090335
    13  C    0.210709
    14  C    0.567988
    15  C   -0.071257
    16  C   -0.226164
    17  O   -0.039716
 Electronic spatial extent (au):  <R**2>=           5467.1900
 Charge=              0.0000 electrons
 Dipole moment (field-independent basis, Debye):
    X=             -2.3651    Y=             -3.4994    Z=             -1.6162  Tot=              4.5223
 Quadrupole moment (field-independent basis, Debye-Ang):
   XX=            -86.2917   YY=           -112.7047   ZZ=           -103.7596
   XY=              0.6388   XZ=              1.0006   YZ=             -0.7413
 Traceless Quadrupole moment (field-independent basis, Debye-Ang):
   XX=             14.6269   YY=            -11.7860   ZZ=             -2.8409
   XY=              0.6388   XZ=              1.0006   YZ=             -0.7413
 Octapole moment (field-independent basis, Debye-Ang**2):
  XXX=            -40.7517  YYY=             -6.0979  ZZZ=            -10.4724  XYY=            -15.0864
  XXY=            -22.7279  XXZ=             -1.9762  XZZ=              7.1170  YZZ=             -5.1098
  YYZ=              3.7646  XYZ=             16.5672
 Hexadecapole moment (field-independent basis, Debye-Ang**3):
 XXXX=          -5432.1157 YYYY=           -973.5831 ZZZZ=           -534.2309 XXXY=            -16.9988
 XXXZ=             97.4723 YYYX=             29.3080 YYYZ=             13.3905 ZZZX=              3.4230
 ZZZY=             -2.1404 XXYY=          -1113.1942 XXZZ=          -1051.8337 YYZZ=           -244.4466
 XXYZ=              8.4971 YYXZ=            -19.8388 ZZXY=             -3.0201
 N-N= 1.294618205526D+03 E-N=-5.177990571178D+03  KE= 1.097917183035D+03
  Exact polarizability:       0.000       0.000       0.000       0.000       0.000       0.000
 Approx polarizability:     209.008      -6.123     160.398      21.725      -5.371     176.884
   1 Symmetry operations used in ECPInt.
 ECPInt:  NShTT=   10296 NPrTT=   38220 LenC2=    9224 LenP2D=   24178.
 LDataN:  DoStor=T MaxTD1= 6 Len=  172
 Calling FoFJK, ICntrl=    100127 FMM=F ISym2X=0 I1Cent= 0 IOpClX= 0 NMat=1 NMatS=1 NMatT=0.
 ***** Axes restored to original set *****
 -------------------------------------------------------------------
 Center     Atomic                   Forces (Hartrees/Bohr)
 Number     Number              X              Y              Z
 -------------------------------------------------------------------
      1        8          -0.007517475   -0.022132438   -0.050782956
      2       16          -0.031450118    0.034282215   -0.004625179
      3        7          -0.001900494    0.024048507    0.026657829
      4        6           0.030489964   -0.007267649    0.005962360
      5        6          -0.014957901    0.005970626   -0.001641069
      6        6           0.003421560   -0.000306890    0.001071413
      7        6           0.007585753   -0.000909219    0.002820683
      8        6           0.004953579   -0.005756098   -0.001741190
      9        6          -0.012944887    0.001160702   -0.002874274
     10        6           0.009614658    0.011098148   -0.004904367
     11        6          -0.000486806    0.007218267   -0.009942967
     12        6           0.000976334   -0.001248083    0.002878213
     13        6          -0.004083410   -0.002248304   -0.001987994
     14        6          -0.004239959    0.001424186    0.002970800
     15        6           0.003186597    0.002339141   -0.001029282
     16        6           0.004338336   -0.004734002    0.010963122
     17        8           0.006939312   -0.023520692    0.045576706
     18        1          -0.000062571   -0.007642175   -0.020664340
     19        1          -0.004251298   -0.007902049   -0.009609540
     20        1           0.004938598   -0.007663564   -0.005123893
     21        1           0.010072434   -0.001906539    0.002869837
     22        1           0.002818777    0.006389471    0.007457292
     23        1           0.000042878    0.005939649    0.005465146
     24        1           0.001398487    0.006508688   -0.008153684
     25        1          -0.007966137    0.003300172   -0.008003942
     26        1          -0.001388008   -0.002546198    0.005452550
     27        1          -0.004943306    0.002497199   -0.002877106
     28        1          -0.000863665   -0.006684515   -0.003737755
     29        1          -0.000693597   -0.006717313    0.009616668
     30        1           0.006972367   -0.002991245    0.007936922
 -------------------------------------------------------------------
 Cartesian Forces:  Max     0.050782956 RMS     0.012114552
 FormGI is forming the generalized inverse of G from B-inverse, IUseBI=4.

 GradGradGradGradGradGradGradGradGradGradGradGradGradGradGradGradGradGrad
 Berny optimization.
 Internal  Forces:  Max     0.058481635 RMS     0.010722971
 Search for a local minimum.
 Step number   1 out of a maximum of  162
 All quantities printed in internal units (Hartrees-Bohrs-Radians)
 Mixed Optimization -- RFO/linear search
 Second derivative matrix not updated -- analytic derivatives used.
 ITU=  0
     Eigenvalues ---   -0.01612  -0.00589  -0.00003   0.00122   0.01455
     Eigenvalues ---    0.01628   0.01760   0.01844   0.01853   0.01868
     Eigenvalues ---    0.01972   0.02097   0.02248   0.02445   0.02468
     Eigenvalues ---    0.02488   0.02707   0.02751   0.02945   0.03009
     Eigenvalues ---    0.03034   0.03071   0.03193   0.05657   0.05781
     Eigenvalues ---    0.09027   0.11310   0.11529   0.11686   0.11742
     Eigenvalues ---    0.11780   0.12078   0.12278   0.12449   0.12454
     Eigenvalues ---    0.12845   0.13003   0.13662   0.14625   0.14935
     Eigenvalues ---    0.16020   0.16679   0.17361   0.18688   0.18944
     Eigenvalues ---    0.19541   0.19600   0.19970   0.20385   0.21017
     Eigenvalues ---    0.21279   0.21592   0.24476   0.31779   0.32624
     Eigenvalues ---    0.33560   0.35944   0.36513   0.36614   0.36854
     Eigenvalues ---    0.39108   0.39399   0.39466   0.39529   0.39590
     Eigenvalues ---    0.39709   0.39747   0.39769   0.39870   0.40133
     Eigenvalues ---    0.44960   0.46217   0.46386   0.46749   0.47650
     Eigenvalues ---    0.48410   0.51737   0.52395   0.52982   0.53229
     Eigenvalues ---    0.53808   0.57014   0.57154   1.13332
 RFO step:  Lambda=-3.58172981D-02 EMin=-1.61230413D-02
 Linear search not attempted -- first point.
 Maximum step size (   0.300) exceeded in Quadratic search.
    -- Step size scaled by   0.865
 Iteration  1 RMS(Cart)=  0.25764615 RMS(Int)=  0.02556348
 Iteration  2 RMS(Cart)=  0.10137552 RMS(Int)=  0.00270135
 Iteration  3 RMS(Cart)=  0.00563572 RMS(Int)=  0.00075879
 Iteration  4 RMS(Cart)=  0.00001473 RMS(Int)=  0.00075877
 Iteration  5 RMS(Cart)=  0.00000001 RMS(Int)=  0.00075877
 Variable       Old X    -DE/DX   Delta X   Delta X   Delta X     New X
                                 (Linear)    (Quad)   (Total)
    R1        2.83682  -0.05565   0.00000  -0.09343  -0.09343   2.74339
    R2        3.22749   0.00895   0.00000  -0.04741  -0.04741   3.18008
    R3        3.39407  -0.00486   0.00000  -0.02438  -0.02438   3.36969
    R4        2.83798  -0.05126   0.00000  -0.09178  -0.09178   2.74620
    R5        2.63789   0.03322   0.00000   0.04662   0.04662   2.68451
    R6        1.88569   0.02078   0.00000   0.02945   0.02945   1.91515
    R7        2.64683   0.00463   0.00000   0.00220   0.00224   2.64907
    R8        2.64646   0.00726   0.00000   0.00160   0.00164   2.64810
    R9        2.59858   0.01573   0.00000   0.02207   0.02207   2.62065
   R10        2.03287   0.01310   0.00000   0.02488   0.02488   2.05775
   R11        2.60890   0.01075   0.00000   0.02039   0.02035   2.62925
   R12        2.03634   0.01041   0.00000   0.02101   0.02101   2.05734
   R13        2.60827   0.01218   0.00000   0.01758   0.01755   2.62582
   R14        2.03620   0.01064   0.00000   0.02045   0.02045   2.05665
   R15        2.59634   0.01987   0.00000   0.03024   0.03024   2.62658
   R16        2.03650   0.01013   0.00000   0.02087   0.02087   2.05737
   R17        2.02967   0.00659   0.00000   0.02074   0.02074   2.05041
   R18        2.59642   0.01659   0.00000   0.02529   0.02530   2.62172
   R19        2.59615   0.01948   0.00000   0.03052   0.03053   2.62668
   R20        2.60808   0.01279   0.00000   0.01952   0.01952   2.62759
   R21        2.03674   0.01052   0.00000   0.01970   0.01970   2.05644
   R22        2.62195   0.01400   0.00000   0.01762   0.01762   2.63957
   R23        2.03396   0.01168   0.00000   0.02361   0.02361   2.05757
   R24        2.81169   0.01272   0.00000   0.02489   0.02489   2.83658
   R25        2.62230   0.01609   0.00000   0.02314   0.02313   2.64543
   R26        2.06045   0.00602   0.00000   0.01258   0.01258   2.07303
   R27        2.06047   0.00608   0.00000   0.01276   0.01276   2.07323
   R28        2.06036   0.00768   0.00000   0.01672   0.01672   2.07708
   R29        2.60826   0.00975   0.00000   0.01282   0.01283   2.62109
   R30        2.03394   0.01167   0.00000   0.02359   0.02359   2.05753
   R31        2.03635   0.01082   0.00000   0.01977   0.01977   2.05613
    A1        2.01842  -0.00898   0.00000  -0.14074  -0.14087   1.87755
    A2        1.84828   0.00014   0.00000   0.03036   0.03227   1.88054
    A3        2.13359  -0.00180   0.00000   0.00738   0.00666   2.14025
    A4        1.67591   0.01890   0.00000   0.05229   0.05190   1.72781
    A5        1.85113  -0.00184   0.00000   0.06641   0.06523   1.91636
    A6        1.87618  -0.00055   0.00000   0.00291   0.00038   1.87656
    A7        2.08600   0.05848   0.00000   0.06078   0.05945   2.14545
    A8        1.77725  -0.01321   0.00000   0.08685   0.08685   1.86410
    A9        2.00461  -0.02108   0.00000  -0.06375  -0.06788   1.93672
   A10        2.07692  -0.02573   0.00000  -0.05273  -0.05301   2.02391
   A11        2.15659   0.02408   0.00000   0.03097   0.03062   2.18720
   A12        2.04960   0.00163   0.00000   0.02229   0.02206   2.07166
   A13        2.11368   0.00290   0.00000  -0.00451  -0.00450   2.10918
   A14        2.06885  -0.00031   0.00000   0.00706   0.00705   2.07590
   A15        2.10065  -0.00258   0.00000  -0.00257  -0.00260   2.09806
   A16        2.09821   0.00039   0.00000  -0.00009  -0.00014   2.09807
   A17        2.09268  -0.00124   0.00000  -0.00506  -0.00503   2.08765
   A18        2.09229   0.00085   0.00000   0.00515   0.00517   2.09746
   A19        2.09176  -0.00546   0.00000  -0.01010  -0.01019   2.08156
   A20        2.09586   0.00234   0.00000   0.00466   0.00469   2.10055
   A21        2.09557   0.00312   0.00000   0.00545   0.00548   2.10105
   A22        2.09665   0.00494   0.00000   0.01567   0.01560   2.11226
   A23        2.09375  -0.00108   0.00000  -0.00040  -0.00039   2.09336
   A24        2.09278  -0.00386   0.00000  -0.01527  -0.01526   2.07752
   A25        2.11645  -0.00440   0.00000  -0.02309  -0.02305   2.09340
   A26        2.07122   0.00692   0.00000   0.02229   0.02226   2.09349
   A27        2.09551  -0.00253   0.00000   0.00081   0.00079   2.09630
   A28        2.09267  -0.00243   0.00000  -0.00667  -0.00671   2.08596
   A29        2.08981  -0.00150   0.00000  -0.00402  -0.00406   2.08575
   A30        2.10071   0.00393   0.00000   0.01070   0.01068   2.11139
   A31        2.09314  -0.00417   0.00000  -0.01136  -0.01135   2.08179
   A32        2.07801   0.00255   0.00000   0.00748   0.00748   2.08549
   A33        2.11203   0.00162   0.00000   0.00387   0.00386   2.11589
   A34        2.10382   0.00228   0.00000   0.00706   0.00705   2.11087
   A35        2.09636  -0.00245   0.00000  -0.00970  -0.00970   2.08667
   A36        2.08300   0.00017   0.00000   0.00264   0.00264   2.08564
   A37        2.10474   0.00031   0.00000   0.00196   0.00197   2.10671
   A38        2.07178  -0.00038   0.00000  -0.00260  -0.00262   2.06916
   A39        2.10627   0.00008   0.00000   0.00074   0.00075   2.10701
   A40        1.94003   0.00110   0.00000   0.00375   0.00374   1.94377
   A41        1.93904   0.00104   0.00000   0.00361   0.00359   1.94263
   A42        1.93349   0.00015   0.00000  -0.00231  -0.00231   1.93118
   A43        1.87853  -0.00009   0.00000   0.00574   0.00571   1.88424
   A44        1.88514  -0.00114   0.00000  -0.00527  -0.00527   1.87987
   A45        1.88533  -0.00118   0.00000  -0.00581  -0.00581   1.87952
   A46        2.10497   0.00233   0.00000   0.00737   0.00737   2.11234
   A47        2.08253   0.00020   0.00000   0.00167   0.00167   2.08420
   A48        2.09568  -0.00253   0.00000  -0.00904  -0.00904   2.08664
   A49        2.09188  -0.00398   0.00000  -0.01110  -0.01109   2.08080
   A50        2.08164   0.00386   0.00000   0.00866   0.00865   2.09029
   A51        2.10965   0.00012   0.00000   0.00244   0.00243   2.11208
    D1       -0.56979   0.00561   0.00000  -0.21294  -0.21220  -0.78199
    D2       -2.79929   0.00449   0.00000  -0.24604  -0.24912  -3.04842
    D3       -2.50480  -0.00236   0.00000  -0.23511  -0.23116  -2.73597
    D4        1.54888  -0.00349   0.00000  -0.26822  -0.26809   1.28079
    D5        1.85536  -0.00790   0.00000  -0.27077  -0.26972   1.58564
    D6       -0.37414  -0.00903   0.00000  -0.30387  -0.30665  -0.68079
    D7        2.26756   0.00000   0.00000   0.05096   0.05090   2.31845
    D8       -0.87502   0.00052   0.00000   0.06588   0.06574  -0.80928
    D9       -1.94122  -0.00238   0.00000  -0.07204  -0.07191  -2.01313
   D10        1.19939  -0.00186   0.00000  -0.05711  -0.05706   1.14233
   D11       -0.03944   0.00251   0.00000   0.01908   0.01913  -0.02031
   D12        3.10117   0.00303   0.00000   0.03400   0.03397   3.13514
   D13       -2.87255  -0.00560   0.00000  -0.24604  -0.24426  -3.11681
   D14        0.28319  -0.00472   0.00000  -0.29221  -0.28995  -0.00675
   D15       -0.75267   0.00726   0.00000  -0.12616  -0.12843  -0.88110
   D16        2.40307   0.00815   0.00000  -0.17233  -0.17411   2.22896
   D17       -3.13468   0.00040   0.00000  -0.02114  -0.02011   3.12839
   D18        0.00397   0.00043   0.00000  -0.02839  -0.02756  -0.02359
   D19       -0.00637  -0.00022   0.00000   0.02232   0.02251   0.01613
   D20        3.13228  -0.00020   0.00000   0.01507   0.01506  -3.13584
   D21        3.13409  -0.00108   0.00000   0.01455   0.01576  -3.13333
   D22       -0.00863  -0.00088   0.00000   0.01857   0.01952   0.01089
   D23        0.00644   0.00000   0.00000  -0.03038  -0.03050  -0.02406
   D24       -3.13628   0.00020   0.00000  -0.02635  -0.02675   3.12016
   D25        0.00244   0.00022   0.00000  -0.00122  -0.00084   0.00160
   D26       -3.13936   0.00010   0.00000  -0.00467  -0.00456   3.13927
   D27       -3.13616   0.00020   0.00000   0.00615   0.00669  -3.12948
   D28        0.00522   0.00007   0.00000   0.00270   0.00297   0.00819
   D29        0.00168  -0.00004   0.00000  -0.01303  -0.01309  -0.01141
   D30       -3.14051  -0.00007   0.00000  -0.00447  -0.00463   3.13805
   D31       -3.13971   0.00008   0.00000  -0.00959  -0.00935   3.13413
   D32        0.00129   0.00006   0.00000  -0.00103  -0.00089   0.00040
   D33       -0.00162  -0.00015   0.00000   0.00514   0.00492   0.00330
   D34        3.14089  -0.00000   0.00000   0.01496   0.01496  -3.12734
   D35        3.14057  -0.00012   0.00000  -0.00342  -0.00354   3.13702
   D36       -0.00011   0.00002   0.00000   0.00640   0.00650   0.00639
   D37       -0.00256   0.00018   0.00000   0.01718   0.01721   0.01465
   D38        3.14018  -0.00003   0.00000   0.01309   0.01343  -3.12957
   D39        3.13812   0.00003   0.00000   0.00737   0.00726  -3.13781
   D40       -0.00233  -0.00017   0.00000   0.00328   0.00349   0.00115
   D41       -3.14151   0.00019   0.00000   0.01230   0.01232  -3.12919
   D42       -0.00269   0.00017   0.00000   0.00996   0.00998   0.00729
   D43        0.00107  -0.00033   0.00000  -0.00271  -0.00274  -0.00167
   D44        3.13989  -0.00035   0.00000  -0.00504  -0.00508   3.13481
   D45        3.14149  -0.00015   0.00000  -0.01195  -0.01199   3.12950
   D46        0.00458  -0.00019   0.00000  -0.01123  -0.01127  -0.00668
   D47       -0.00109   0.00036   0.00000   0.00304   0.00307   0.00198
   D48       -3.13799   0.00033   0.00000   0.00375   0.00379  -3.13421
   D49        0.00581  -0.00007   0.00000  -0.00210  -0.00210   0.00370
   D50       -3.13709  -0.00013   0.00000  -0.00299  -0.00299  -3.14008
   D51       -3.13295  -0.00004   0.00000   0.00028   0.00027  -3.13268
   D52        0.00734  -0.00011   0.00000  -0.00062  -0.00062   0.00672
   D53       -3.12386   0.00014   0.00000   0.00256   0.00256  -3.12130
   D54       -0.01242   0.00043   0.00000   0.00648   0.00648  -0.00594
   D55        0.01902   0.00021   0.00000   0.00346   0.00346   0.02248
   D56        3.13047   0.00049   0.00000   0.00738   0.00738   3.13784
   D57       -2.66465  -0.00049   0.00000  -0.00343  -0.00344  -2.66809
   D58       -0.57320   0.00083   0.00000   0.00873   0.00875  -0.56446
   D59        1.52246   0.00013   0.00000   0.00227   0.00227   1.52473
   D60        0.50770  -0.00077   0.00000  -0.00737  -0.00739   0.50031
   D61        2.59914   0.00054   0.00000   0.00479   0.00480   2.60394
   D62       -1.58838  -0.00015   0.00000  -0.00167  -0.00167  -1.59006
   D63        0.01241  -0.00039   0.00000  -0.00615  -0.00614   0.00627
   D64       -3.13073  -0.00046   0.00000  -0.00714  -0.00713  -3.13787
   D65        3.12383  -0.00010   0.00000  -0.00221  -0.00221   3.12162
   D66       -0.01932  -0.00017   0.00000  -0.00319  -0.00320  -0.02252
   D67       -0.00578  -0.00000   0.00000   0.00145   0.00145  -0.00433
   D68        3.13105   0.00004   0.00000   0.00073   0.00073   3.13179
   D69        3.13738   0.00007   0.00000   0.00243   0.00243   3.13981
   D70       -0.00898   0.00011   0.00000   0.00172   0.00172  -0.00726
         Item               Value     Threshold  Converged?
 Maximum Force            0.058482     0.000450     NO 
 RMS     Force            0.010723     0.000300     NO 
 Maximum Displacement     1.348071     0.001800     NO 
 RMS     Displacement     0.342868     0.001200     NO 
 Predicted change in Energy=-2.377033D-02
 GradGradGradGradGradGradGradGradGradGradGradGradGradGradGradGradGradGrad

                          Input orientation:                          
 ---------------------------------------------------------------------
 Center     Atomic      Atomic             Coordinates (Angstroms)
 Number     Number       Type             X           Y           Z
 ---------------------------------------------------------------------
      1          8           0        0.328591    1.451650    1.383643
      2         16           0       -0.014637    1.069953    0.025686
      3          7           0        0.903532   -0.283941   -0.369081
      4          6           0        2.289820   -0.388693   -0.077054
      5          6           0        2.918280   -1.568761   -0.498473
      6          6           0        4.272771   -1.770288   -0.279562
      7          6           0        5.029683   -0.798256    0.367015
      8          6           0        4.416073    0.379078    0.777063
      9          6           0        3.061363    0.596036    0.554380
     10          6           0       -1.627704    0.310948    0.065661
     11          6           0       -2.587709    0.696688   -0.858646
     12          6           0       -3.848616    0.112339   -0.813560
     13          6           0       -4.160030   -0.850455    0.149296
     14          6           0       -5.514576   -1.496673    0.176941
     15          6           0       -3.171208   -1.222578    1.067709
     16          6           0       -1.909959   -0.646497    1.032959
     17          8           0       -0.002081    2.012746   -1.080140
     18          1           0        0.722313   -0.486344   -1.345441
     19          1           0        2.323564   -2.334314   -0.994435
     20          1           0        4.739894   -2.695300   -0.613350
     21          1           0        6.092140   -0.955419    0.542949
     22          1           0        5.000701    1.152687    1.272072
     23          1           0        2.599760    1.525585    0.870850
     24          1           0       -2.342627    1.453145   -1.601566
     25          1           0       -4.605052    0.410657   -1.537676
     26          1           0       -5.777701   -1.830373    1.188288
     27          1           0       -6.293820   -0.803774   -0.164100
     28          1           0       -5.537987   -2.376107   -0.481971
     29          1           0       -3.397682   -1.974343    1.822057
     30          1           0       -1.144436   -0.929325    1.752578
 ---------------------------------------------------------------------
                    Distance matrix (angstroms):
                    1          2          3          4          5
     1  O    0.000000
     2  S    1.451738   0.000000
     3  N    2.532760   1.682826   0.000000
     4  C    3.060542   2.729236   1.420580   0.000000
     5  C    4.401333   3.979894   2.393056   1.401826   0.000000
     6  C    5.357583   5.151894   3.683614   2.425264   1.386788
     7  C    5.309979   5.389979   4.222733   2.805670   2.408479
     8  C    4.269176   4.546764   3.753822   2.416597   2.768475
     9  C    2.981240   3.156880   2.506666   1.401313   2.411498
    10  C    2.620184   1.783164   2.636294   3.982067   4.951517
    11  C    3.755347   2.746283   3.659245   5.057592   5.964722
    12  C    4.906171   4.039896   4.789313   6.202732   6.979704
    13  C    5.193362   4.570288   5.121456   6.470319   7.144091
    14  C    6.655173   6.071225   6.554462   7.886744   8.460167
    15  C    4.415870   4.038002   4.421416   5.641691   6.297193
    16  C    3.088091   2.748281   3.164316   4.351636   5.148567
    17  O    2.548411   1.453226   2.569146   3.467838   4.657686
    18  H    3.370273   2.201169   1.013453   2.018767   2.590609
    19  H    4.895783   4.254041   2.571301   2.151317   1.088915
    20  H    6.375326   6.098448   4.537840   3.407479   2.144893
    21  H    6.302321   6.454643   5.310775   3.893997   3.396194
    22  H    4.682995   5.168553   4.641559   3.397774   3.857147
    23  H    2.329513   2.785134   2.772904   2.158482   3.398746
    24  H    4.005855   2.866064   3.882530   5.213068   6.166513
    25  H    5.827401   4.893944   5.673851   7.093070   7.848476
    26  H    6.935174   6.555643   7.032477   8.292433   8.861924
    27  H    7.165108   6.555534   7.219012   8.594112   9.249854
    28  H    7.249067   6.529965   6.773705   8.086306   8.494736
    29  H    5.080821   4.892820   5.114586   6.202305   6.740974
    30  H    2.823997   2.873276   3.018630   3.928606   4.688472
[...]
     3  N    0.002743   0.000670  -0.002663  -0.039295  -0.003286   0.001172
     4  C   -0.089957   0.010096   0.422379  -0.006289  -0.002363   0.000206
     5  C    0.019845  -0.077057   0.017731  -0.000097   0.000585  -0.000039
     6  C    0.453092   0.012518  -0.075740  -0.000042   0.000026  -0.000001
     7  C    4.951020   0.427569   0.038915   0.000062  -0.000003  -0.000000
     8  C    0.427569   4.924068   0.424564  -0.000347   0.000011   0.000000
     9  C    0.038915   0.424564   5.048180   0.002380  -0.000404   0.000017
    10  C    0.000062  -0.000347   0.002380   5.340671   0.267106   0.046402
    11  C   -0.000003   0.000011  -0.000404   0.267106   5.204918   0.336997
    12  C   -0.000000   0.000000   0.000017   0.046402   0.336997   5.095623
    13  C    0.000000  -0.000000   0.000003  -0.102545   0.046341   0.439617
    14  C    0.000000  -0.000000  -0.000000  -0.005371   0.018099  -0.074428
    15  C    0.000000   0.000002  -0.000042   0.033389  -0.074454  -0.002948
    16  C   -0.000008   0.000055  -0.000581   0.396557  -0.042819  -0.050465
    17  O    0.000160  -0.000350   0.003336  -0.102477   0.029819   0.002820
    18  H    0.000073  -0.000512   0.001480   0.003974   0.000698  -0.000267
    19  H    0.007696  -0.002175   0.008100  -0.000017   0.000013  -0.000002
    20  H   -0.057633   0.011371  -0.004227  -0.000002  -0.000000   0.000000
    21  H    0.443333  -0.056908   0.011736   0.000000  -0.000000   0.000000
    22  H   -0.057742   0.443112  -0.056779  -0.000002   0.000000  -0.000000
    23  H    0.006881  -0.038088   0.416490  -0.001051  -0.000111   0.000000
    24  H   -0.000000   0.000001  -0.000021  -0.046537   0.437927  -0.052229
    25  H   -0.000000   0.000000  -0.000000   0.011038  -0.046609   0.436702
    26  H    0.000000  -0.000000   0.000000   0.000227  -0.000894  -0.003704
    27  H   -0.000000   0.000000  -0.000000  -0.000225   0.002914  -0.005725
    28  H   -0.000000   0.000000  -0.000000   0.000237  -0.000891   0.003041
    29  H   -0.000000   0.000000  -0.000001   0.010995  -0.003503   0.011940
    30  H   -0.000000   0.000014   0.000247  -0.052412   0.013517  -0.003995
              13         14         15         16         17         18
     1  O    0.000195   0.000001   0.002035   0.021758  -0.049053   0.002776
     2  S   -0.001256  -0.000002   0.006896  -0.014333   0.567620  -0.010554
     3  N   -0.000954  -0.000013  -0.000810   0.002992  -0.062761   0.361718
     4  C   -0.000082  -0.000001   0.000172   0.002074   0.010061  -0.065872
     5  C    0.000012   0.000000  -0.000007  -0.000284   0.001244   0.014736
     6  C    0.000000   0.000000  -0.000001   0.000006  -0.000956   0.002190
     7  C    0.000000   0.000000   0.000000  -0.000008   0.000160   0.000073
     8  C   -0.000000  -0.000000   0.000002   0.000055  -0.000350  -0.000512
     9  C    0.000003  -0.000000  -0.000042  -0.000581   0.003336   0.001480
    10  C   -0.102545  -0.005371   0.033389   0.396557  -0.102477   0.003974
    11  C    0.046341   0.018099  -0.074454  -0.042819   0.029819   0.000698
    12  C    0.439617  -0.074428  -0.002948  -0.050465   0.002820  -0.000267
    13  C    4.969399   0.296994   0.394069   0.017722   0.000156   0.000113
    14  C    0.296994   4.957735  -0.070094   0.008914   0.000000   0.000001
    15  C    0.394069  -0.070094   5.098905   0.399085  -0.000630  -0.000106
    16  C    0.017722   0.008914   0.399085   5.028275   0.007777  -0.000739
    17  O    0.000156   0.000000  -0.000630   0.007777   8.034354   0.000920
    18  H    0.000113   0.000001  -0.000106  -0.000739   0.000920   0.448888
    19  H    0.000001   0.000000   0.000000  -0.000004   0.000224   0.004369
    20  H   -0.000000  -0.000000  -0.000000   0.000000  -0.000005  -0.000070
    21  H   -0.000000   0.000000   0.000000  -0.000000   0.000000  -0.000003
    22  H   -0.000000  -0.000000  -0.000000  -0.000000  -0.000002   0.000017
    23  H    0.000003   0.000000   0.000023   0.000589   0.000537  -0.000236
    24  H    0.009675   0.000028  -0.002980   0.008469   0.015541   0.000290
    25  H   -0.056635  -0.009183   0.013233  -0.003158  -0.000023  -0.000006
    26  H   -0.024855   0.398428  -0.003391  -0.000276  -0.000000   0.000000
    27  H   -0.059772   0.429751   0.008812  -0.000185   0.000000  -0.000000
    28  H   -0.041582   0.417267  -0.006152   0.000693   0.000000  -0.000000
    29  H   -0.061131  -0.003373   0.446490  -0.052879   0.000003   0.000002
    30  H    0.010602   0.000008  -0.056421   0.438592   0.000394   0.000021
              19         20         21         22         23         24
     1  O   -0.000006  -0.000001   0.000001  -0.000087   0.007248   0.000712
     2  S    0.000190  -0.000015   0.000002  -0.000003  -0.001863  -0.006220
     3  N    0.000677  -0.000320   0.000017  -0.000199   0.000578   0.000678
     4  C   -0.066952   0.014396  -0.003892   0.013408  -0.033043  -0.000547
     5  C    0.425292  -0.054263   0.012092  -0.003089   0.007390   0.000086
     6  C   -0.024137   0.438651  -0.056671   0.010541  -0.002166   0.000005
     7  C    0.007696  -0.057633   0.443333  -0.057742   0.006881  -0.000000
     8  C   -0.002175   0.011371  -0.056908   0.443112  -0.038088   0.000001
     9  C    0.008100  -0.004227   0.011736  -0.056779   0.416490  -0.000021
    10  C   -0.000017  -0.000002   0.000000  -0.000002  -0.001051  -0.046537
    11  C    0.000013  -0.000000  -0.000000   0.000000  -0.000111   0.437927
    12  C   -0.000002   0.000000   0.000000  -0.000000   0.000000  -0.052229
    13  C    0.000001  -0.000000  -0.000000  -0.000000   0.000003   0.009675
    14  C    0.000000  -0.000000   0.000000  -0.000000   0.000000   0.000028
    15  C    0.000000  -0.000000   0.000000  -0.000000   0.000023  -0.002980
    16  C   -0.000004   0.000000  -0.000000  -0.000000   0.000589   0.008469
    17  O    0.000224  -0.000005   0.000000  -0.000002   0.000537   0.015541
    18  H    0.004369  -0.000070  -0.000003   0.000017  -0.000236   0.000290
    19  H    0.540324  -0.007249  -0.000130   0.000034  -0.000113   0.000000
    20  H   -0.007249   0.544868  -0.006760  -0.000121   0.000024  -0.000000
    21  H   -0.000130  -0.006760   0.543124  -0.006924  -0.000055  -0.000000
    22  H    0.000034  -0.000121  -0.006924   0.540711  -0.006036   0.000000
    23  H   -0.000113   0.000024  -0.000055  -0.006036   0.485325  -0.000005
    24  H    0.000000  -0.000000  -0.000000   0.000000  -0.000005   0.470814
    25  H   -0.000000   0.000000  -0.000000   0.000000   0.000000  -0.005224
    26  H    0.000000   0.000000   0.000000  -0.000000   0.000000   0.000005
    27  H    0.000000  -0.000000  -0.000000  -0.000000  -0.000000  -0.000017
    28  H   -0.000000   0.000000  -0.000000   0.000000  -0.000000   0.000002
    29  H   -0.000000   0.000000  -0.000000   0.000000  -0.000002   0.000027
    30  H    0.000001   0.000000  -0.000000  -0.000000   0.000463   0.000001
              25         26         27         28         29         30
     1  O    0.000003  -0.000000   0.000000   0.000000  -0.000022   0.008846
     2  S   -0.000157  -0.000001  -0.000000   0.000001  -0.000111  -0.004436
     3  N    0.000015   0.000000  -0.000000   0.000000   0.000016   0.000287
     4  C    0.000003  -0.000000  -0.000000   0.000000   0.000001  -0.000283
     5  C   -0.000000  -0.000000   0.000000  -0.000000   0.000000  -0.000007
     6  C   -0.000000  -0.000000   0.000000   0.000000   0.000000  -0.000001
     7  C   -0.000000   0.000000  -0.000000  -0.000000  -0.000000  -0.000000
     8  C    0.000000  -0.000000   0.000000   0.000000   0.000000   0.000014
     9  C   -0.000000   0.000000  -0.000000  -0.000000  -0.000001   0.000247
    10  C    0.011038   0.000227  -0.000225   0.000237   0.010995  -0.052412
    11  C   -0.046609  -0.000894   0.002914  -0.000891  -0.003503   0.013517
    12  C    0.436702  -0.003704  -0.005725   0.003041   0.011940  -0.003995
    13  C   -0.056635  -0.024855  -0.059772  -0.041582  -0.061131   0.010602
    14  C   -0.009183   0.398428   0.429751   0.417267  -0.003373   0.000008
    15  C    0.013233  -0.003391   0.008812  -0.006152   0.446490  -0.056421
    16  C   -0.003158  -0.000276  -0.000185   0.000693  -0.052879   0.438592
    17  O   -0.000023  -0.000000   0.000000   0.000000   0.000003   0.000394
    18  H   -0.000006   0.000000  -0.000000  -0.000000   0.000002   0.000021
    19  H   -0.000000   0.000000   0.000000  -0.000000  -0.000000   0.000001
    20  H    0.000000   0.000000  -0.000000   0.000000   0.000000   0.000000
    21  H   -0.000000   0.000000  -0.000000  -0.000000  -0.000000  -0.000000
    22  H    0.000000  -0.000000  -0.000000   0.000000   0.000000  -0.000000
    23  H    0.000000   0.000000  -0.000000  -0.000000  -0.000002   0.000463
    24  H   -0.005224   0.000005  -0.000017   0.000002   0.000027   0.000001
    25  H    0.531476   0.000146   0.002138   0.000077  -0.000062   0.000027
    26  H    0.000146   0.542227  -0.019570  -0.028268   0.000014  -0.000004
    27  H    0.002138  -0.019570   0.536734  -0.021667   0.000090   0.000006
    28  H    0.000077  -0.028268  -0.021667   0.542330   0.000092  -0.000015
    29  H   -0.000062   0.000014   0.000090   0.000092   0.529189  -0.006217
    30  H    0.000027  -0.000004   0.000006  -0.000015  -0.006217   0.495718
 Mulliken charges:
               1
     1  O   -0.465893
     2  S    0.839141
     3  N   -0.331287
     4  C    0.256015
     5  C   -0.249156
     6  C   -0.090630
     7  C   -0.146665
     8  C   -0.077587
     9  C   -0.249327
    10  C   -0.000287
    11  C   -0.138386
    12  C   -0.186881
    13  C    0.163911
    14  C   -0.364761
    15  C   -0.185075
    16  C   -0.167828
    17  O   -0.458708
    18  H    0.236099
    19  H    0.113862
    20  H    0.121355
    21  H    0.121036
    22  H    0.123161
    23  H    0.157217
    24  H    0.169518
    25  H    0.126200
    26  H    0.139915
    27  H    0.126717
    28  H    0.134834
    29  H    0.128442
    30  H    0.155047
 Sum of Mulliken charges =  -0.00000
 Mulliken charges with hydrogens summed into heavy atoms:
               1
     1  O   -0.465893
     2  S    0.839141
     3  N   -0.095188
     4  C    0.256015
     5  C   -0.135294
     6  C    0.030725
     7  C   -0.025629
     8  C    0.045574
     9  C   -0.092109
    10  C   -0.000287
    11  C    0.031133
    12  C   -0.060681
    13  C    0.163911
    14  C    0.036706
    15  C   -0.056633
    16  C   -0.012781
    17  O   -0.458708
 Electronic spatial extent (au):  <R**2>=           5712.1994
 Charge=             -0.0000 electrons
 Dipole moment (field-independent basis, Debye):
    X=             -3.0409    Y=              0.1526    Z=              3.9278  Tot=              4.9697
 Quadrupole moment (field-independent basis, Debye-Ang):
   XX=            -81.5827   YY=           -101.8483   ZZ=           -114.0594
   XY=             -0.0224   XZ=             -0.7056   YZ=             -4.7230
 Traceless Quadrupole moment (field-independent basis, Debye-Ang):
   XX=             17.5808   YY=             -2.6848   ZZ=            -14.8960
   XY=             -0.0224   XZ=             -0.7056   YZ=             -4.7230
 Octapole moment (field-independent basis, Debye-Ang**2):
  XXX=            -32.2936  YYY=              4.3018  ZZZ=             -3.2143  XYY=            -10.3141
  XXY=              3.4850  XXZ=             17.1188  XZZ=             -5.7182  YZZ=             -5.9384
  YYZ=              6.2698  XYZ=            -18.8712
 Hexadecapole moment (field-independent basis, Debye-Ang**3):
 XXXX=          -5809.7736 YYYY=           -658.3200 ZZZZ=           -613.0225 XXXY=             12.0198
 XXXZ=            -61.4121 YYYX=              7.9705 YYYZ=            -16.9648 ZZZX=            -16.4440
 ZZZY=             -2.9107 XXYY=          -1127.6091 XXZZ=          -1235.1507 YYZZ=           -221.1248
 XXYZ=            -47.2829 YYXZ=             -7.1425 ZZXY=            -23.9577
 N-N= 1.287199363408D+03 E-N=-5.169931245376D+03  KE= 1.102021215397D+03
 Breneman (CHELPG) radii used.
 Read replacement radii for each type of atom:
 Atom Element Radius
    1     8    1.70
    2    16    2.00
    3     7    1.70
    4     6    1.50
    5     6    1.50
    6     6    1.50
    7     6    1.50
    8     6    1.50
    9     6    1.50
   10     6    1.50
   11     6    1.50
   12     6    1.50
   13     6    1.50
   14     6    1.50
   15     6    1.50
   16     6    1.50
   17     8    1.70
   18     1    1.45
   19     1    1.45
   20     1    1.45
   21     1    1.45
   22     1    1.45
   23     1    1.45
   24     1    1.45
   25     1    1.45
   26     1    1.45
   27     1    1.45
   28     1    1.45
   29     1    1.45
   30     1    1.45
 Generate Potential Derived Charges using the Breneman model, NDens= 1.
 Grid spacing= 0.300 Box extension= 2.800
 NStep X,Y,Z=   62     35     33   Total possible points=       71610
 Number of Points to Fit=   19060

 **********************************************************************

            Electrostatic Properties Using The SCF Density.

 **********************************************************************

       Atomic Center    1 is at   0.417098  0.879875 -1.756086
       Atomic Center    2 is at   0.067112 -0.265430 -0.936124
       Atomic Center    3 is at   0.900475 -0.094301  0.532982
       Atomic Center    4 is at   2.319077  0.016041  0.507762
       Atomic Center    5 is at   3.102917 -0.951078  1.144865
       Atomic Center    6 is at   4.489025 -0.818804  1.178660
       Atomic Center    7 is at   5.105067  0.264635  0.555802
       Atomic Center    8 is at   4.321852  1.221494 -0.089599
       Atomic Center    9 is at   2.934352  1.112462 -0.106891
       Atomic Center   10 is at  -1.598377 -0.087700 -0.345140
       Atomic Center   11 is at  -2.417516 -1.208589 -0.266903
       Atomic Center   12 is at  -3.725280 -1.057672  0.191723
       Atomic Center   13 is at  -4.218905  0.195753  0.566632
       Atomic Center   14 is at  -5.635810  0.365249  1.045053
       Atomic Center   15 is at  -3.368242  1.308696  0.469942
       Atomic Center   16 is at  -2.063803  1.178001  0.013755
       Atomic Center   17 is at   0.224743 -1.615130 -1.452428
       Atomic Center   18 is at   0.581486 -0.830540  1.160180
       Atomic Center   19 is at   2.623502 -1.814151  1.614146
       Atomic Center   20 is at   5.089650 -1.576907  1.685737
       Atomic Center   21 is at   6.192158  0.363762  0.573325
       Atomic Center   22 is at   4.795441  2.075653 -0.578303
       Atomic Center   23 is at   2.319338  1.863703 -0.600588
       Atomic Center   24 is at  -2.030760 -2.182255 -0.572856
       Atomic Center   25 is at  -4.374645 -1.934147  0.254751
       Atomic Center   26 is at  -6.234492  0.909441  0.297732
       Atomic Center   27 is at  -6.121491 -0.603411  1.224443
       Atomic Center   28 is at  -5.671948  0.946502  1.978387
       Atomic Center   29 is at  -3.740634  2.295982  0.754747
       Atomic Center   30 is at  -1.405602  2.044459 -0.070446
   19060 points will be used for fitting atomic charges
 Fitting point charges to electrostatic potential
 Charges from ESP fit, RMS=   0.00374 RRMS=   0.22276:
 ESP charges:
               1
     1  O   -0.499000
     2  S    1.000431
     3  N   -0.781323
     4  C    0.549364
     5  C   -0.310302
     6  C   -0.043828
     7  C   -0.152715
     8  C   -0.033859
     9  C   -0.297615
    10  C   -0.034788
    11  C   -0.057178
    12  C   -0.227786
    13  C    0.259031
    14  C   -0.314317
    15  C   -0.217932
    16  C   -0.057306
    17  O   -0.512131
    18  H    0.336204
    19  H    0.146143
    20  H    0.094609
    21  H    0.103822
    22  H    0.088585
    23  H    0.190061
    24  H    0.120109
    25  H    0.125600
    26  H    0.097083
    27  H    0.094715
    28  H    0.087072
    29  H    0.129116
    30  H    0.118134
 Sum of ESP charges =  -0.00000
 ESP charges with hydrogens summed into heavy atoms:
               1
     1  O   -0.499000
     2  S    1.000431
     3  N   -0.445120
     4  C    0.549364
     5  C   -0.164159
     6  C    0.050781
     7  C   -0.048893
     8  C    0.054726
     9  C   -0.107553
    10  C   -0.034788
    11  C    0.062931
    12  C   -0.102186
    13  C    0.259031
    14  C   -0.035447
    15  C   -0.088815
    16  C    0.060828
    17  O   -0.512131
 Charge=  -0.00000 Dipole=    -2.9950     0.2318     4.0198 Tot=     5.0182
 -----------------------------------------------------------------

              Electrostatic Properties (Atomic Units)

 -----------------------------------------------------------------
    Center     Electric         -------- Electric Field --------
               Potential          X             Y             Z
 -----------------------------------------------------------------
    1 Atom    -22.374571
    2 Atom    -59.026932
    3 Atom    -18.348211
    4 Atom    -14.717765
    5 Atom    -14.762858
    6 Atom    -14.764195
    7 Atom    -14.769312
    8 Atom    -14.766656
    9 Atom    -14.770057
   10 Atom    -14.728571
   11 Atom    -14.741276
   12 Atom    -14.749272
   13 Atom    -14.732811
   14 Atom    -14.752670
   15 Atom    -14.749119
   16 Atom    -14.741047
   17 Atom    -22.374980
   18 Atom     -1.004603
   19 Atom     -1.094144
   20 Atom     -1.103246
   21 Atom     -1.106798
   22 Atom     -1.107199
   23 Atom     -1.108736
   24 Atom     -1.083642
   25 Atom     -1.087868
   26 Atom     -1.095402
   27 Atom     -1.098952
   28 Atom     -1.096439
   29 Atom     -1.087443
   30 Atom     -1.083554
 -----------------------------------------------------------------
 Unable to Open any file for archive entry.
 1\1\GINC-NOTCH211\SP\RwB97XD\def2TZVP\C13H13N1O2S1\U1366379\20-Feb-202
 6\0\\#N Guess=Read Geom=Check Integral(Ultrafine) Density Pop=(ChelpG,
 ReadRadii) NMR wB97XD def2TZVP\\prod_5l_6\\0,1\O,0,0.3724582566,1.5597
 432628,1.1098650085\S,0,0.0322649902,0.863304378,-0.117243387\N,0,0.90
 04504003,-0.5955640879,-0.1142198758\C,0,2.3189340608,-0.5491024932,-0
 .0093964025\C,0,3.1094565718,-1.056690625,-1.0452787246\C,0,4.49698507
 36,-1.0720599517,-0.9250136372\C,0,5.1071845848,-0.5583253034,0.217367
 0848\C,0,4.3170143203,-0.0413438989,1.243967002\C,0,2.9286579789,-0.04
 49733223,1.1449832704\C,0,-1.6177584576,0.2170240714,0.0029529092\C,0,
 -2.4437883307,0.2437507203,-1.1152875073\C,0,-3.7394425292,-0.25958517
 28,-1.0090172488\C,0,-4.2143383047,-0.782289668,0.1978592057\C,0,-5.61
 84988711,-1.3099312572,0.3209912028\C,0,-3.3572795095,-0.7890565445,1.
 3100752082\C,0,-2.0647326068,-0.2904573755,1.2236502354\O,0,0.16725443
 31,1.5291796614,-1.4023482759\H,0,0.5900805252,-1.1449411083,-0.913615
 9474\H,0,2.6340752168,-1.4389477185,-1.9523894384\H,0,5.1030275523,-1.
 4778917293,-1.7377927088\H,0,6.1951458087,-0.560945483,0.3080981029\H,
 0,4.7860550108,0.3610583591,2.1444005212\H,0,2.3084822741,0.3479814814
 ,1.9495386056\H,0,-2.0719210945,0.664495277,-2.0511837368\H,0,-4.39415
 14971,-0.2407346972,-1.8835785682\H,0,-6.2298157535,-0.6417114195,0.94
 77503659\H,0,-6.1076357443,-1.3926347833,-0.6589441654\H,0,-5.62858330
 55,-2.3023724097,0.795578172\H,0,-3.7151644989,-1.1899542034,2.2617706
 093\H,0,-1.4017565548,-0.286953959,2.0905521201\\Version=ES64L-G16RevC
 .01\State=1-A\HF=-1106.6230566\RMSD=1.955e-09\Dipole=-1.1600866,-1.570
 3958,-0.104903\Quadrupole=13.0316146,-11.6966775,-1.3349371,1.1229783,
 -0.0933822,2.422576\PG=C01 [X(C13H13N1O2S1)]\\@
 The archive entry for this job was punched.


 IN SO FAR AS QUANTUM MECHANICS IS CORRECT, CHEMICAL 
 QUESTIONS ARE PROBLEMS IN APPLIED MATHEMATICS.

                    -- EYRING, WALTER, & KIMBALL, 1944
 Job cpu time:       0 days  1 hours 36 minutes 16.3 seconds.
 Elapsed time:       0 days  0 hours  6 minutes 22.6 seconds.
 File lengths (MBytes):  RWF=    226 Int=      0 D2E=      0 Chk=     34 Scr=      2
 Normal termination of Gaussian 16 at Fri Feb 20 02:58:37 2026.
