 Entering Gaussian System, Link 0=g16
 Input=prod_5c_1.com
 Output=prod_5c_1.log
 Initial command:
 /uufs/chpc.utah.edu/sys/installdir/gaussian16/C01/AVX/g16/l1.exe "/scratch/general/vast/u1366379/GAUSSSCRDIR/11028633-notchpeak.peaks/Gau-598449.inp" -scrdir="/scratch/general/vast/u1366379/GAUSSSCRDIR/11028633-notchpeak.peaks/"
 Entering Link 1 = /uufs/chpc.utah.edu/sys/installdir/gaussian16/C01/AVX/g16/l1.exe PID=    598455.
  
 Copyright (c) 1988-2019, Gaussian, Inc.  All Rights Reserved.
  
 This is part of the Gaussian(R) 16 program.  It is based on
 the Gaussian(R) 09 system (copyright 2009, Gaussian, Inc.),
 the Gaussian(R) 03 system (copyright 2003, Gaussian, Inc.),
 the Gaussian(R) 98 system (copyright 1998, Gaussian, Inc.),
 the Gaussian(R) 94 system (copyright 1995, Gaussian, Inc.),
 the Gaussian 92(TM) system (copyright 1992, Gaussian, Inc.),
 the Gaussian 90(TM) system (copyright 1990, Gaussian, Inc.),
 the Gaussian 88(TM) system (copyright 1988, Gaussian, Inc.),
 the Gaussian 86(TM) system (copyright 1986, Carnegie Mellon
 University), and the Gaussian 82(TM) system (copyright 1983,
 Carnegie Mellon University). Gaussian is a federally registered
 trademark of Gaussian, Inc.
  
 This software contains proprietary and confidential information,
 including trade secrets, belonging to Gaussian, Inc.
  
 This software is provided under written license and may be
 used, copied, transmitted, or stored only in accord with that
 written license.
  
 The following legend is applicable only to US Government
 contracts under FAR:
  
                    RESTRICTED RIGHTS LEGEND
  
 Use, reproduction and disclosure by the US Government is
 subject to restrictions as set forth in subparagraphs (a)
 and (c) of the Commercial Computer Software - Restricted
 Rights clause in FAR 52.227-19.
  
 Gaussian, Inc.
 340 Quinnipiac St., Bldg. 40, Wallingford CT 06492
  
  
 ---------------------------------------------------------------
 Warning -- This program may not be used in any manner that
 competes with the business of Gaussian, Inc. or will provide
 assistance to any competitor of Gaussian, Inc.  The licensee
 of this program is prohibited from giving any competitor of
 Gaussian, Inc. access to this program.  By using this program,
 the user acknowledges that Gaussian, Inc. is engaged in the
 business of creating and licensing software in the field of
 computational chemistry and represents and warrants to the
 licensee that it is not a competitor of Gaussian, Inc. and that
 it will not use this program in any manner prohibited above.
 ---------------------------------------------------------------
  

 Cite this work as:
 Gaussian 16, Revision C.01,
 M. J. Frisch, G. W. Trucks, H. B. Schlegel, G. E. Scuseria, 
 M. A. Robb, J. R. Cheeseman, G. Scalmani, V. Barone, 
 G. A. Petersson, H. Nakatsuji, X. Li, M. Caricato, A. V. Marenich, 
 J. Bloino, B. G. Janesko, R. Gomperts, B. Mennucci, H. P. Hratchian, 
 J. V. Ortiz, A. F. Izmaylov, J. L. Sonnenberg, D. Williams-Young, 
 F. Ding, F. Lipparini, F. Egidi, J. Goings, B. Peng, A. Petrone, 
 T. Henderson, D. Ranasinghe, V. G. Zakrzewski, J. Gao, N. Rega, 
 G. Zheng, W. Liang, M. Hada, M. Ehara, K. Toyota, R. Fukuda, 
 J. Hasegawa, M. Ishida, T. Nakajima, Y. Honda, O. Kitao, H. Nakai, 
 T. Vreven, K. Throssell, J. A. Montgomery, Jr., J. E. Peralta, 
 F. Ogliaro, M. J. Bearpark, J. J. Heyd, E. N. Brothers, K. N. Kudin, 
 V. N. Staroverov, T. A. Keith, R. Kobayashi, J. Normand, 
 K. Raghavachari, A. P. Rendell, J. C. Burant, S. S. Iyengar, 
 J. Tomasi, M. Cossi, J. M. Millam, M. Klene, C. Adamo, R. Cammi, 
 J. W. Ochterski, R. L. Martin, K. Morokuma, O. Farkas, 
 J. B. Foresman, and D. J. Fox, Gaussian, Inc., Wallingford CT, 2019.
 
 ******************************************
 Gaussian 16:  ES64L-G16RevC.01  3-Jul-2019
                17-Feb-2026 
 ******************************************
 %NProcShared=8
 Will use up to    8 processors via shared memory.
 %Mem=8GB
 %chk=prod_5c_1.chk
 ------------------------------------------------------
 #N OPT FREQ=NORAMAN Integral(Ultrafine) wB97XD def2SVP
 ------------------------------------------------------
 1/18=20,19=15,26=4,38=1/1,3;
 2/9=110,12=2,17=6,18=5,40=1/2;
 3/5=43,7=101,11=2,25=1,30=1,71=1,74=-58,75=-5/1,2,3;
 4//1;
 5/5=2,38=5/2;
 6/7=2,8=2,9=2,10=2,28=1/1;
 7//1,2,3,16;
 1/18=20,19=15,26=4/3(2);
 2/9=110/2;
 99//99;
 2/9=110/2;
 3/5=43,7=101,11=2,25=1,30=1,71=1,74=-58,75=-5/1,2,3;
 4/5=5,16=3,69=1/1;
 5/5=2,38=5/2;
 7//1,2,3,16;
 1/18=20,19=15,26=4/3(-5);
 2/9=110/2;
 6/7=2,8=2,9=2,10=2,19=2,28=1/1;
 99/9=1/99;
 ---------
 prod_5c_1
 ---------
 Symbolic Z-matrix:
 Charge =  0 Multiplicity = 1
 F                    -2.66828  -2.40787   0.54088 
 C                    -2.45615  -1.09966   0.24272 
 C                    -1.18043  -0.57835   0.2787 
 C                    -0.93115   0.75797  -0.02542 
 N                     0.39666   1.27071   0.03179 
 C                     0.59897   2.7156    0.12889 
 C                     1.547     0.41838  -0.02905 
 C                     2.6259    0.60113   0.83557 
 C                     3.72738  -0.22152   0.76774 
 C                     3.77668  -1.2402   -0.16352 
 C                     2.71792  -1.43433  -1.02855 
 C                     1.6147   -0.61451  -0.96359 
 C                    -2.01598   1.56796  -0.35931 
 C                    -3.29186   1.05234  -0.3972 
 C                    -3.51404  -0.27638  -0.09968 
 H                    -0.37189  -1.22226   0.56794 
 H                     1.64971   2.94969   0.28407 
 H                     0.28149   3.19999  -0.79218 
 H                     0.02652   3.11875   0.96196 
 H                     2.57588   1.37788   1.57816 
 H                     4.55166  -0.07336   1.44598 
 H                     4.63961  -1.88372  -0.21411 
 H                     2.75587  -2.22853  -1.75599 
 H                     0.79274  -0.75279  -1.64412 
 H                    -1.85145   2.60324  -0.59788 
 H                    -4.12125   1.68792  -0.66085 
 H                    -4.50537  -0.69269  -0.12521 
 

 GradGradGradGradGradGradGradGradGradGradGradGradGradGradGradGradGradGrad
 Berny optimization.
 Initialization pass.
                           ----------------------------
                           !    Initial Parameters    !
                           ! (Angstroms and Degrees)  !
 --------------------------                            --------------------------
 ! Name  Definition              Value          Derivative Info.                !
 --------------------------------------------------------------------------------
 ! R1    R(1,2)                  1.3584         estimate D2E/DX2                !
 ! R2    R(2,3)                  1.3786         estimate D2E/DX2                !
 ! R3    R(2,15)                 1.3835         estimate D2E/DX2                !
 ! R4    R(3,4)                  1.393          estimate D2E/DX2                !
 ! R5    R(3,16)                 1.0733         estimate D2E/DX2                !
 ! R6    R(4,5)                  1.4245         estimate D2E/DX2                !
 ! R7    R(4,13)                 1.3944         estimate D2E/DX2                !
 ! R8    R(5,6)                  1.4622         estimate D2E/DX2                !
 ! R9    R(5,7)                  1.433          estimate D2E/DX2                !
 ! R10   R(6,17)                 1.0876         estimate D2E/DX2                !
 ! R11   R(6,18)                 1.088          estimate D2E/DX2                !
 ! R12   R(6,19)                 1.0882         estimate D2E/DX2                !
 ! R13   R(7,8)                  1.3946         estimate D2E/DX2                !
 ! R14   R(7,12)                 1.3946         estimate D2E/DX2                !
 ! R15   R(8,9)                  1.3764         estimate D2E/DX2                !
 ! R16   R(8,20)                 1.0758         estimate D2E/DX2                !
 ! R17   R(9,10)                 1.3811         estimate D2E/DX2                !
 ! R18   R(9,21)                 1.0777         estimate D2E/DX2                !
 ! R19   R(10,11)                1.3809         estimate D2E/DX2                !
 ! R20   R(10,22)                1.0776         estimate D2E/DX2                !
 ! R21   R(11,12)                1.376          estimate D2E/DX2                !
 ! R22   R(11,23)                1.0777         estimate D2E/DX2                !
 ! R23   R(12,24)                1.076          estimate D2E/DX2                !
 ! R24   R(13,14)                1.3767         estimate D2E/DX2                !
 ! R25   R(13,25)                1.0751         estimate D2E/DX2                !
 ! R26   R(14,15)                1.3796         estimate D2E/DX2                !
 ! R27   R(14,26)                1.0777         estimate D2E/DX2                !
 ! R28   R(15,27)                1.0755         estimate D2E/DX2                !
 ! A1    A(1,2,3)              120.1951         estimate D2E/DX2                !
 ! A2    A(1,2,15)             120.5292         estimate D2E/DX2                !
 ! A3    A(3,2,15)             119.2757         estimate D2E/DX2                !
 ! A4    A(2,3,4)              121.5115         estimate D2E/DX2                !
 ! A5    A(2,3,16)             118.5071         estimate D2E/DX2                !
 ! A6    A(4,3,16)             119.9702         estimate D2E/DX2                !
 ! A7    A(3,4,5)              120.221          estimate D2E/DX2                !
 ! A8    A(3,4,13)             118.0541         estimate D2E/DX2                !
 ! A9    A(5,4,13)             121.7151         estimate D2E/DX2                !
 ! A10   A(4,5,6)              119.1638         estimate D2E/DX2                !
 ! A11   A(4,5,7)              122.1721         estimate D2E/DX2                !
 ! A12   A(6,5,7)              118.6526         estimate D2E/DX2                !
 ! A13   A(5,6,17)             110.8438         estimate D2E/DX2                !
 ! A14   A(5,6,18)             110.0804         estimate D2E/DX2                !
 ! A15   A(5,6,19)             110.1287         estimate D2E/DX2                !
 ! A16   A(17,6,18)            107.8702         estimate D2E/DX2                !
 ! A17   A(17,6,19)            108.617          estimate D2E/DX2                !
 ! A18   A(18,6,19)            109.2466         estimate D2E/DX2                !
 ! A19   A(5,7,8)              121.1151         estimate D2E/DX2                !
 ! A20   A(5,7,12)             120.5279         estimate D2E/DX2                !
 ! A21   A(8,7,12)             118.3565         estimate D2E/DX2                !
 ! A22   A(7,8,9)              120.6772         estimate D2E/DX2                !
 ! A23   A(7,8,20)             119.1172         estimate D2E/DX2                !
 ! A24   A(9,8,20)             120.1828         estimate D2E/DX2                !
 ! A25   A(8,9,10)             120.1739         estimate D2E/DX2                !
 ! A26   A(8,9,21)             119.9265         estimate D2E/DX2                !
 ! A27   A(10,9,21)            119.8989         estimate D2E/DX2                !
 ! A28   A(9,10,11)            119.9149         estimate D2E/DX2                !
 ! A29   A(9,10,22)            120.0461         estimate D2E/DX2                !
 ! A30   A(11,10,22)           120.0389         estimate D2E/DX2                !
 ! A31   A(10,11,12)           120.0912         estimate D2E/DX2                !
 ! A32   A(10,11,23)           119.9632         estimate D2E/DX2                !
 ! A33   A(12,11,23)           119.9456         estimate D2E/DX2                !
 ! A34   A(7,12,11)            120.7861         estimate D2E/DX2                !
 ! A35   A(7,12,24)            118.8105         estimate D2E/DX2                !
 ! A36   A(11,12,24)           120.3988         estimate D2E/DX2                !
 ! A37   A(4,13,14)            120.6674         estimate D2E/DX2                !
 ! A38   A(4,13,25)            119.5675         estimate D2E/DX2                !
 ! A39   A(14,13,25)           119.7629         estimate D2E/DX2                !
 ! A40   A(13,14,15)           120.2679         estimate D2E/DX2                !
 ! A41   A(13,14,26)           119.9416         estimate D2E/DX2                !
 ! A42   A(15,14,26)           119.7905         estimate D2E/DX2                !
 ! A43   A(2,15,14)            120.2206         estimate D2E/DX2                !
 ! A44   A(2,15,27)            118.7067         estimate D2E/DX2                !
 ! A45   A(14,15,27)           121.0725         estimate D2E/DX2                !
 ! D1    D(1,2,3,4)            179.824          estimate D2E/DX2                !
 ! D2    D(1,2,3,16)            -1.3948         estimate D2E/DX2                !
 ! D3    D(15,2,3,4)            -0.1786         estimate D2E/DX2                !
 ! D4    D(15,2,3,16)          178.6026         estimate D2E/DX2                !
 ! D5    D(1,2,15,14)          179.7945         estimate D2E/DX2                !
 ! D6    D(1,2,15,27)           -0.0238         estimate D2E/DX2                !
 ! D7    D(3,2,15,14)           -0.2029         estimate D2E/DX2                !
 ! D8    D(3,2,15,27)          179.9788         estimate D2E/DX2                !
 ! D9    D(2,3,4,5)            179.4521         estimate D2E/DX2                !
 ! D10   D(2,3,4,13)             0.5646         estimate D2E/DX2                !
 ! D11   D(16,3,4,5)             0.6885         estimate D2E/DX2                !
 ! D12   D(16,3,4,13)         -178.1991         estimate D2E/DX2                !
 ! D13   D(3,4,5,6)           -160.8847         estimate D2E/DX2                !
 ! D14   D(3,4,5,7)             20.3673         estimate D2E/DX2                !
 ! D15   D(13,4,5,6)            17.9613         estimate D2E/DX2                !
 ! D16   D(13,4,5,7)          -160.7868         estimate D2E/DX2                !
 ! D17   D(3,4,13,14)           -0.5822         estimate D2E/DX2                !
 ! D18   D(3,4,13,25)          179.9705         estimate D2E/DX2                !
 ! D19   D(5,4,13,14)         -179.4522         estimate D2E/DX2                !
 ! D20   D(5,4,13,25)            1.1005         estimate D2E/DX2                !
 ! D21   D(4,5,6,17)           173.1781         estimate D2E/DX2                !
 ! D22   D(4,5,6,18)           -67.561          estimate D2E/DX2                !
 ! D23   D(4,5,6,19)            52.9553         estimate D2E/DX2                !
 ! D24   D(7,5,6,17)            -8.0295         estimate D2E/DX2                !
 ! D25   D(7,5,6,18)           111.2314         estimate D2E/DX2                !
 ! D26   D(7,5,6,19)          -128.2523         estimate D2E/DX2                !
 ! D27   D(4,5,7,8)           -135.6271         estimate D2E/DX2                !
 ! D28   D(4,5,7,12)            44.648          estimate D2E/DX2                !
 ! D29   D(6,5,7,8)             45.6187         estimate D2E/DX2                !
 ! D30   D(6,5,7,12)          -134.1062         estimate D2E/DX2                !
 ! D31   D(5,7,8,9)           -179.8896         estimate D2E/DX2                !
 ! D32   D(5,7,8,20)             1.8439         estimate D2E/DX2                !
 ! D33   D(12,7,8,9)            -0.1588         estimate D2E/DX2                !
 ! D34   D(12,7,8,20)         -178.4253         estimate D2E/DX2                !
 ! D35   D(5,7,12,11)          179.862          estimate D2E/DX2                !
 ! D36   D(5,7,12,24)            0.6413         estimate D2E/DX2                !
 ! D37   D(8,7,12,11)            0.1296         estimate D2E/DX2                !
 ! D38   D(8,7,12,24)         -179.0911         estimate D2E/DX2                !
 ! D39   D(7,8,9,10)             0.1093         estimate D2E/DX2                !
 ! D40   D(7,8,9,21)          -179.6105         estimate D2E/DX2                !
 ! D41   D(20,8,9,10)          178.3573         estimate D2E/DX2                !
 ! D42   D(20,8,9,21)           -1.3625         estimate D2E/DX2                !
 ! D43   D(8,9,10,11)           -0.0266         estimate D2E/DX2                !
 ! D44   D(8,9,10,22)         -179.9339         estimate D2E/DX2                !
 ! D45   D(21,9,10,11)         179.6932         estimate D2E/DX2                !
 ! D46   D(21,9,10,22)          -0.214          estimate D2E/DX2                !
 ! D47   D(9,10,11,12)          -0.0027         estimate D2E/DX2                !
 ! D48   D(9,10,11,23)         179.9563         estimate D2E/DX2                !
 ! D49   D(22,10,11,12)        179.9046         estimate D2E/DX2                !
 ! D50   D(22,10,11,23)         -0.1365         estimate D2E/DX2                !
 ! D51   D(10,11,12,7)          -0.0505         estimate D2E/DX2                !
 ! D52   D(10,11,12,24)        179.1579         estimate D2E/DX2                !
 ! D53   D(23,11,12,7)         179.9906         estimate D2E/DX2                !
 ! D54   D(23,11,12,24)         -0.8011         estimate D2E/DX2                !
 ! D55   D(4,13,14,15)           0.2195         estimate D2E/DX2                !
 ! D56   D(4,13,14,26)        -179.7374         estimate D2E/DX2                !
 ! D57   D(25,13,14,15)        179.6658         estimate D2E/DX2                !
 ! D58   D(25,13,14,26)         -0.2911         estimate D2E/DX2                !
 ! D59   D(13,14,15,2)           0.1825         estimate D2E/DX2                !
 ! D60   D(13,14,15,27)        179.9964         estimate D2E/DX2                !
 ! D61   D(26,14,15,2)        -179.8605         estimate D2E/DX2                !
 ! D62   D(26,14,15,27)         -0.0466         estimate D2E/DX2                !
 --------------------------------------------------------------------------------
 Trust Radius=3.00D-01 FncErr=1.00D-07 GrdErr=1.00D-06 EigMax=2.50D+02 EigMin=1.00D-04
 Number of steps in this run=    145 maximum allowed number of steps=    162.
 GradGradGradGradGradGradGradGradGradGradGradGradGradGradGradGradGradGrad

                          Input orientation:                          
 ---------------------------------------------------------------------
 Center     Atomic      Atomic             Coordinates (Angstroms)
 Number     Number       Type             X           Y           Z
 ---------------------------------------------------------------------
      1          9           0       -2.668280   -2.407870    0.540880
      2          6           0       -2.456150   -1.099660    0.242720
      3          6           0       -1.180430   -0.578350    0.278700
      4          6           0       -0.931150    0.757970   -0.025420
      5          7           0        0.396660    1.270710    0.031790
      6          6           0        0.598970    2.715600    0.128890
      7          6           0        1.547000    0.418380   -0.029050
      8          6           0        2.625900    0.601130    0.835570
      9          6           0        3.727380   -0.221520    0.767740
     10          6           0        3.776680   -1.240200   -0.163520
     11          6           0        2.717920   -1.434330   -1.028550
     12          6           0        1.614700   -0.614510   -0.963590
     13          6           0       -2.015980    1.567960   -0.359310
     14          6           0       -3.291860    1.052340   -0.397200
     15          6           0       -3.514040   -0.276380   -0.099680
     16          1           0       -0.371890   -1.222260    0.567940
     17          1           0        1.649710    2.949690    0.284070
     18          1           0        0.281490    3.199990   -0.792180
     19          1           0        0.026520    3.118750    0.961960
     20          1           0        2.575880    1.377880    1.578160
     21          1           0        4.551660   -0.073360    1.445980
     22          1           0        4.639610   -1.883720   -0.214110
     23          1           0        2.755870   -2.228530   -1.755990
     24          1           0        0.792740   -0.752790   -1.644120
     25          1           0       -1.851450    2.603240   -0.597880
     26          1           0       -4.121250    1.687920   -0.660850
     27          1           0       -4.505370   -0.692690   -0.125210
 ---------------------------------------------------------------------
                    Distance matrix (angstroms):
                    1          2          3          4          5
     1  F    0.000000
     2  C    1.358423   0.000000
     3  C    2.372673   1.378594   0.000000
     4  C    3.655251   2.418329   1.392975   0.000000
     5  N    4.815078   3.715060   2.442785   1.424519   0.000000
     6  C    6.090534   4.889062   3.746841   2.489457   1.462212
     7  C    5.106965   4.289932   2.920112   2.501312   1.432986
     8  C    6.096660   5.391789   4.023608   3.663128   2.462501
     9  C    6.762844   6.267601   4.945006   4.826013   3.723180
    10  C    6.587651   6.247636   5.020612   5.116192   4.215133
    11  C    5.694036   5.338458   4.199850   4.373575   3.718845
    12  C    4.880931   4.273450   3.058978   3.040595   2.455292
    13  C    4.128324   2.769907   2.389947   1.394425   2.462143
    14  C    3.638942   2.395624   2.752113   2.407867   3.719798
    15  C    2.380940   1.383531   2.383295   2.783292   4.207653
    16  H    2.584533   2.113040   1.073320   2.141532   2.663273
    17  H    6.885814   5.766891   4.522918   3.400038   2.110155
    18  H    6.475051   5.201219   4.190447   2.832292   2.101026
    19  H    6.163017   4.947316   3.948686   2.732276   2.101778
    20  H    6.550501   5.765668   4.430045   3.905767   2.674275
    21  H    7.641772   7.184047   5.871492   5.737363   4.590260
    22  H    7.365460   7.153548   5.984958   6.168265   5.292780
    23  H    5.893147   5.695116   4.728373   5.050561   4.583308
    24  H    4.414994   3.773032   2.760628   2.806133   2.657086
    25  H    5.203384   3.844963   3.367666   2.140020   2.688144
    26  H    4.508966   3.370400   3.829772   3.383093   4.589698
    27  H    2.600080   2.121391   3.351334   3.858681   5.282943
                    6          7          8          9         10
     6  C    0.000000
     7  C    2.490166   0.000000
     8  C    3.013109   1.394629   0.000000
     9  C    4.338404   2.407987   1.376449   0.000000
    10  C    5.082489   2.782165   2.390182   1.381081   0.000000
    11  C    4.801201   2.408856   2.761613   2.390936   1.380919
    12  C    3.648952   1.394564   2.395263   2.759594   2.388673
    13  C    2.897133   3.758382   4.889739   6.120348   6.440420
    14  C    4.264008   4.894079   6.061617   7.228384   7.434689
    15  C    5.091271   5.108993   6.272446   7.293394   7.354429
    16  H    4.079470   2.594270   3.518966   4.224383   4.212599
    17  H    1.087627   2.552670   2.602467   3.821940   4.720118
    18  H    1.088024   3.149800   3.860039   5.100416   5.685671
    19  H    1.088225   3.253607   3.620934   4.989137   5.859253
    20  H    2.792499   2.135968   1.075771   2.130918   3.365964
    21  H    5.013660   3.383120   2.129810   1.077682   2.133682
    22  H    6.131734   3.859812   3.366205   2.135205   1.077648
    23  H    5.713966   3.383758   3.839277   3.367660   2.134200
    24  H    3.900108   2.132838   3.367854   3.835548   3.366548
    25  H    2.558394   4.080030   5.109783   6.400588   6.829096
    26  H    4.894925   5.842941   6.996029   8.202916   8.437922
    27  H    6.142906   6.154259   7.311093   8.294428   8.300216
                   11         12         13         14         15
    11  C    0.000000
    12  C    1.376016   0.000000
    13  C    5.645479   4.279038   0.000000
    14  C    6.534492   5.212822   1.376652   0.000000
    15  C    6.406323   5.211971   2.390226   1.379630   0.000000
    16  H    3.484348   2.580985   3.368702   3.825118   3.348658
    17  H    4.699327   3.776427   3.969937   5.336964   6.100746
    18  H    5.241086   4.044409   2.851187   4.187749   5.193337
    19  H    5.651221   4.490800   2.884876   4.138721   5.018919
    20  H    3.837139   3.369566   4.987494   6.199871   6.529843
    21  H    3.367216   3.837265   7.006204   8.135436   8.214974
    22  H    2.134984   3.364921   7.498804   8.459444   8.311356
    23  H    1.077665   2.129607   6.255766   7.013234   6.772446
    24  H    2.133012   1.076039   3.863357   4.636514   4.600067
    25  H    6.112822   4.743612   1.075077   2.126110   3.362234
    26  H    7.527144   6.188211   2.130136   1.077665   2.131218
    27  H    7.317238   6.177722   3.370816   2.142829   1.075500
                   16         17         18         19         20
    16  H    0.000000
    17  H    4.644633   0.000000
    18  H    4.672593   1.758690   0.000000
    19  H    4.377025   1.767162   1.774434   0.000000
    20  H    4.058401   2.236749   3.768663   3.147947   0.000000
    21  H    5.131498   4.348584   5.827395   5.558843   2.455051
    22  H    5.115102   5.705220   6.720973   6.905682   4.255496
    23  H    4.024439   5.674451   6.043204   6.590145   4.914788
    24  H    2.543614   4.261534   4.075739   4.729436   4.254695
    25  H    4.264116   3.627118   2.223352   2.495120   5.083100
    26  H    4.902731   5.982384   4.657008   4.678117   7.068298
    27  H    4.224519   7.163760   6.205790   6.020552   7.571845
                   21         22         23         24         25
    21  H    0.000000
    22  H    2.457852   0.000000
    23  H    4.257021   2.458610   0.000000
    24  H    4.913229   4.257034   2.458496   0.000000
    25  H    7.234734   7.900250   6.776033   4.398783   0.000000
    26  H    9.097264   9.471476   7.989536   5.574153   2.448217
    27  H    9.213143   9.222641   7.598938   5.511866   4.257918
                   26         27
    26  H    0.000000
    27  H    2.470175   0.000000
 Stoichiometry    C13H12FN
 Framework group  C1[X(C13H12FN)]
 Deg. of freedom    75
 Full point group                 C1      NOp   1
 Largest Abelian subgroup         C1      NOp   1
 Largest concise Abelian subgroup C1      NOp   1
                         Standard orientation:                         
 ---------------------------------------------------------------------
 Center     Atomic      Atomic             Coordinates (Angstroms)
 Number     Number       Type             X           Y           Z
 ---------------------------------------------------------------------
      1          9           0        2.647410   -2.509047   -0.616850
      2          6           0        2.468659   -1.202315   -0.291563
      3          6           0        1.205472   -0.650382   -0.307396
      4          6           0        0.990296    0.685207    0.024689
      5          7           0       -0.325324    1.230224   -0.012130
      6          6           0       -0.493909    2.681125   -0.079423
      7          6           0       -1.495139    0.404295    0.041042
      8          6           0       -2.575706    0.629500   -0.811394
      9          6           0       -3.695918   -0.168055   -0.751036
     10          6           0       -3.762599   -1.203433    0.160518
     11          6           0       -2.702433   -1.439544    1.013299
     12          6           0       -1.580528   -0.644916    0.955742
     13          6           0        2.096512    1.462588    0.365846
     14          6           0        3.360007    0.916301    0.383698
     15          6           0        3.548322   -0.411182    0.058571
     16          1           0        0.379740   -1.269174   -0.602827
     17          1           0       -1.539894    2.943003   -0.221794
     18          1           0       -0.158239    3.139634    0.848420
     19          1           0        0.081836    3.086962   -0.908910
     20          1           0       -2.512676    1.419329   -1.539048
     21          1           0       -4.521399    0.012884   -1.419797
     22          1           0       -4.640200   -1.827243    0.205274
     23          1           0       -2.753924   -2.246802    1.725371
     24          1           0       -0.757115   -0.815970    1.627003
     25          1           0        1.958415    2.496567    0.625857
     26          1           0        4.206198    1.526777    0.653220
     27          1           0        4.529628   -0.851235    0.068228
 ---------------------------------------------------------------------
 Rotational constants (GHZ):           1.0971746           0.3878653           0.3089436
 Standard basis: def2SVP (5D, 7F)
 There are   285 symmetry adapted cartesian basis functions of A   symmetry.
 There are   270 symmetry adapted basis functions of A   symmetry.
   270 basis functions,   459 primitive gaussians,   285 cartesian basis functions
    53 alpha electrons       53 beta electrons
       nuclear repulsion energy       922.6416159578 Hartrees.
 NAtoms=   27 NActive=   27 NUniq=   27 SFac= 1.00D+00 NAtFMM=   60 NAOKFM=F Big=F
 Integral buffers will be    131072 words long.
 Raffenetti 2 integral format.
 Two-electron integral symmetry is turned on.
 Nuclear repulsion after empirical dispersion term =      922.6239568779 Hartrees.
 One-electron integrals computed using PRISM.
   1 Symmetry operations used in ECPInt.
 ECPInt:  NShTT=    8001 NPrTT=   29151 LenC2=    7582 LenP2D=   20285.
 LDataN:  DoStor=T MaxTD1= 4 Len=   56
 NBasis=   270 RedAO= T EigKep=  2.22D-04  NBF=   270
 NBsUse=   270 1.00D-06 EigRej= -1.00D+00 NBFU=   270
 ExpMin= 1.22D-01 ExpMax= 2.89D+03 ExpMxC= 4.35D+02 IAcc=3 IRadAn=         5 AccDes= 0.00D+00
 Harris functional with IExCor= 4639 and IRadAn=       5 diagonalized for initial guess.
 HarFok:  IExCor= 4639 AccDes= 0.00D+00 IRadAn=         5 IDoV= 1 UseB2=F ITyADJ=14
 ICtDFT=  3500011 ScaDFX=  1.000000  1.000000  1.000000  1.000000
 FoFCou: FMM=F IPFlag=           0 FMFlag=      100000 FMFlg1=           0
         NFxFlg=           0 DoJE=T BraDBF=F KetDBF=T FulRan=T
         wScrn=  0.000000 ICntrl=       500 IOpCl=  0 I1Cent=   200000004 NGrid=           0
         NMat0=    1 NMatS0=      1 NMatT0=    0 NMatD0=    1 NMtDS0=    0 NMtDT0=    0
 Petite list used in FoFCou.
 Requested convergence on RMS density matrix=1.00D-08 within 128 cycles.
 Requested convergence on MAX density matrix=1.00D-06.
 Requested convergence on             energy=1.00D-06.
 No special actions if energy rises.
 Integral accuracy reduced to 1.0D-05 until final iterations.
 Initial convergence to 1.0D-05 achieved.  Increase integral accuracy.
 SCF Done:  E(RwB97XD) =  -656.502960840     A.U. after   15 cycles
            NFock= 15  Conv=0.48D-08     -V/T= 2.0099

 **********************************************************************

            Population analysis using the SCF Density.

 **********************************************************************

 Orbital symmetries:
       Occupied  (A) (A) (A) (A) (A) (A) (A) (A) (A) (A) (A) (A)
                 (A) (A) (A) (A) (A) (A) (A) (A) (A) (A) (A) (A)
                 (A) (A) (A) (A) (A) (A) (A) (A) (A) (A) (A) (A)
                 (A) (A) (A) (A) (A) (A) (A) (A) (A) (A) (A) (A)
                 (A) (A) (A) (A) (A)
       Virtual   (A) (A) (A) (A) (A) (A) (A) (A) (A) (A) (A) (A)
                 (A) (A) (A) (A) (A) (A) (A) (A) (A) (A) (A) (A)
                 (A) (A) (A) (A) (A) (A) (A) (A) (A) (A) (A) (A)
                 (A) (A) (A) (A) (A) (A) (A) (A) (A) (A) (A) (A)
                 (A) (A) (A) (A) (A) (A) (A) (A) (A) (A) (A) (A)
                 (A) (A) (A) (A) (A) (A) (A) (A) (A) (A) (A) (A)
                 (A) (A) (A) (A) (A) (A) (A) (A) (A) (A) (A) (A)
                 (A) (A) (A) (A) (A) (A) (A) (A) (A) (A) (A) (A)
                 (A) (A) (A) (A) (A) (A) (A) (A) (A) (A) (A) (A)
                 (A) (A) (A) (A) (A) (A) (A) (A) (A) (A) (A) (A)
                 (A) (A) (A) (A) (A) (A) (A) (A) (A) (A) (A) (A)
                 (A) (A) (A) (A) (A) (A) (A) (A) (A) (A) (A) (A)
                 (A) (A) (A) (A) (A) (A) (A) (A) (A) (A) (A) (A)
                 (A) (A) (A) (A) (A) (A) (A) (A) (A) (A) (A) (A)
                 (A) (A) (A) (A) (A) (A) (A) (A) (A) (A) (A) (A)
                 (A) (A) (A) (A) (A) (A) (A) (A) (A) (A) (A) (A)
                 (A) (A) (A) (A) (A) (A) (A) (A) (A) (A) (A) (A)
                 (A) (A) (A) (A) (A) (A) (A) (A) (A) (A) (A) (A)
                 (A)
 The electronic state is 1-A.
 Alpha  occ. eigenvalues --  -24.81833 -14.47263 -10.38053 -10.35141 -10.34498
 Alpha  occ. eigenvalues --  -10.33516 -10.30677 -10.30302 -10.30194 -10.30140
 Alpha  occ. eigenvalues --  -10.29895 -10.29710 -10.29606 -10.29554 -10.29377
 Alpha  occ. eigenvalues --   -1.29729  -1.04910  -0.96362  -0.94752  -0.85684
 Alpha  occ. eigenvalues --   -0.85474  -0.84542  -0.83330  -0.78000  -0.72409
 Alpha  occ. eigenvalues --   -0.70682  -0.69869  -0.67607  -0.64122  -0.61911
 Alpha  occ. eigenvalues --   -0.58918  -0.58214  -0.56969  -0.56243  -0.55045
 Alpha  occ. eigenvalues --   -0.54328  -0.53190  -0.52667  -0.52095  -0.51270
 Alpha  occ. eigenvalues --   -0.48798  -0.48399  -0.46835  -0.46205  -0.45553
 Alpha  occ. eigenvalues --   -0.44857  -0.43335  -0.42995  -0.38761  -0.34282
 Alpha  occ. eigenvalues --   -0.33908  -0.32774  -0.26906
 Alpha virt. eigenvalues --    0.04756   0.05586   0.07053   0.08582   0.13568
 Alpha virt. eigenvalues --    0.14902   0.16315   0.17930   0.19347   0.20241
 Alpha virt. eigenvalues --    0.20318   0.20575   0.21852   0.22246   0.23303
 Alpha virt. eigenvalues --    0.23665   0.24070   0.24518   0.25836   0.26418
 Alpha virt. eigenvalues --    0.31157   0.34244   0.35899   0.36631   0.37194
 Alpha virt. eigenvalues --    0.37519   0.39480   0.40229   0.40991   0.41699
 Alpha virt. eigenvalues --    0.43535   0.44867   0.47458   0.48710   0.49380
 Alpha virt. eigenvalues --    0.50739   0.51065   0.51892   0.52958   0.53757
 Alpha virt. eigenvalues --    0.55072   0.56010   0.57070   0.57624   0.58264
 Alpha virt. eigenvalues --    0.58308   0.59465   0.60919   0.62423   0.63244
 Alpha virt. eigenvalues --    0.64741   0.65102   0.65482   0.66727   0.67042
 Alpha virt. eigenvalues --    0.68889   0.71106   0.71886   0.72466   0.73308
 Alpha virt. eigenvalues --    0.73654   0.74140   0.74670   0.75541   0.75909
 Alpha virt. eigenvalues --    0.76601   0.77061   0.77569   0.78499   0.79955
 Alpha virt. eigenvalues --    0.81273   0.81633   0.83250   0.83540   0.84775
 Alpha virt. eigenvalues --    0.85227   0.86501   0.88042   0.88565   0.89942
 Alpha virt. eigenvalues --    0.90981   0.91669   0.92804   0.95361   0.96500
 Alpha virt. eigenvalues --    0.99613   1.02615   1.05139   1.05788   1.08141
 Alpha virt. eigenvalues --    1.11210   1.16478   1.18121   1.19679   1.22406
 Alpha virt. eigenvalues --    1.25196   1.27329   1.28632   1.31183   1.31841
 Alpha virt. eigenvalues --    1.32517   1.33969   1.35233   1.36354   1.36902
 Alpha virt. eigenvalues --    1.37625   1.38219   1.39855   1.40420   1.41030
 Alpha virt. eigenvalues --    1.43544   1.45988   1.56968   1.57531   1.58546
 Alpha virt. eigenvalues --    1.58990   1.63034   1.63960   1.67622   1.70355
 Alpha virt. eigenvalues --    1.75648   1.76830   1.77792   1.78555   1.79463
 Alpha virt. eigenvalues --    1.80568   1.81269   1.82354   1.82946   1.83920
 Alpha virt. eigenvalues --    1.85312   1.85592   1.86569   1.86763   1.88192
 Alpha virt. eigenvalues --    1.89120   1.89377   1.90576   1.91502   1.91753
 Alpha virt. eigenvalues --    1.92302   1.93841   1.96308   1.97066   2.00217
 Alpha virt. eigenvalues --    2.01417   2.03707   2.04515   2.06021   2.07296
 Alpha virt. eigenvalues --    2.08202   2.09794   2.10643   2.12660   2.14567
 Alpha virt. eigenvalues --    2.16316   2.19378   2.21381   2.23183   2.24291
 Alpha virt. eigenvalues --    2.25813   2.26312   2.27796   2.28908   2.29301
 Alpha virt. eigenvalues --    2.32159   2.32629   2.35270   2.37281   2.37575
 Alpha virt. eigenvalues --    2.39490   2.40094   2.40840   2.42416   2.43332
 Alpha virt. eigenvalues --    2.45426   2.46239   2.50977   2.53882   2.56979
 Alpha virt. eigenvalues --    2.62139   2.64634   2.68045   2.69501   2.69719
 Alpha virt. eigenvalues --    2.72624   2.73219   2.74803   2.76279   2.77835
 Alpha virt. eigenvalues --    2.80666   2.84309   2.84803   2.85529   2.87761
 Alpha virt. eigenvalues --    2.92613   2.95705   2.97961   2.99511   3.00388
 Alpha virt. eigenvalues --    3.03673   3.04530   3.08762   3.12730   3.14161
 Alpha virt. eigenvalues --    3.17599   3.19243   3.22019   3.24817   3.29021
 Alpha virt. eigenvalues --    3.36150   3.40175   3.44843   3.64776   3.66746
 Alpha virt. eigenvalues --    3.79156   3.98760
          Condensed to atoms (all electrons):
               1          2          3          4          5          6
     1  F    8.976482   0.370720  -0.072791   0.005327  -0.000005   0.000000
     2  C    0.370720   4.873728   0.185340   0.170736   0.008487  -0.000194
     3  C   -0.072791   0.185340   5.526748   0.171778  -0.088094   0.006403
     4  C    0.005327   0.170736   0.171778   5.097278   0.346536  -0.052588
     5  N   -0.000005   0.008487  -0.088094   0.346536   6.807774   0.338437
     6  C    0.000000  -0.000194   0.006403  -0.052588   0.338437   4.434186
     7  C   -0.000008  -0.000367  -0.003411  -0.047423   0.302811  -0.049530
     8  C    0.000000  -0.000055   0.000789   0.004409  -0.075619  -0.007905
     9  C    0.000000   0.000005   0.000042  -0.000163   0.008379   0.000407
    10  C   -0.000000  -0.000004   0.000028   0.000026  -0.000409   0.000007
    11  C    0.000001   0.000061  -0.001973   0.000247   0.009161  -0.000096
    12  C   -0.000004  -0.000569  -0.005257  -0.007445  -0.076225   0.003964
    13  C   -0.000338  -0.172331   0.085971   0.230870  -0.089122   0.004280
    14  C    0.005127   0.147022  -0.152478   0.138141   0.008990   0.000403
    15  C   -0.065154   0.221140   0.035782  -0.164853  -0.001091   0.000131
    16  H    0.002403  -0.062337   0.439185  -0.062643  -0.015351   0.000020
    17  H   -0.000000   0.000003  -0.000115   0.005975  -0.017526   0.400723
    18  H   -0.000000   0.000066  -0.000650  -0.011619  -0.031483   0.400733
    19  H    0.000000  -0.000062   0.000241  -0.006013  -0.028861   0.402714
    20  H   -0.000000   0.000002  -0.000020  -0.000334  -0.010215   0.001295
    21  H   -0.000000  -0.000000  -0.000002   0.000007  -0.000143  -0.000013
    22  H   -0.000000  -0.000000  -0.000001   0.000001   0.000008   0.000000
    23  H   -0.000000   0.000002   0.000046  -0.000022  -0.000134   0.000005
    24  H    0.000022  -0.000354   0.001347   0.004053  -0.011669  -0.000157
    25  H    0.000003  -0.002522   0.017532  -0.077835  -0.016092   0.010888
    26  H   -0.000049   0.013645  -0.002766   0.015535  -0.000100  -0.000028
    27  H    0.001094  -0.063611   0.019490  -0.002228   0.000009  -0.000000
               7          8          9         10         11         12
     1  F   -0.000008   0.000000   0.000000  -0.000000   0.000001  -0.000004
     2  C   -0.000367  -0.000055   0.000005  -0.000004   0.000061  -0.000569
     3  C   -0.003411   0.000789   0.000042   0.000028  -0.001973  -0.005257
     4  C   -0.047423   0.004409  -0.000163   0.000026   0.000247  -0.007445
     5  N    0.302811  -0.075619   0.008379  -0.000409   0.009161  -0.076225
     6  C   -0.049530  -0.007905   0.000407   0.000007  -0.000096   0.003964
     7  C    5.133960   0.278095   0.114176  -0.166562   0.119814   0.270373
     8  C    0.278095   5.153968   0.278825   0.086680  -0.149178   0.060393
     9  C    0.114176   0.278825   5.046007   0.282174   0.099629  -0.149280
    10  C   -0.166562   0.086680   0.282174   5.102549   0.273276   0.089304
    11  C    0.119814  -0.149178   0.099629   0.273276   5.066733   0.265620
    12  C    0.270373   0.060393  -0.149280   0.089304   0.265620   5.165875
    13  C    0.006943  -0.000405   0.000001   0.000001  -0.000041   0.000393
    14  C   -0.000112   0.000002  -0.000000  -0.000000   0.000002  -0.000006
    15  C   -0.000013  -0.000000  -0.000000   0.000000  -0.000002  -0.000034
    16  H    0.005593  -0.001047   0.000063   0.000008  -0.000233   0.002305
    17  H   -0.008240   0.003716   0.000482  -0.000071   0.000001  -0.000027
    18  H    0.004444   0.000038   0.000030  -0.000003  -0.000068   0.000919
    19  H    0.002252   0.001185  -0.000058   0.000000   0.000029  -0.000561
    20  H   -0.071704   0.452741  -0.066053   0.014952  -0.002603   0.016369
    21  H    0.015233  -0.065309   0.450409  -0.070396   0.014058  -0.002022
    22  H   -0.001692   0.014636  -0.069647   0.453386  -0.069328   0.014774
    23  H    0.015355  -0.002180   0.014317  -0.072082   0.453446  -0.066669
    24  H   -0.070271   0.016150  -0.002524   0.014850  -0.069137   0.461381
    25  H   -0.000128   0.000012   0.000000   0.000000  -0.000001  -0.000016
    26  H    0.000006  -0.000000   0.000000  -0.000000  -0.000000  -0.000000
    27  H    0.000001   0.000000  -0.000000  -0.000000  -0.000000   0.000001
              13         14         15         16         17         18
     1  F   -0.000338   0.005127  -0.065154   0.002403  -0.000000  -0.000000
     2  C   -0.172331   0.147022   0.221140  -0.062337   0.000003   0.000066
     3  C    0.085971  -0.152478   0.035782   0.439185  -0.000115  -0.000650
     4  C    0.230870   0.138141  -0.164853  -0.062643   0.005975  -0.011619
     5  N   -0.089122   0.008990  -0.001091  -0.015351  -0.017526  -0.031483
     6  C    0.004280   0.000403   0.000131   0.000020   0.400723   0.400733
     7  C    0.006943  -0.000112  -0.000013   0.005593  -0.008240   0.004444
     8  C   -0.000405   0.000002  -0.000000  -0.001047   0.003716   0.000038
     9  C    0.000001  -0.000000  -0.000000   0.000063   0.000482   0.000030
    10  C    0.000001  -0.000000   0.000000   0.000008  -0.000071  -0.000003
    11  C   -0.000041   0.000002  -0.000002  -0.000233   0.000001  -0.000068
    12  C    0.000393  -0.000006  -0.000034   0.002305  -0.000027   0.000919
    13  C    5.254664   0.233006   0.106521   0.016162   0.000553   0.003135
    14  C    0.233006   5.096888   0.195842  -0.003199  -0.000047   0.000922
    15  C    0.106521   0.195842   5.366608   0.019337   0.000004  -0.000071
    16  H    0.016162  -0.003199   0.019337   0.637650  -0.000013  -0.000034
    17  H    0.000553  -0.000047   0.000004  -0.000013   0.600158  -0.020621
    18  H    0.003135   0.000922  -0.000071  -0.000034  -0.020621   0.651050
    19  H    0.004803   0.000771  -0.000080   0.000036  -0.019009  -0.038619
    20  H   -0.000022   0.000000   0.000000  -0.000045   0.000774   0.000299
    21  H   -0.000000   0.000000   0.000000  -0.000004   0.000048  -0.000002
    22  H    0.000000  -0.000000   0.000000   0.000000  -0.000001  -0.000000
    23  H   -0.000000   0.000000  -0.000000   0.000026   0.000001   0.000001
    24  H   -0.000653   0.000038  -0.000027  -0.002610  -0.000035   0.000016
    25  H    0.462208  -0.072571   0.015919  -0.000143   0.000025  -0.001631
    26  H   -0.068284   0.455587  -0.067731   0.000019  -0.000001   0.000023
    27  H    0.014777  -0.067150   0.437972  -0.000373  -0.000000   0.000000
              19         20         21         22         23         24
     1  F    0.000000  -0.000000  -0.000000  -0.000000  -0.000000   0.000022
     2  C   -0.000062   0.000002  -0.000000  -0.000000   0.000002  -0.000354
     3  C    0.000241  -0.000020  -0.000002  -0.000001   0.000046   0.001347
     4  C   -0.006013  -0.000334   0.000007   0.000001  -0.000022   0.004053
     5  N   -0.028861  -0.010215  -0.000143   0.000008  -0.000134  -0.011669
     6  C    0.402714   0.001295  -0.000013   0.000000   0.000005  -0.000157
     7  C    0.002252  -0.071704   0.015233  -0.001692   0.015355  -0.070271
     8  C    0.001185   0.452741  -0.065309   0.014636  -0.002180   0.016150
     9  C   -0.000058  -0.066053   0.450409  -0.069647   0.014317  -0.002524
    10  C    0.000000   0.014952  -0.070396   0.453386  -0.072082   0.014850
    11  C    0.000029  -0.002603   0.014058  -0.069328   0.453446  -0.069137
    12  C   -0.000561   0.016369  -0.002022   0.014774  -0.066669   0.461381
    13  C    0.004803  -0.000022  -0.000000   0.000000  -0.000000  -0.000653
    14  C    0.000771   0.000000   0.000000  -0.000000   0.000000   0.000038
    15  C   -0.000080   0.000000   0.000000   0.000000  -0.000000  -0.000027
    16  H    0.000036  -0.000045  -0.000004   0.000000   0.000026  -0.002610
    17  H   -0.019009   0.000774   0.000048  -0.000001   0.000001  -0.000035
    18  H   -0.038619   0.000299  -0.000002  -0.000000   0.000001   0.000016
    19  H    0.639994  -0.000702   0.000002   0.000000  -0.000000   0.000002
    20  H   -0.000702   0.677546  -0.013071  -0.000227   0.000026  -0.000194
    21  H    0.000002  -0.013071   0.670715  -0.012272  -0.000262   0.000021
    22  H    0.000000  -0.000227  -0.012272   0.671177  -0.012242  -0.000222
    23  H   -0.000000   0.000026  -0.000262  -0.012242   0.667808  -0.012538
    24  H    0.000002  -0.000194   0.000021  -0.000222  -0.012538   0.655831
    25  H   -0.001258  -0.000003  -0.000000   0.000000  -0.000000  -0.000012
    26  H    0.000001  -0.000000  -0.000000   0.000000   0.000000  -0.000001
    27  H   -0.000000   0.000000   0.000000   0.000000   0.000000  -0.000001
              25         26         27
     1  F    0.000003  -0.000049   0.001094
     2  C   -0.002522   0.013645  -0.063611
     3  C    0.017532  -0.002766   0.019490
     4  C   -0.077835   0.015535  -0.002228
     5  N   -0.016092  -0.000100   0.000009
     6  C    0.010888  -0.000028  -0.000000
     7  C   -0.000128   0.000006   0.000001
     8  C    0.000012  -0.000000   0.000000
     9  C    0.000000   0.000000  -0.000000
    10  C    0.000000  -0.000000  -0.000000
    11  C   -0.000001  -0.000000  -0.000000
    12  C   -0.000016  -0.000000   0.000001
    13  C    0.462208  -0.068284   0.014777
    14  C   -0.072571   0.455587  -0.067150
    15  C    0.015919  -0.067731   0.437972
    16  H   -0.000143   0.000019  -0.000373
    17  H    0.000025  -0.000001  -0.000000
    18  H   -0.001631   0.000023   0.000000
    19  H   -0.001258   0.000001  -0.000000
    20  H   -0.000003  -0.000000   0.000000
    21  H   -0.000000  -0.000000   0.000000
    22  H    0.000000   0.000000   0.000000
    23  H   -0.000000   0.000000   0.000000
    24  H   -0.000012  -0.000001  -0.000001
    25  H    0.691542  -0.013352  -0.000207
    26  H   -0.013352   0.662556  -0.012922
    27  H   -0.000207  -0.012922   0.658315
 Mulliken charges:
               1
     1  F   -0.222830
     2  C    0.311448
     3  C   -0.163165
     4  C    0.242247
     5  N   -0.368453
     6  C    0.105915
     7  C    0.150405
     8  C   -0.049943
     9  C   -0.007221
    10  C   -0.007711
    11  C   -0.009419
    12  C   -0.043557
    13  C   -0.093092
    14  C    0.012821
    15  C   -0.100199
    16  H    0.025226
    17  H    0.053245
    18  H    0.043124
    19  H    0.043193
    20  H    0.001187
    21  H    0.013003
    22  H    0.011649
    23  H    0.015098
    24  H    0.016697
    25  H   -0.012360
    26  H    0.017862
    27  H    0.014831
 Sum of Mulliken charges =  -0.00000
 Mulliken charges with hydrogens summed into heavy atoms:
               1
     1  F   -0.222830
     2  C    0.311448
     3  C   -0.137939
     4  C    0.242247
     5  N   -0.368453
     6  C    0.245477
     7  C    0.150405
     8  C   -0.048756
     9  C    0.005781
    10  C    0.003938
    11  C    0.005679
    12  C   -0.026861
    13  C   -0.105452
    14  C    0.030683
    15  C   -0.085367
 Electronic spatial extent (au):  <R**2>=           3489.9859
 Charge=             -0.0000 electrons
 Dipole moment (field-independent basis, Debye):
    X=             -1.1887    Y=              2.2910    Z=              0.3452  Tot=              2.6040
 Quadrupole moment (field-independent basis, Debye-Ang):
   XX=            -81.2363   YY=            -83.0686   ZZ=            -88.0644
   XY=              4.9646   XZ=              3.8511   YZ=             -2.8877
 Traceless Quadrupole moment (field-independent basis, Debye-Ang):
   XX=              2.8868   YY=              1.0545   ZZ=             -3.9413
   XY=              4.9646   XZ=              3.8511   YZ=             -2.8877
 Octapole moment (field-independent basis, Debye-Ang**2):
  XXX=             19.4706  YYY=             11.0749  ZZZ=             -5.5436  XYY=             -7.6290
  XXY=             -2.1736  XXZ=             -5.3688  XZZ=             -1.0892  YZZ=             -5.9227
  YYZ=              5.3630  XYZ=              8.3011
 Hexadecapole moment (field-independent basis, Debye-Ang**3):
 XXXX=          -3064.5676 YYYY=          -1041.6442 ZZZZ=           -271.5254 XXXY=             27.0803
 XXXZ=             69.4790 YYYX=            -11.8736 YYYZ=             -2.7765 ZZZX=             -9.4315
 ZZZY=              1.5813 XXYY=           -717.6250 XXZZ=           -610.8901 YYZZ=           -214.2423
 XXYZ=            -13.3909 YYXZ=              1.1028 ZZXY=            -16.3888
 N-N= 9.226239568779D+02 E-N=-3.371703180171D+03  KE= 6.500768835029D+02
   1 Symmetry operations used in ECPInt.
 ECPInt:  NShTT=    8001 NPrTT=   29151 LenC2=    7582 LenP2D=   20285.
 LDataN:  DoStor=T MaxTD1= 5 Len=  102
 Calling FoFJK, ICntrl=      2127 FMM=F ISym2X=0 I1Cent= 0 IOpClX= 0 NMat=1 NMatS=1 NMatT=0.
 ***** Axes restored to original set *****
 -------------------------------------------------------------------
 Center     Atomic                   Forces (Hartrees/Bohr)
 Number     Number              X              Y              Z
 -------------------------------------------------------------------
      1        9           0.003765963    0.021719938   -0.004426348
      2        6          -0.000157302   -0.005049159    0.000117025
      3        6           0.003159020   -0.012653440    0.005260941
      4        6           0.027045316    0.008246605   -0.000450169
      5        7          -0.001573738   -0.006855151    0.001762669
      6        6          -0.005730550   -0.018632379   -0.001657462
      7        6          -0.017265198    0.008736749    0.000640609
      8        6          -0.010143097    0.004135551   -0.000153625
      9        6           0.004011516   -0.001311567   -0.001438949
     10        6           0.005864074   -0.003728071    0.000449063
     11        6           0.001264839   -0.002502846    0.000421906
     12        6          -0.004933153    0.006799082   -0.000707536
     13        6           0.008945466    0.008463146   -0.000518296
     14        6           0.001847507   -0.004624971    0.002431740
     15        6          -0.012508693   -0.013081545    0.001507620
     16        1           0.008749565   -0.008285069    0.003541619
     17        1           0.005275802   -0.001146891    0.000210806
     18        1          -0.002292842    0.007586434   -0.007672361
     19        1          -0.004601727    0.005566984    0.006277073
     20        1           0.000226295    0.008277577    0.008534903
     21        1           0.007608131    0.001863141    0.006928720
     22        1           0.008388898   -0.006223435   -0.000402320
     23        1          -0.000079970   -0.007291207   -0.007494519
     24        1          -0.008304036   -0.002013869   -0.007477105
     25        1           0.000301117    0.010625250   -0.002645856
     26        1          -0.007659453    0.005648659   -0.002432448
     27        1          -0.011203751   -0.004269516   -0.000607696
 -------------------------------------------------------------------
 Cartesian Forces:  Max     0.027045316 RMS     0.007435075

 GradGradGradGradGradGradGradGradGradGradGradGradGradGradGradGradGradGrad
 Berny optimization.
 FormGI is forming the generalized inverse of G from B-inverse, IUseBI=4.
 Internal  Forces:  Max     0.023268936 RMS     0.006290243
 Search for a local minimum.
 Step number   1 out of a maximum of  145
 All quantities printed in internal units (Hartrees-Bohrs-Radians)
 Mixed Optimization -- RFO/linear search
 Second derivative matrix not updated -- first step.
 ITU=  0
     Eigenvalues ---    0.00869   0.01130   0.01255   0.01367   0.01886
     Eigenvalues ---    0.01928   0.02188   0.02197   0.02265   0.02270
     Eigenvalues ---    0.02285   0.02291   0.02323   0.02330   0.02339
     Eigenvalues ---    0.02340   0.02345   0.02356   0.02358   0.02372
     Eigenvalues ---    0.02378   0.02379   0.07396   0.07449   0.15993
     Eigenvalues ---    0.15997   0.15999   0.15999   0.16000   0.16000
     Eigenvalues ---    0.16000   0.16000   0.16000   0.16000   0.16000
     Eigenvalues ---    0.16000   0.22000   0.22000   0.22000   0.23459
     Eigenvalues ---    0.23468   0.23487   0.24995   0.24995   0.24997
     Eigenvalues ---    0.25000   0.25000   0.35019   0.35042   0.35088
     Eigenvalues ---    0.36276   0.36278   0.36278   0.36280   0.36477
     Eigenvalues ---    0.36510   0.36544   0.36596   0.36689   0.36814
     Eigenvalues ---    0.40563   0.41787   0.43091   0.43206   0.43809
     Eigenvalues ---    0.43898   0.47356   0.47380   0.47930   0.47968
     Eigenvalues ---    0.49034   0.49135   0.49562   0.49798   0.53268
 RFO step:  Lambda=-1.40786943D-02 EMin= 8.68830711D-03
 Linear search not attempted -- first point.
 Iteration  1 RMS(Cart)=  0.05841588 RMS(Int)=  0.00078278
 Iteration  2 RMS(Cart)=  0.00132371 RMS(Int)=  0.00011473
 Iteration  3 RMS(Cart)=  0.00000111 RMS(Int)=  0.00011473
 Iteration  4 RMS(Cart)=  0.00000000 RMS(Int)=  0.00011473
 Variable       Old X    -DE/DX   Delta X   Delta X   Delta X     New X
                                 (Linear)    (Quad)   (Total)
    R1        2.56705  -0.02248   0.00000  -0.04111  -0.04111   2.52594
    R2        2.60516   0.00641   0.00000   0.01221   0.01229   2.61746
    R3        2.61450   0.00624   0.00000   0.01221   0.01230   2.62680
    R4        2.63234   0.01216   0.00000   0.02508   0.02507   2.65741
    R5        2.02828   0.01252   0.00000   0.03275   0.03275   2.06103
    R6        2.69195  -0.02327   0.00000  -0.05387  -0.05387   2.63808
    R7        2.63508   0.01138   0.00000   0.02405   0.02396   2.65904
    R8        2.76318  -0.00775   0.00000  -0.02035  -0.02035   2.74283
    R9        2.70795  -0.01471   0.00000  -0.03504  -0.03504   2.67291
   R10        2.05532   0.00488   0.00000   0.01337   0.01337   2.06869
   R11        2.05607   0.01054   0.00000   0.02892   0.02892   2.08499
   R12        2.05645   0.00929   0.00000   0.02550   0.02550   2.08195
   R13        2.63547   0.00718   0.00000   0.01436   0.01435   2.64982
   R14        2.63534   0.00850   0.00000   0.01715   0.01714   2.65249
   R15        2.60111   0.01697   0.00000   0.03313   0.03313   2.63424
   R16        2.03291   0.01186   0.00000   0.03127   0.03127   2.06418
   R17        2.60986   0.01286   0.00000   0.02611   0.02612   2.63598
   R18        2.03652   0.01044   0.00000   0.02769   0.02769   2.06422
   R19        2.60956   0.01415   0.00000   0.02871   0.02872   2.63827
   R20        2.03646   0.01045   0.00000   0.02773   0.02773   2.06419
   R21        2.60029   0.01623   0.00000   0.03171   0.03171   2.63201
   R22        2.03649   0.01043   0.00000   0.02768   0.02768   2.06417
   R23        2.03342   0.01133   0.00000   0.02991   0.02991   2.06333
   R24        2.60149   0.01752   0.00000   0.03468   0.03460   2.63609
   R25        2.03160   0.01086   0.00000   0.02859   0.02859   2.06019
   R26        2.60712   0.01109   0.00000   0.02206   0.02207   2.62919
   R27        2.03649   0.00982   0.00000   0.02606   0.02606   2.06255
   R28        2.03240   0.01199   0.00000   0.03160   0.03160   2.06400
    A1        2.09780  -0.00799   0.00000  -0.03016  -0.03027   2.06753
    A2        2.10363  -0.00716   0.00000  -0.02702  -0.02714   2.07650
    A3        2.08175   0.01514   0.00000   0.05718   0.05734   2.13910
    A4        2.12078  -0.00783   0.00000  -0.03328  -0.03320   2.08758
    A5        2.06834   0.00286   0.00000   0.01058   0.01054   2.07888
    A6        2.09387   0.00498   0.00000   0.02275   0.02270   2.11658
    A7        2.09825   0.00435   0.00000   0.01557   0.01551   2.11377
    A8        2.06043   0.00166   0.00000   0.00770   0.00750   2.06793
    A9        2.12433  -0.00602   0.00000  -0.02370  -0.02372   2.10061
   A10        2.07980  -0.00474   0.00000  -0.01805  -0.01807   2.06173
   A11        2.13231   0.00155   0.00000   0.00578   0.00575   2.13805
   A12        2.07088   0.00319   0.00000   0.01201   0.01198   2.08285
   A13        1.93459  -0.00488   0.00000  -0.03083  -0.03066   1.90393
   A14        1.92127   0.00482   0.00000   0.02889   0.02875   1.95001
   A15        1.92211   0.00323   0.00000   0.02010   0.01991   1.94202
   A16        1.88269  -0.00070   0.00000  -0.00714  -0.00693   1.87576
   A17        1.89572   0.00030   0.00000  -0.00067  -0.00055   1.89517
   A18        1.90671  -0.00290   0.00000  -0.01122  -0.01167   1.89504
   A19        2.11386  -0.00348   0.00000  -0.01214  -0.01219   2.10167
   A20        2.10361   0.00103   0.00000   0.00494   0.00488   2.10849
   A21        2.06571   0.00244   0.00000   0.00712   0.00704   2.07275
   A22        2.10621  -0.00046   0.00000  -0.00314  -0.00317   2.10305
   A23        2.07899   0.00114   0.00000   0.00692   0.00691   2.08589
   A24        2.09759  -0.00067   0.00000  -0.00351  -0.00352   2.09407
   A25        2.09743   0.00096   0.00000   0.00537   0.00535   2.10278
   A26        2.09311  -0.00115   0.00000  -0.00657  -0.00658   2.08653
   A27        2.09263   0.00019   0.00000   0.00116   0.00114   2.09377
   A28        2.09291  -0.00319   0.00000  -0.01096  -0.01096   2.08195
   A29        2.09520   0.00151   0.00000   0.00500   0.00499   2.10019
   A30        2.09507   0.00168   0.00000   0.00597   0.00596   2.10104
   A31        2.09599   0.00126   0.00000   0.00692   0.00689   2.10288
   A32        2.09375   0.00004   0.00000   0.00040   0.00038   2.09413
   A33        2.09345  -0.00130   0.00000  -0.00733  -0.00735   2.08609
   A34        2.10811  -0.00102   0.00000  -0.00529  -0.00530   2.10281
   A35        2.07363   0.00125   0.00000   0.00694   0.00694   2.08058
   A36        2.10136  -0.00023   0.00000  -0.00160  -0.00160   2.09976
   A37        2.10604  -0.00194   0.00000  -0.00533  -0.00552   2.10052
   A38        2.08685   0.00239   0.00000   0.01079   0.01089   2.09773
   A39        2.09026  -0.00044   0.00000  -0.00544  -0.00535   2.08491
   A40        2.09907   0.00356   0.00000   0.01779   0.01771   2.11679
   A41        2.09338  -0.00160   0.00000  -0.00790  -0.00786   2.08552
   A42        2.09074  -0.00195   0.00000  -0.00990  -0.00987   2.08087
   A43        2.09824  -0.01058   0.00000  -0.04418  -0.04407   2.05418
   A44        2.07182   0.00577   0.00000   0.02484   0.02478   2.09660
   A45        2.11311   0.00481   0.00000   0.01932   0.01926   2.13238
    D1        3.13852   0.00007   0.00000   0.00137   0.00144   3.13996
    D2       -0.02434   0.00016   0.00000   0.00416   0.00408  -0.02027
    D3       -0.00312  -0.00037   0.00000  -0.01058  -0.01060  -0.01371
    D4        3.11720  -0.00029   0.00000  -0.00779  -0.00796   3.10924
    D5        3.13801  -0.00049   0.00000  -0.01359  -0.01357   3.12444
    D6       -0.00042  -0.00034   0.00000  -0.00909  -0.00912  -0.00953
    D7       -0.00354  -0.00004   0.00000  -0.00159  -0.00147  -0.00501
    D8        3.14122   0.00011   0.00000   0.00290   0.00298  -3.13898
    D9        3.13203  -0.00036   0.00000  -0.00948  -0.00993   3.12210
   D10        0.00985   0.00054   0.00000   0.01547   0.01539   0.02524
   D11        0.01202  -0.00042   0.00000  -0.01215  -0.01246  -0.00044
   D12       -3.11016   0.00048   0.00000   0.01280   0.01286  -3.09730
   D13       -2.80797   0.00065   0.00000   0.01981   0.01981  -2.78815
   D14        0.35548   0.00097   0.00000   0.03383   0.03375   0.38923
   D15        0.31348  -0.00019   0.00000  -0.00570  -0.00561   0.30787
   D16       -2.80626   0.00013   0.00000   0.00833   0.00833  -2.79793
   D17       -0.01016  -0.00027   0.00000  -0.00838  -0.00857  -0.01873
   D18        3.14108  -0.00035   0.00000  -0.01060  -0.01069   3.13039
   D19       -3.13203   0.00052   0.00000   0.01649   0.01610  -3.11593
   D20        0.01921   0.00044   0.00000   0.01427   0.01397   0.03318
   D21        3.02253   0.00020   0.00000   0.00601   0.00603   3.02855
   D22       -1.17916  -0.00068   0.00000  -0.00383  -0.00411  -1.18327
   D23        0.92424   0.00087   0.00000   0.01362   0.01383   0.93807
   D24       -0.14014  -0.00013   0.00000  -0.00758  -0.00752  -0.14766
   D25        1.94135  -0.00101   0.00000  -0.01742  -0.01766   1.92370
   D26       -2.23842   0.00054   0.00000   0.00003   0.00028  -2.23815
   D27       -2.36714   0.00093   0.00000   0.03780   0.03777  -2.32937
   D28        0.77925   0.00160   0.00000   0.05843   0.05832   0.83757
   D29        0.79620   0.00135   0.00000   0.05212   0.05223   0.84843
   D30       -2.34060   0.00202   0.00000   0.07275   0.07278  -2.26781
   D31       -3.13967   0.00083   0.00000   0.02377   0.02366  -3.11601
   D32        0.03218   0.00046   0.00000   0.01369   0.01357   0.04575
   D33       -0.00277   0.00017   0.00000   0.00357   0.00352   0.00075
   D34       -3.11411  -0.00020   0.00000  -0.00651  -0.00657  -3.12068
   D35        3.13918  -0.00030   0.00000  -0.00940  -0.00957   3.12962
   D36        0.01119  -0.00045   0.00000  -0.01370  -0.01384  -0.00265
   D37        0.00226   0.00037   0.00000   0.01072   0.01070   0.01296
   D38       -3.12573   0.00022   0.00000   0.00642   0.00643  -3.11930
   D39        0.00191  -0.00054   0.00000  -0.01394  -0.01398  -0.01207
   D40       -3.13479  -0.00016   0.00000  -0.00389  -0.00391  -3.13870
   D41        3.11292  -0.00013   0.00000  -0.00357  -0.00366   3.10926
   D42       -0.02378   0.00025   0.00000   0.00649   0.00641  -0.01737
   D43       -0.00046   0.00037   0.00000   0.01006   0.01007   0.00960
   D44       -3.14044   0.00026   0.00000   0.00676   0.00678  -3.13366
   D45        3.13624  -0.00001   0.00000  -0.00001  -0.00007   3.13617
   D46       -0.00374  -0.00013   0.00000  -0.00332  -0.00336  -0.00709
   D47       -0.00005   0.00016   0.00000   0.00417   0.00419   0.00414
   D48        3.14083  -0.00033   0.00000  -0.00913  -0.00916   3.13167
   D49        3.13993   0.00028   0.00000   0.00747   0.00748  -3.13577
   D50       -0.00238  -0.00022   0.00000  -0.00583  -0.00587  -0.00825
   D51       -0.00088  -0.00054   0.00000  -0.01464  -0.01465  -0.01553
   D52        3.12689  -0.00037   0.00000  -0.01020  -0.01026   3.11663
   D53        3.14143  -0.00004   0.00000  -0.00135  -0.00136   3.14007
   D54       -0.01398   0.00012   0.00000   0.00309   0.00302  -0.01096
   D55        0.00383  -0.00018   0.00000  -0.00359  -0.00374   0.00009
   D56       -3.13701   0.00003   0.00000   0.00133   0.00132  -3.13569
   D57        3.13576  -0.00008   0.00000  -0.00127  -0.00154   3.13422
   D58       -0.00508   0.00012   0.00000   0.00364   0.00352  -0.00156
   D59        0.00318   0.00031   0.00000   0.00859   0.00864   0.01182
   D60        3.14153   0.00016   0.00000   0.00400   0.00410  -3.13756
   D61       -3.13916   0.00011   0.00000   0.00368   0.00359  -3.13557
   D62       -0.00081  -0.00005   0.00000  -0.00091  -0.00095  -0.00176
         Item               Value     Threshold  Converged?
 Maximum Force            0.023269     0.000450     NO 
 RMS     Force            0.006290     0.000300     NO 
 Maximum Displacement     0.169503     0.001800     NO 
 RMS     Displacement     0.058835     0.001200     NO 
 Predicted change in Energy=-7.440896D-03
 GradGradGradGradGradGradGradGradGradGradGradGradGradGradGradGradGradGrad

                          Input orientation:                          
 ---------------------------------------------------------------------
 Center     Atomic      Atomic             Coordinates (Angstroms)
 Number     Number       Type             X           Y           Z
 ---------------------------------------------------------------------
      1          9           0       -2.725643   -2.340807    0.613994
      2          6           0       -2.489652   -1.067546    0.282636
      3          6           0       -1.184251   -0.606191    0.322420
      4          6           0       -0.908254    0.728655   -0.023304
      5          7           0        0.392507    1.232873    0.028027
      6          6           0        0.566112    2.671961    0.102707
      7          6           0        1.533663    0.399376   -0.032769
      8          6           0        2.591466    0.577004    0.870410
      9          6           0        3.730020   -0.223517    0.792661
     10          6           0        3.827672   -1.222676   -0.175788
     11          6           0        2.776547   -1.406217   -1.076113
     12          6           0        1.643485   -0.598657   -1.013618
     13          6           0       -1.982822    1.567454   -0.372100
     14          6           0       -3.286298    1.071070   -0.393647
     15          6           0       -3.559716   -0.255107   -0.073905
     16          1           0       -0.391212   -1.284446    0.639555
     17          1           0        1.626889    2.897279    0.252235
     18          1           0        0.249734    3.170445   -0.829363
     19          1           0       -0.005500    3.100481    0.941404
     20          1           0        2.510703    1.336835    1.650984
     21          1           0        4.543694   -0.073607    1.505865
     22          1           0        4.717832   -1.853445   -0.229809
     23          1           0        2.844973   -2.179086   -1.844966
     24          1           0        0.833299   -0.729363   -1.733817
     25          1           0       -1.801730    2.609945   -0.634712
     26          1           0       -4.108670    1.732660   -0.671635
     27          1           0       -4.574006   -0.659981   -0.089615
 ---------------------------------------------------------------------
                    Distance matrix (angstroms):
                    1          2          3          4          5
     1  F    0.000000
     2  C    1.336669   0.000000
     3  C    2.338760   1.385100   0.000000
     4  C    3.623624   2.412624   1.406241   0.000000
     5  N    4.778850   3.696430   2.440285   1.396013   0.000000
     6  C    6.018713   4.832595   3.722677   2.442554   1.451443
     7  C    5.105741   4.293996   2.919655   2.464036   1.414444
     8  C    6.070505   5.372875   3.994532   3.615214   2.444421
     9  C    6.796354   6.297367   4.951528   4.804792   3.720851
    10  C    6.694767   6.335834   5.074213   5.124446   4.227484
    11  C    5.831296   5.449196   4.275962   4.386780   3.723918
    12  C    4.977297   4.356943   3.127482   3.042015   2.450403
    13  C    4.098618   2.762025   2.417603   1.407102   2.431919
    14  C    3.601469   2.380269   2.782905   2.430945   3.706427
    15  C    2.349261   1.390042   2.433755   2.828533   4.224280
    16  H    2.562444   2.139600   1.090649   2.181580   2.706488
    17  H    6.820040   5.715476   4.492409   3.347507   2.084278
    18  H    6.427289   5.167334   4.200702   2.820107   2.123602
    19  H    6.092125   4.896676   3.938530   2.714993   2.116749
    20  H    6.482261   5.714627   4.380995   3.855177   2.670496
    21  H    7.666739   7.207784   5.873121   5.718892   4.596004
    22  H    7.506986   7.268292   6.057655   6.193766   5.319801
    23  H    6.091337   5.849823   4.837996   5.085285   4.600452
    24  H    4.557964   3.901596   2.883364   2.843357   2.673718
    25  H    5.188722   3.852104   3.411879   2.170570   2.673991
    26  H    4.489849   3.372389   3.874351   3.416287   4.582566
    27  H    2.595513   2.156203   3.415129   3.920516   5.316295
                    6          7          8          9         10
     6  C    0.000000
     7  C    2.473692   0.000000
     8  C    3.013349   1.402224   0.000000
     9  C    4.343978   2.427615   1.393982   0.000000
    10  C    5.087586   2.813180   2.421071   1.394901   0.000000
    11  C    4.786143   2.427651   2.785027   2.408362   1.396115
    12  C    3.619925   1.403636   2.414624   2.785140   2.421163
    13  C    2.818233   3.720916   4.842410   6.099247   6.448659
    14  C    4.201224   4.879901   6.032417   7.232704   7.477788
    15  C    5.061756   5.135421   6.278629   7.341130   7.451179
    16  H    4.105828   2.644318   3.523444   4.258352   4.297392
    17  H    1.094703   2.515837   2.587706   3.801919   4.690488
    18  H    1.103329   3.156241   3.885727   5.124679   5.703360
    19  H    1.101719   3.257915   3.621769   5.002520   5.884813
    20  H    2.821552   2.160662   1.092318   2.158275   3.409193
    21  H    5.032709   3.413414   2.153669   1.092336   2.158936
    22  H    6.150337   3.905504   3.411598   2.162842   1.092325
    23  H    5.702568   3.413510   3.877314   3.400681   2.160225
    24  H    3.874689   2.158269   3.402903   3.876851   3.411317
    25  H    2.480788   4.046456   5.069361   6.377003   6.825670
    26  H    4.830681   5.832814   6.971748   8.210716   8.483242
    27  H    6.128591   6.199120   7.334560   8.362163   8.420941
                   11         12         13         14         15
    11  C    0.000000
    12  C    1.392798   0.000000
    13  C    5.655965   4.272433   0.000000
    14  C    6.584892   5.241671   1.394960   0.000000
    15  C    6.517492   5.298527   2.428424   1.391308   0.000000
    16  H    3.604586   2.709849   3.419064   3.872659   3.407049
    17  H    4.648257   3.718095   3.897209   5.281251   6.078221
    18  H    5.233689   4.022763   2.786211   4.135305   5.178516
    19  H    5.667494   4.497209   2.825821   4.082219   4.992322
    20  H    3.877120   3.405627   4.933337   6.152753   6.508418
    21  H    3.400775   3.877459   6.986791   8.138010   8.257958
    22  H    2.164448   3.411812   7.524730   8.523247   8.431892
    23  H    1.092311   2.152316   6.285976   7.089592   6.917976
    24  H    2.160305   1.091867   3.880744   4.691343   4.720043
    25  H    6.106145   4.723157   1.090205   2.151789   3.407865
    26  H    7.577754   6.216051   2.153194   1.091455   2.147056
    27  H    7.453903   6.286075   3.428630   2.178799   1.092224
                   16         17         18         19         20
    16  H    0.000000
    17  H    4.659353   0.000000
    18  H    4.734404   1.772295   0.000000
    19  H    4.412196   1.783519   1.790435   0.000000
    20  H    4.039209   2.274338   3.824425   3.153606   0.000000
    21  H    5.154602   4.348046   5.866452   5.575717   2.478600
    22  H    5.213625   5.688205   6.750025   6.944278   4.311228
    23  H    4.176854   5.625963   6.031931   6.615352   4.969416
    24  H    2.727717   4.210311   4.045626   4.746378   4.305779
    25  H    4.333544   3.553120   2.135545   2.439510   5.044036
    26  H    4.964035   5.925075   4.592144   4.616149   7.026189
    27  H    4.291551   7.156959   6.203858   6.006274   7.563733
                   21         22         23         24         25
    21  H    0.000000
    22  H    2.492130   0.000000
    23  H    4.306595   2.494469   0.000000
    24  H    4.969164   4.314534   2.482112   0.000000
    25  H    7.214426   7.911416   6.781694   4.393449   0.000000
    26  H    9.103160   9.537427   8.064218   5.622530   2.468393
    27  H    9.274796   9.369219   7.773685   5.652182   4.321466
                   26         27
    26  H    0.000000
    27  H    2.505996   0.000000
 Stoichiometry    C13H12FN
 Framework group  C1[X(C13H12FN)]
 Deg. of freedom    75
 Full point group                 C1      NOp   1
 Largest Abelian subgroup         C1      NOp   1
 Largest concise Abelian subgroup C1      NOp   1
                         Standard orientation:                         
 ---------------------------------------------------------------------
 Center     Atomic      Atomic             Coordinates (Angstroms)
 Number     Number       Type             X           Y           Z
 ---------------------------------------------------------------------
      1          9           0        2.695189   -2.467972   -0.626512
      2          6           0        2.496018   -1.190447   -0.287475
      3          6           0        1.204681   -0.690965   -0.325794
      4          6           0        0.967300    0.649195    0.027950
      5          7           0       -0.318135    1.191457   -0.021645
      6          6           0       -0.449596    2.635433   -0.087535
      7          6           0       -1.483193    0.391247    0.032715
      8          6           0       -2.534222    0.605261   -0.870484
      9          6           0       -3.695739   -0.162169   -0.798963
     10          6           0       -3.823717   -1.164042    0.163129
     11          6           0       -2.779532   -1.383752    1.063430
     12          6           0       -1.623320   -0.609222    1.007200
     13          6           0        2.065434    1.454106    0.383134
     14          6           0        3.353849    0.919780    0.402997
     15          6           0        3.588872   -0.411801    0.075286
     16          1           0        0.392598   -1.343814   -0.648013
     17          1           0       -1.503160    2.892527   -0.236805
     18          1           0       -0.119992    3.118683    0.847968
     19          1           0        0.135332    3.052288   -0.922924
     20          1           0       -2.430343    1.367239   -1.646216
     21          1           0       -4.503791    0.015838   -1.512099
     22          1           0       -4.731965   -1.768895    0.212250
     23          1           0       -2.871445   -2.159050    1.827372
     24          1           0       -0.818202   -0.767975    1.727448
     25          1           0        1.914495    2.499788    0.652048
     26          1           0        4.194816    1.555358    0.685997
     27          1           0        4.590901   -0.846184    0.089569
 ---------------------------------------------------------------------
 Rotational constants (GHZ):           1.1142410           0.3808253           0.3082824
 Standard basis: def2SVP (5D, 7F)
 There are   285 symmetry adapted cartesian basis functions of A   symmetry.
 There are   270 symmetry adapted basis functions of A   symmetry.
   270 basis functions,   459 primitive gaussians,   285 cartesian basis functions
    53 alpha electrons       53 beta electrons
       nuclear repulsion energy       920.4279844604 Hartrees.
 NAtoms=   27 NActive=   27 NUniq=   27 SFac= 1.00D+00 NAtFMM=   60 NAOKFM=F Big=F
 Integral buffers will be    131072 words long.
 Raffenetti 2 integral format.
 Two-electron integral symmetry is turned on.
 Nuclear repulsion after empirical dispersion term =      920.4103921037 Hartrees.
 One-electron integrals computed using PRISM.
   1 Symmetry operations used in ECPInt.
 ECPInt:  NShTT=    8001 NPrTT=   29151 LenC2=    7577 LenP2D=   20241.
 LDataN:  DoStor=T MaxTD1= 4 Len=   56
 NBasis=   270 RedAO= T EigKep=  2.53D-04  NBF=   270
 NBsUse=   270 1.00D-06 EigRej= -1.00D+00 NBFU=   270
 Initial guess from the checkpoint file:  "prod_5c_1.chk"
 B after Tr=     0.000000    0.000000   -0.000000
         Rot=    0.999988    0.003684    0.002755    0.001374 Ang=   0.55 deg.
 ExpMin= 1.22D-01 ExpMax= 2.89D+03 ExpMxC= 4.35D+02 IAcc=3 IRadAn=         5 AccDes= 0.00D+00
 Harris functional with IExCor= 4639 and IRadAn=       5 diagonalized for initial guess.
 HarFok:  IExCor= 4639 AccDes= 0.00D+00 IRadAn=         5 IDoV= 1 UseB2=F ITyADJ=14
 ICtDFT=  3500011 ScaDFX=  1.000000  1.000000  1.000000  1.000000
 FoFCou: FMM=F IPFlag=           0 FMFlag=      100000 FMFlg1=           0
         NFxFlg=           0 DoJE=T BraDBF=F KetDBF=T FulRan=T
         wScrn=  0.000000 ICntrl=       500 IOpCl=  0 I1Cent=   200000004 NGrid=           0
         NMat0=    1 NMatS0=      1 NMatT0=    0 NMatD0=    1 NMtDS0=    0 NMtDT0=    0
 Petite list used in FoFCou.
 Requested convergence on RMS density matrix=1.00D-08 within 128 cycles.
 Requested convergence on MAX density matrix=1.00D-06.
 Requested convergence on             energy=1.00D-06.
 No special actions if energy rises.
 Integral accuracy reduced to 1.0D-05 until final iterations.
 Initial convergence to 1.0D-05 achieved.  Increase integral accuracy.
 SCF Done:  E(RwB97XD) =  -656.509914510     A.U. after   14 cycles
            NFock= 14  Conv=0.57D-08     -V/T= 2.0106
   1 Symmetry operations used in ECPInt.
 ECPInt:  NShTT=    8001 NPrTT=   29151 LenC2=    7577 LenP2D=   20241.
 LDataN:  DoStor=T MaxTD1= 5 Len=  102
 Calling FoFJK, ICntrl=      2127 FMM=F ISym2X=0 I1Cent= 0 IOpClX= 0 NMat=1 NMatS=1 NMatT=0.
 ***** Axes restored to original set *****
 -------------------------------------------------------------------
 Center     Atomic                   Forces (Hartrees/Bohr)
 Number     Number              X              Y              Z
 -------------------------------------------------------------------
      1        9           0.000471274    0.001529687   -0.000296205
      2        6           0.000982146   -0.000414924    0.000054705
      3        6           0.000529649   -0.002344827    0.000423859
      4        6           0.003763589    0.001747362   -0.000174224
      5        7          -0.002536831    0.001841999    0.001228332
      6        6           0.001934352   -0.003390181   -0.000847616
      7        6          -0.000154548    0.000009578    0.000020657
      8        6          -0.000376662   -0.001558197    0.000112031
      9        6          -0.000142169   -0.000371921   -0.001046898
     10        6          -0.000709173    0.000749095    0.000143790
     11        6          -0.000105245    0.000525091    0.001202737
     12        6           0.000686724    0.000773962    0.000015486
     13        6          -0.002806007    0.000368448   -0.000181604
     14        6           0.002573181   -0.000564769    0.000511687
     15        6          -0.003389492   -0.000539128   -0.000144343
     16        1          -0.000683575   -0.000063756   -0.000562985
     17        1           0.000429110    0.000826317   -0.000200893
     18        1           0.000468907    0.000850078   -0.000132234
     19        1          -0.000299074    0.000484524   -0.000181534
     20        1           0.000237734   -0.000349707   -0.000018678
     21        1          -0.000164498    0.000171016    0.000104009
     22        1          -0.000389068    0.000236333    0.000002109
     23        1          -0.000195998    0.000148594   -0.000108130
     24        1          -0.000065692   -0.000328560    0.000263213
     25        1          -0.001534822   -0.001274780   -0.000031792
     26        1           0.000060120    0.000718938   -0.000200192
     27        1           0.001416066    0.000219727    0.000044712
 -------------------------------------------------------------------
 Cartesian Forces:  Max     0.003763589 RMS     0.001107771

 GradGradGradGradGradGradGradGradGradGradGradGradGradGradGradGradGradGrad
 Berny optimization.
 Using GEDIIS/GDIIS optimizer.
 FormGI is forming the generalized inverse of G from B-inverse, IUseBI=4.
 Internal  Forces:  Max     0.006003161 RMS     0.001060517
 Search for a local minimum.
 Step number   2 out of a maximum of  145
 All quantities printed in internal units (Hartrees-Bohrs-Radians)
 Mixed Optimization -- RFO/linear search
 Update second derivatives using D2CorX and points    1    2
 DE= -6.95D-03 DEPred=-7.44D-03 R= 9.35D-01
 TightC=F SS=  1.41D+00  RLast= 2.38D-01 DXNew= 5.0454D-01 7.1506D-01
 Trust test= 9.35D-01 RLast= 2.38D-01 DXMaxT set to 5.05D-01
 ITU=  1  0
 Use linear search instead of GDIIS.
[...]
 Alpha virt. eigenvalues --   22.79076  22.85847  22.86807  22.90851  23.07435
 Alpha virt. eigenvalues --   23.29556  23.39072  33.15860  57.44266
          Condensed to atoms (all electrons):
               1          2          3          4          5          6
     1  F    9.036508   0.274722  -0.069401   0.014825  -0.000078   0.000005
     2  C    0.274722   4.611192   0.393456   0.026554  -0.002017  -0.000238
     3  C   -0.069401   0.393456   5.481689   0.240606  -0.064195   0.011335
     4  C    0.014825   0.026554   0.240606   5.018695   0.433171  -0.077104
     5  N   -0.000078  -0.002017  -0.064195   0.433171   6.416979   0.308899
     6  C    0.000005  -0.000238   0.011335  -0.077104   0.308899   4.939189
     7  C   -0.000097  -0.000150   0.008177  -0.137795   0.246007  -0.075492
     8  C   -0.000008   0.000302   0.004879  -0.010558  -0.040711  -0.008176
     9  C    0.000002  -0.000093  -0.000301   0.000221   0.006037   0.000369
    10  C   -0.000001  -0.000015   0.000379   0.000727   0.000925  -0.000166
    11  C    0.000013   0.000245  -0.002977  -0.002458   0.008731   0.000683
    12  C    0.000056   0.002579  -0.005299   0.020200  -0.049360  -0.002895
    13  C   -0.001349  -0.083342   0.013221   0.367790  -0.086839  -0.009265
    14  C    0.013158   0.031561  -0.054635   0.000240   0.001814  -0.002069
    15  C   -0.059928   0.459795  -0.034723  -0.071457   0.000940   0.000498
    16  H    0.001918  -0.037846   0.424614  -0.045909  -0.004767  -0.000154
    17  H   -0.000000   0.000035  -0.000267   0.007719  -0.027221   0.407264
    18  H   -0.000000  -0.000186  -0.000166  -0.006329  -0.049593   0.406309
    19  H    0.000000   0.000065   0.000459  -0.006233  -0.047122   0.415269
    20  H   -0.000000  -0.000003  -0.000056   0.000548   0.005274  -0.001616
    21  H    0.000000   0.000001   0.000008  -0.000019  -0.000252   0.000028
    22  H    0.000000  -0.000001  -0.000002   0.000007   0.000010  -0.000003
    23  H    0.000000  -0.000012  -0.000074   0.000055  -0.000231   0.000005
    24  H   -0.000003   0.000174  -0.000346   0.000589  -0.002077   0.000177
    25  H    0.000004   0.000088   0.002697  -0.051472  -0.004013   0.004514
    26  H   -0.000060   0.005290  -0.002195   0.011135  -0.000106   0.000011
    27  H    0.000580  -0.054783   0.017558  -0.004822   0.000020  -0.000003
               7          8          9         10         11         12
     1  F   -0.000097  -0.000008   0.000002  -0.000001   0.000013   0.000056
     2  C   -0.000150   0.000302  -0.000093  -0.000015   0.000245   0.002579
     3  C    0.008177   0.004879  -0.000301   0.000379  -0.002977  -0.005299
     4  C   -0.137795  -0.010558   0.000221   0.000727  -0.002458   0.020200
     5  N    0.246007  -0.040711   0.006037   0.000925   0.008731  -0.049360
     6  C   -0.075492  -0.008176   0.000369  -0.000166   0.000683  -0.002895
     7  C    5.069541   0.469430  -0.031569  -0.082422  -0.019994   0.428876
     8  C    0.469430   5.031447   0.453628   0.012324  -0.055782   0.020366
     9  C   -0.031569   0.453628   4.884046   0.452223  -0.002026  -0.058235
    10  C   -0.082422   0.012324   0.452223   4.945308   0.433871   0.031350
    11  C   -0.019994  -0.055782  -0.002026   0.433871   4.932397   0.411967
    12  C    0.428876   0.020366  -0.058235   0.031350   0.411967   5.094791
    13  C    0.006245   0.000287   0.000119   0.000058  -0.000779   0.001441
    14  C   -0.000675  -0.000025  -0.000007  -0.000003   0.000066   0.000176
    15  C    0.000144   0.000030   0.000002   0.000002  -0.000020   0.000133
    16  H    0.002023  -0.000478   0.000300   0.000054  -0.000134  -0.003526
    17  H   -0.006862  -0.005010  -0.000379  -0.000093   0.000381   0.000500
    18  H   -0.004433   0.002837   0.000286   0.000027  -0.000716   0.002239
    19  H    0.012809  -0.000524  -0.000377  -0.000022   0.000154  -0.001024
    20  H   -0.051516   0.428617  -0.036569   0.008476  -0.002793   0.009056
    21  H    0.014374  -0.054868   0.441403  -0.056942   0.011235  -0.004233
    22  H   -0.003430   0.010701  -0.054570   0.442284  -0.054728   0.011318
    23  H    0.012970  -0.003378   0.010438  -0.056407   0.441203  -0.054106
    24  H   -0.043103   0.008794  -0.002254   0.008201  -0.041321   0.432290
    25  H   -0.000644  -0.000069   0.000009  -0.000001  -0.000002   0.000129
    26  H    0.000016  -0.000000   0.000000   0.000000  -0.000000   0.000000
    27  H    0.000007   0.000000  -0.000000   0.000000  -0.000000  -0.000001
              13         14         15         16         17         18
     1  F   -0.001349   0.013158  -0.059928   0.001918  -0.000000  -0.000000
     2  C   -0.083342   0.031561   0.459795  -0.037846   0.000035  -0.000186
     3  C    0.013221  -0.054635  -0.034723   0.424614  -0.000267  -0.000166
     4  C    0.367790   0.000240  -0.071457  -0.045909   0.007719  -0.006329
     5  N   -0.086839   0.001814   0.000940  -0.004767  -0.027221  -0.049593
     6  C   -0.009265  -0.002069   0.000498  -0.000154   0.407264   0.406309
     7  C    0.006245  -0.000675   0.000144   0.002023  -0.006862  -0.004433
     8  C    0.000287  -0.000025   0.000030  -0.000478  -0.005010   0.002837
     9  C    0.000119  -0.000007   0.000002   0.000300  -0.000379   0.000286
    10  C    0.000058  -0.000003   0.000002   0.000054  -0.000093   0.000027
    11  C   -0.000779   0.000066  -0.000020  -0.000134   0.000381  -0.000716
    12  C    0.001441   0.000176   0.000133  -0.003526   0.000500   0.002239
    13  C    5.249876   0.430681   0.037347   0.009210   0.000545   0.007608
    14  C    0.430681   4.963234   0.345030  -0.004108   0.000084  -0.000573
    15  C    0.037347   0.345030   5.198691   0.012837  -0.000012   0.000101
    16  H    0.009210  -0.004108   0.012837   0.488307  -0.000010   0.000001
    17  H    0.000545   0.000084  -0.000012  -0.000010   0.510029  -0.022603
    18  H    0.007608  -0.000573   0.000101   0.000001  -0.022603   0.581866
    19  H   -0.002028   0.001264  -0.000283   0.000013  -0.014403  -0.048773
    20  H   -0.000027  -0.000001   0.000001  -0.000048  -0.002414   0.000474
    21  H   -0.000002   0.000000  -0.000000  -0.000003   0.000027  -0.000007
    22  H    0.000000  -0.000000   0.000000   0.000003  -0.000001  -0.000000
    23  H    0.000004   0.000000  -0.000000   0.000002   0.000002   0.000003
    24  H    0.000459   0.000032  -0.000013  -0.000830  -0.000146   0.000251
    25  H    0.423999  -0.017098   0.004033  -0.000129   0.000526   0.001699
    26  H   -0.047331   0.426135  -0.043060   0.000031  -0.000000  -0.000006
    27  H    0.012304  -0.057381   0.438490  -0.000088  -0.000000   0.000001
              19         20         21         22         23         24
     1  F    0.000000  -0.000000   0.000000   0.000000   0.000000  -0.000003
     2  C    0.000065  -0.000003   0.000001  -0.000001  -0.000012   0.000174
     3  C    0.000459  -0.000056   0.000008  -0.000002  -0.000074  -0.000346
     4  C   -0.006233   0.000548  -0.000019   0.000007   0.000055   0.000589
     5  N   -0.047122   0.005274  -0.000252   0.000010  -0.000231  -0.002077
     6  C    0.415269  -0.001616   0.000028  -0.000003   0.000005   0.000177
     7  C    0.012809  -0.051516   0.014374  -0.003430   0.012970  -0.043103
     8  C   -0.000524   0.428617  -0.054868   0.010701  -0.003378   0.008794
     9  C   -0.000377  -0.036569   0.441403  -0.054570   0.010438  -0.002254
    10  C   -0.000022   0.008476  -0.056942   0.442284  -0.056407   0.008201
    11  C    0.000154  -0.002793   0.011235  -0.054728   0.441203  -0.041321
    12  C   -0.001024   0.009056  -0.004233   0.011318  -0.054106   0.432290
    13  C   -0.002028  -0.000027  -0.000002   0.000000   0.000004   0.000459
    14  C    0.001264  -0.000001   0.000000  -0.000000   0.000000   0.000032
    15  C   -0.000283   0.000001  -0.000000   0.000000  -0.000000  -0.000013
    16  H    0.000013  -0.000048  -0.000003   0.000003   0.000002  -0.000830
    17  H   -0.014403  -0.002414   0.000027  -0.000001   0.000002  -0.000146
    18  H   -0.048773   0.000474  -0.000007  -0.000000   0.000003   0.000251
    19  H    0.558269  -0.000730   0.000008   0.000000  -0.000001  -0.000005
    20  H   -0.000730   0.510597  -0.007080  -0.000086   0.000030  -0.000152
    21  H    0.000008  -0.007080   0.540365  -0.006745  -0.000135   0.000018
    22  H    0.000000  -0.000086  -0.006745   0.538413  -0.006687  -0.000079
    23  H   -0.000001   0.000030  -0.000135  -0.006687   0.537827  -0.006554
    24  H   -0.000005  -0.000152   0.000018  -0.000079  -0.006554   0.500081
    25  H   -0.006236   0.000001  -0.000000   0.000000   0.000000  -0.000014
    26  H   -0.000014  -0.000000  -0.000000   0.000000  -0.000000  -0.000001
    27  H   -0.000001   0.000000  -0.000000   0.000000   0.000000   0.000001
              25         26         27
     1  F    0.000004  -0.000060   0.000580
     2  C    0.000088   0.005290  -0.054783
     3  C    0.002697  -0.002195   0.017558
     4  C   -0.051472   0.011135  -0.004822
     5  N   -0.004013  -0.000106   0.000020
     6  C    0.004514   0.000011  -0.000003
     7  C   -0.000644   0.000016   0.000007
     8  C   -0.000069  -0.000000   0.000000
     9  C    0.000009   0.000000  -0.000000
    10  C   -0.000001   0.000000   0.000000
    11  C   -0.000002  -0.000000  -0.000000
    12  C    0.000129   0.000000  -0.000001
    13  C    0.423999  -0.047331   0.012304
    14  C   -0.017098   0.426135  -0.057381
    15  C    0.004033  -0.043060   0.438490
    16  H   -0.000129   0.000031  -0.000088
    17  H    0.000526  -0.000000  -0.000000
    18  H    0.001699  -0.000006   0.000001
    19  H   -0.006236  -0.000014  -0.000001
    20  H    0.000001  -0.000000   0.000000
    21  H   -0.000000  -0.000000  -0.000000
    22  H    0.000000   0.000000   0.000000
    23  H    0.000000  -0.000000   0.000000
    24  H   -0.000014  -0.000001   0.000001
    25  H    0.515544  -0.006065  -0.000097
    26  H   -0.006065   0.541163  -0.006435
    27  H   -0.000097  -0.006435   0.525956
 Mulliken charges:
               1
     1  F   -0.210866
     2  C    0.372628
     3  C   -0.364441
     4  C    0.271073
     5  N   -0.050226
     6  C   -0.317378
     7  C    0.187562
     8  C   -0.264058
     9  C   -0.062701
    10  C   -0.140138
    11  C   -0.057216
    12  C   -0.288789
    13  C   -0.330234
    14  C   -0.076901
    15  C   -0.288576
    16  H    0.158718
    17  H    0.152308
    18  H    0.129684
    19  H    0.139464
    20  H    0.140017
    21  H    0.122817
    22  H    0.123594
    23  H    0.125045
    24  H    0.145830
    25  H    0.132597
    26  H    0.121491
    27  H    0.128694
 Sum of Mulliken charges =   0.00000
 Mulliken charges with hydrogens summed into heavy atoms:
               1
     1  F   -0.210866
     2  C    0.372628
     3  C   -0.205722
     4  C    0.271073
     5  N   -0.050226
     6  C    0.104079
     7  C    0.187562
     8  C   -0.124040
     9  C    0.060116
    10  C   -0.016544
    11  C    0.067829
    12  C   -0.142959
    13  C   -0.197637
    14  C    0.044591
    15  C   -0.159883
 Electronic spatial extent (au):  <R**2>=           3477.6871
 Charge=              0.0000 electrons
 Dipole moment (field-independent basis, Debye):
    X=             -1.7753    Y=              2.0759    Z=              0.3739  Tot=              2.7570
 Quadrupole moment (field-independent basis, Debye-Ang):
   XX=            -81.4300   YY=            -84.9318   ZZ=            -87.1054
   XY=              5.7639   XZ=              3.3417   YZ=             -2.5924
 Traceless Quadrupole moment (field-independent basis, Debye-Ang):
   XX=              3.0591   YY=             -0.4427   ZZ=             -2.6163
   XY=              5.7639   XZ=              3.3417   YZ=             -2.5924
 Octapole moment (field-independent basis, Debye-Ang**2):
  XXX=             17.2091  YYY=             11.2775  ZZZ=             -4.0082  XYY=             -4.8922
  XXY=             -9.5414  XXZ=             -5.5172  XZZ=             -7.7012  YZZ=             -7.1829
  YYZ=              4.6211  XYZ=              8.2398
 Hexadecapole moment (field-independent basis, Debye-Ang**3):
 XXXX=          -3059.4230 YYYY=          -1029.2286 ZZZZ=           -312.1923 XXXY=             48.0554
 XXXZ=             65.3869 YYYX=            -11.5420 YYYZ=             -0.4733 ZZZX=             -5.1725
 ZZZY=             -6.0810 XXYY=           -716.0690 XXZZ=           -611.2830 YYZZ=           -220.9891
 XXYZ=            -13.8012 YYXZ=             -2.1363 ZZXY=            -13.4037
 N-N= 9.216945992958D+02 E-N=-3.375022523148D+03  KE= 6.537675536502D+02
 Breneman (CHELPG) radii used.
 Read replacement radii for each type of atom:
 Atom Element Radius
    1     9    1.70
    2     6    1.50
    3     6    1.50
    4     6    1.50
    5     7    1.70
    6     6    1.50
    7     6    1.50
    8     6    1.50
    9     6    1.50
   10     6    1.50
   11     6    1.50
   12     6    1.50
   13     6    1.50
   14     6    1.50
   15     6    1.50
   16     1    1.45
   17     1    1.45
   18     1    1.45
   19     1    1.45
   20     1    1.45
   21     1    1.45
   22     1    1.45
   23     1    1.45
   24     1    1.45
   25     1    1.45
   26     1    1.45
   27     1    1.45
 Generate Potential Derived Charges using the Breneman model, NDens= 1.
 Grid spacing= 0.300 Box extension= 2.800
 NStep X,Y,Z=   51     39     32   Total possible points=       63648
 Number of Points to Fit=   17053

 **********************************************************************

            Electrostatic Properties Using The SCF Density.

 **********************************************************************

       Atomic Center    1 is at   2.605156 -2.528022 -0.495704
       Atomic Center    2 is at   2.449209 -1.227030 -0.237205
       Atomic Center    3 is at   1.169536 -0.701159 -0.277850
       Atomic Center    4 is at   0.969276  0.668437 -0.010262
       Atomic Center    5 is at  -0.302046  1.223136 -0.068749
       Atomic Center    6 is at  -0.468400  2.658355  0.014858
       Atomic Center    7 is at  -1.464786  0.411295  0.005180
       Atomic Center    8 is at  -2.430863  0.478760 -1.004246
       Atomic Center    9 is at  -3.592207 -0.286969 -0.920564
       Atomic Center   10 is at  -3.791183 -1.144129  0.160433
       Atomic Center   11 is at  -2.825207 -1.223269  1.163949
       Atomic Center   12 is at  -1.673671 -0.443865  1.094248
       Atomic Center   13 is at   2.098806  1.460298  0.279365
       Atomic Center   14 is at   3.371239  0.893418  0.303068
       Atomic Center   15 is at   3.573121 -0.459639  0.050323
       Atomic Center   16 is at   0.339655 -1.360847 -0.529147
       Atomic Center   17 is at  -1.518840  2.908962 -0.174978
       Atomic Center   18 is at  -0.203915  3.054727  1.012855
       Atomic Center   19 is at   0.149632  3.176312 -0.736004
       Atomic Center   20 is at  -2.259501  1.133090 -1.861879
       Atomic Center   21 is at  -4.339408 -0.223604 -1.714634
       Atomic Center   22 is at  -4.696688 -1.751247  0.220822
       Atomic Center   23 is at  -2.974766 -1.889321  2.016551
       Atomic Center   24 is at  -0.919389 -0.496665  1.882156
       Atomic Center   25 is at   1.992009  2.522034  0.495819
       Atomic Center   26 is at   4.228922  1.529544  0.533140
       Atomic Center   27 is at   4.560993 -0.919741  0.070095
   17053 points will be used for fitting atomic charges
 Fitting point charges to electrostatic potential
 Charges from ESP fit, RMS=   0.00371 RRMS=   0.34384:
 ESP charges:
               1
     1  F   -0.225078
     2  C    0.422723
     3  C   -0.417665
     4  C    0.429721
     5  N   -0.403344
     6  C    0.042448
     7  C    0.339912
     8  C   -0.217699
     9  C   -0.067822
    10  C   -0.135254
    11  C   -0.089065
    12  C   -0.139682
    13  C   -0.341426
    14  C   -0.016474
    15  C   -0.321266
    16  H    0.140190
    17  H    0.030360
    18  H    0.025565
    19  H    0.039072
    20  H    0.128525
    21  H    0.096255
    22  H    0.103974
    23  H    0.101956
    24  H    0.086454
    25  H    0.140203
    26  H    0.101468
    27  H    0.145949
 Sum of ESP charges =   0.00000
 ESP charges with hydrogens summed into heavy atoms:
               1
     1  F   -0.225078
     2  C    0.422723
     3  C   -0.277475
     4  C    0.429721
     5  N   -0.403344
     6  C    0.137445
     7  C    0.339912
     8  C   -0.089174
     9  C    0.028433
    10  C   -0.031280
    11  C    0.012891
    12  C   -0.053228
    13  C   -0.201223
    14  C    0.084994
    15  C   -0.175317
 Charge=   0.00000 Dipole=    -1.7819     2.1411     0.3736 Tot=     2.8105
 -----------------------------------------------------------------

              Electrostatic Properties (Atomic Units)

 -----------------------------------------------------------------
    Center     Electric         -------- Electric Field --------
               Potential          X             Y             Z
 -----------------------------------------------------------------
    1 Atom    -26.592374
    2 Atom    -14.690740
    3 Atom    -14.774994
    4 Atom    -14.717135
    5 Atom    -18.353238
    6 Atom    -14.730419
    7 Atom    -14.721653
    8 Atom    -14.762257
    9 Atom    -14.760129
   10 Atom    -14.763079
   11 Atom    -14.760763
   12 Atom    -14.763329
   13 Atom    -14.774986
   14 Atom    -14.764310
   15 Atom    -14.777976
   16 Atom     -1.098885
   17 Atom     -1.098791
   18 Atom     -1.109270
   19 Atom     -1.106237
   20 Atom     -1.095866
   21 Atom     -1.099549
   22 Atom     -1.101306
   23 Atom     -1.100566
   24 Atom     -1.098467
   25 Atom     -1.105596
   26 Atom     -1.106106
   27 Atom     -1.102697
 -----------------------------------------------------------------
 Unable to Open any file for archive entry.
 1\1\GINC-NOTCH344\SP\RwB97XD\def2TZVP\C13H12F1N1\U1366379\17-Feb-2026\
 0\\#N Guess=Read Geom=Check Integral(Ultrafine) Density Pop=(ChelpG,Re
 adRadii) NMR wB97XD def2TZVP\\prod_5c_1\\0,1\F,0,-2.6435607241,-2.3667
 825078,0.6096804016\C,0,-2.4447477617,-1.0806528711,0.3095690158\C,0,-
 1.1471462646,-0.5991875235,0.3228946688\C,0,-0.901739639,0.7536298724,
 0.0111888048\N,0,0.3886960796,1.2647342527,0.0415236707\C,0,0.60428842
 19,2.6899533518,-0.0880440294\C,0,1.5215873683,0.4105481102,-0.0171126
 04\C,0,2.4991308599,0.474937988,0.9814163255\C,0,3.6321448994,-0.33343
 75228,0.9116113401\C,0,3.7906008343,-1.2299010692,-0.1439046017\C,0,2.
 8128078107,-1.305774724,-1.1361653979\C,0,1.6899385464,-0.4845142426,-
 1.0808429117\C,0,-2.0056500692,1.5755117403,-0.2932053175\C,0,-3.29728
 59523,1.0533478882,-0.2883858116\C,0,-3.5438790556,-0.2833480431,0.007
 9841752\H,0,-0.3384387881,-1.2796639772,0.5874411829\H,0,1.66462794,2.
 9091179222,0.0849088219\H,0,0.3441957677,3.0645302129,-1.0955687325\H,
 0,0.0120108707,3.2521985791,0.6516351135\H,0,2.3590259007,1.1609530081
 ,1.8197482695\H,0,4.3887334899,-0.2720536431,1.6968991833\H,0,4.673711
 3892,-1.8701100631,-0.1931635781\H,0,2.9307619214,-2.002576183,-1.9689
 177866\H,0,0.926701751,-0.5349064941,-1.8602393384\H,0,-1.8639090793,2
 .625670545,-0.5434404645\H,0,-4.1343956102,1.7119196106,-0.5307482581\
 H,0,-4.547370907,-0.7087542171,0.0109778583\\Version=ES64L-G16RevC.01\
 State=1-A\HF=-657.2162633\RMSD=1.877e-09\Dipole=0.7251084,0.786717,-0.
 1783747\Quadrupole=2.0206958,0.0871199,-2.1078158,-4.2685068,2.6444741
 ,1.8173951\PG=C01 [X(C13H12F1N1)]\\@
 The archive entry for this job was punched.


 EDUCATION IS NOT TRAINING BUT RATHER THE PROCESS THAT EQUIPS YOU TO
 ENTERTAIN YOURSELF, A FRIEND, OR AN IDEA.  -- WALLACE STERLING
 Job cpu time:       0 days  1 hours  2 minutes 21.3 seconds.
 Elapsed time:       0 days  0 hours  8 minutes 15.4 seconds.
 File lengths (MBytes):  RWF=    179 Int=      0 D2E=      0 Chk=     27 Scr=      2
 Normal termination of Gaussian 16 at Tue Feb 17 16:23:54 2026.
