 Entering Gaussian System, Link 0=g16
 Input=prod_5g_10.com
 Output=prod_5g_10.log
 Initial command:
 /uufs/chpc.utah.edu/sys/installdir/gaussian16/C01/AVX/g16/l1.exe "/scratch/general/vast/u1366379/GAUSSSCRDIR/11028659-notchpeak.peaks/Gau-1136511.inp" -scrdir="/scratch/general/vast/u1366379/GAUSSSCRDIR/11028659-notchpeak.peaks/"
 Entering Link 1 = /uufs/chpc.utah.edu/sys/installdir/gaussian16/C01/AVX/g16/l1.exe PID=   1136518.
  
 Copyright (c) 1988-2019, Gaussian, Inc.  All Rights Reserved.
  
 This is part of the Gaussian(R) 16 program.  It is based on
 the Gaussian(R) 09 system (copyright 2009, Gaussian, Inc.),
 the Gaussian(R) 03 system (copyright 2003, Gaussian, Inc.),
 the Gaussian(R) 98 system (copyright 1998, Gaussian, Inc.),
 the Gaussian(R) 94 system (copyright 1995, Gaussian, Inc.),
 the Gaussian 92(TM) system (copyright 1992, Gaussian, Inc.),
 the Gaussian 90(TM) system (copyright 1990, Gaussian, Inc.),
 the Gaussian 88(TM) system (copyright 1988, Gaussian, Inc.),
 the Gaussian 86(TM) system (copyright 1986, Carnegie Mellon
 University), and the Gaussian 82(TM) system (copyright 1983,
 Carnegie Mellon University). Gaussian is a federally registered
 trademark of Gaussian, Inc.
  
 This software contains proprietary and confidential information,
 including trade secrets, belonging to Gaussian, Inc.
  
 This software is provided under written license and may be
 used, copied, transmitted, or stored only in accord with that
 written license.
  
 The following legend is applicable only to US Government
 contracts under FAR:
  
                    RESTRICTED RIGHTS LEGEND
  
 Use, reproduction and disclosure by the US Government is
 subject to restrictions as set forth in subparagraphs (a)
 and (c) of the Commercial Computer Software - Restricted
 Rights clause in FAR 52.227-19.
  
 Gaussian, Inc.
 340 Quinnipiac St., Bldg. 40, Wallingford CT 06492
  
  
 ---------------------------------------------------------------
 Warning -- This program may not be used in any manner that
 competes with the business of Gaussian, Inc. or will provide
 assistance to any competitor of Gaussian, Inc.  The licensee
 of this program is prohibited from giving any competitor of
 Gaussian, Inc. access to this program.  By using this program,
 the user acknowledges that Gaussian, Inc. is engaged in the
 business of creating and licensing software in the field of
 computational chemistry and represents and warrants to the
 licensee that it is not a competitor of Gaussian, Inc. and that
 it will not use this program in any manner prohibited above.
 ---------------------------------------------------------------
  

 Cite this work as:
 Gaussian 16, Revision C.01,
 M. J. Frisch, G. W. Trucks, H. B. Schlegel, G. E. Scuseria, 
 M. A. Robb, J. R. Cheeseman, G. Scalmani, V. Barone, 
 G. A. Petersson, H. Nakatsuji, X. Li, M. Caricato, A. V. Marenich, 
 J. Bloino, B. G. Janesko, R. Gomperts, B. Mennucci, H. P. Hratchian, 
 J. V. Ortiz, A. F. Izmaylov, J. L. Sonnenberg, D. Williams-Young, 
 F. Ding, F. Lipparini, F. Egidi, J. Goings, B. Peng, A. Petrone, 
 T. Henderson, D. Ranasinghe, V. G. Zakrzewski, J. Gao, N. Rega, 
 G. Zheng, W. Liang, M. Hada, M. Ehara, K. Toyota, R. Fukuda, 
 J. Hasegawa, M. Ishida, T. Nakajima, Y. Honda, O. Kitao, H. Nakai, 
 T. Vreven, K. Throssell, J. A. Montgomery, Jr., J. E. Peralta, 
 F. Ogliaro, M. J. Bearpark, J. J. Heyd, E. N. Brothers, K. N. Kudin, 
 V. N. Staroverov, T. A. Keith, R. Kobayashi, J. Normand, 
 K. Raghavachari, A. P. Rendell, J. C. Burant, S. S. Iyengar, 
 J. Tomasi, M. Cossi, J. M. Millam, M. Klene, C. Adamo, R. Cammi, 
 J. W. Ochterski, R. L. Martin, K. Morokuma, O. Farkas, 
 J. B. Foresman, and D. J. Fox, Gaussian, Inc., Wallingford CT, 2019.
 
 ******************************************
 Gaussian 16:  ES64L-G16RevC.01  3-Jul-2019
                17-Feb-2026 
 ******************************************
 %NProcShared=8
 Will use up to    8 processors via shared memory.
 %Mem=8GB
 %chk=prod_5g_10.chk
 ------------------------------------------------------
 #N OPT FREQ=NORAMAN Integral(Ultrafine) wB97XD def2SVP
 ------------------------------------------------------
 1/18=20,19=15,26=4,38=1/1,3;
 2/9=110,12=2,17=6,18=5,40=1/2;
 3/5=43,7=101,11=2,25=1,30=1,71=1,74=-58,75=-5/1,2,3;
 4//1;
 5/5=2,38=5/2;
 6/7=2,8=2,9=2,10=2,28=1/1;
 7//1,2,3,16;
 1/18=20,19=15,26=4/3(2);
 2/9=110/2;
 99//99;
 2/9=110/2;
 3/5=43,7=101,11=2,25=1,30=1,71=1,74=-58,75=-5/1,2,3;
 4/5=5,16=3,69=1/1;
 5/5=2,38=5/2;
 7//1,2,3,16;
 1/18=20,19=15,26=4/3(-5);
 2/9=110/2;
 6/7=2,8=2,9=2,10=2,19=2,28=1/1;
 99/9=1/99;
 ----------
 prod_5g_10
 ----------
 Symbolic Z-matrix:
 Charge =  0 Multiplicity = 1
 C                    -3.82759   2.6387   -0.51221 
 O                    -2.50381   2.19032  -0.67239 
 C                    -2.27906   0.86894  -0.26399 
 C                    -0.98888   0.36651  -0.40857 
 C                    -0.65458  -0.92924  -0.03592 
 N                     0.68288  -1.40353  -0.20747 
 C                     0.89303  -2.82903  -0.46152 
 C                     1.81288  -0.55224   0.00346 
 C                     3.00706  -0.72823  -0.69634 
 C                     4.08503   0.09816  -0.46954 
 C                     3.9979    1.11609   0.45964 
 C                     2.82484   1.30522   1.16284 
 C                     1.74567   0.48117   0.93827 
 C                    -1.65455  -1.74178   0.49773 
 C                    -2.93736  -1.26302   0.6492 
 C                    -3.25373   0.02455   0.27503 
 H                    -4.10646   2.60654   0.54164 
 H                    -4.50335   2.0224   -1.10634 
 H                    -3.88941   3.66948  -0.86258 
 H                    -0.23739   1.00483  -0.83276 
 H                     1.13498  -3.3392    0.46881 
 H                     1.70399  -2.98701  -1.16755 
 H                    -0.00443  -3.27475  -0.886 
 H                     3.07673  -1.50041  -1.44092 
 H                     4.99917  -0.04727  -1.0218 
 H                     4.84287   1.76176   0.63492 
 H                     2.75464   2.098     1.88963 
 H                     0.83625   0.61712   1.49693 
 H                    -1.41027  -2.74055   0.81352 
 H                    -3.69946  -1.90068   1.06677 
 H                    -4.25995   0.38067   0.40014 
 

 GradGradGradGradGradGradGradGradGradGradGradGradGradGradGradGradGradGrad
 Berny optimization.
 Initialization pass.
                           ----------------------------
                           !    Initial Parameters    !
                           ! (Angstroms and Degrees)  !
 --------------------------                            --------------------------
 ! Name  Definition              Value          Derivative Info.                !
 --------------------------------------------------------------------------------
 ! R1    R(1,2)                  1.4068         estimate D2E/DX2                !
 ! R2    R(1,17)                 1.0906         estimate D2E/DX2                !
 ! R3    R(1,18)                 1.0906         estimate D2E/DX2                !
 ! R4    R(1,19)                 1.0905         estimate D2E/DX2                !
 ! R5    R(2,3)                  1.4012         estimate D2E/DX2                !
 ! R6    R(3,4)                  1.3921         estimate D2E/DX2                !
 ! R7    R(3,16)                 1.3977         estimate D2E/DX2                !
 ! R8    R(4,5)                  1.3891         estimate D2E/DX2                !
 ! R9    R(4,20)                 1.0734         estimate D2E/DX2                !
 ! R10   R(5,6)                  1.4294         estimate D2E/DX2                !
 ! R11   R(5,14)                 1.3946         estimate D2E/DX2                !
 ! R12   R(6,7)                  1.4631         estimate D2E/DX2                !
 ! R13   R(6,8)                  1.4304         estimate D2E/DX2                !
 ! R14   R(7,21)                 1.0883         estimate D2E/DX2                !
 ! R15   R(7,22)                 1.0868         estimate D2E/DX2                !
 ! R16   R(7,23)                 1.0882         estimate D2E/DX2                !
 ! R17   R(8,9)                  1.3953         estimate D2E/DX2                !
 ! R18   R(8,13)                 1.3951         estimate D2E/DX2                !
 ! R19   R(9,10)                 1.3771         estimate D2E/DX2                !
 ! R20   R(9,24)                 1.0749         estimate D2E/DX2                !
 ! R21   R(10,11)                1.381          estimate D2E/DX2                !
 ! R22   R(10,25)                1.0779         estimate D2E/DX2                !
 ! R23   R(11,12)                1.3807         estimate D2E/DX2                !
 ! R24   R(11,26)                1.0778         estimate D2E/DX2                !
 ! R25   R(12,13)                1.3763         estimate D2E/DX2                !
 ! R26   R(12,27)                1.0778         estimate D2E/DX2                !
 ! R27   R(13,28)                1.0759         estimate D2E/DX2                !
 ! R28   R(14,15)                1.3776         estimate D2E/DX2                !
 ! R29   R(14,29)                1.0756         estimate D2E/DX2                !
 ! R30   R(15,16)                1.3777         estimate D2E/DX2                !
 ! R31   R(15,30)                1.0779         estimate D2E/DX2                !
 ! R32   R(16,31)                1.0747         estimate D2E/DX2                !
 ! A1    A(2,1,17)             109.9524         estimate D2E/DX2                !
 ! A2    A(2,1,18)             109.9322         estimate D2E/DX2                !
 ! A3    A(2,1,19)             108.5446         estimate D2E/DX2                !
 ! A4    A(17,1,18)            110.5672         estimate D2E/DX2                !
 ! A5    A(17,1,19)            108.8964         estimate D2E/DX2                !
 ! A6    A(18,1,19)            108.9051         estimate D2E/DX2                !
 ! A7    A(1,2,3)              114.7282         estimate D2E/DX2                !
 ! A8    A(2,3,4)              117.3062         estimate D2E/DX2                !
 ! A9    A(2,3,16)             124.7693         estimate D2E/DX2                !
 ! A10   A(4,3,16)             117.9245         estimate D2E/DX2                !
 ! A11   A(3,4,5)              122.1302         estimate D2E/DX2                !
 ! A12   A(3,4,20)             118.3776         estimate D2E/DX2                !
 ! A13   A(5,4,20)             119.4886         estimate D2E/DX2                !
 ! A14   A(4,5,6)              120.1654         estimate D2E/DX2                !
 ! A15   A(4,5,14)             118.2662         estimate D2E/DX2                !
 ! A16   A(6,5,14)             121.5678         estimate D2E/DX2                !
 ! A17   A(5,6,7)              118.588          estimate D2E/DX2                !
 ! A18   A(5,6,8)              121.6009         estimate D2E/DX2                !
 ! A19   A(7,6,8)              119.47           estimate D2E/DX2                !
 ! A20   A(6,7,21)             109.8909         estimate D2E/DX2                !
 ! A21   A(6,7,22)             111.1988         estimate D2E/DX2                !
 ! A22   A(6,7,23)             110.3846         estimate D2E/DX2                !
 ! A23   A(21,7,22)            108.743          estimate D2E/DX2                !
 ! A24   A(21,7,23)            108.953          estimate D2E/DX2                !
 ! A25   A(22,7,23)            107.6043         estimate D2E/DX2                !
 ! A26   A(6,8,9)              121.81           estimate D2E/DX2                !
 ! A27   A(6,8,13)             120.1053         estimate D2E/DX2                !
 ! A28   A(9,8,13)             118.0822         estimate D2E/DX2                !
 ! A29   A(8,9,10)             120.7756         estimate D2E/DX2                !
 ! A30   A(8,9,24)             119.5701         estimate D2E/DX2                !
 ! A31   A(10,9,24)            119.6315         estimate D2E/DX2                !
 ! A32   A(9,10,11)            120.2488         estimate D2E/DX2                !
 ! A33   A(9,10,25)            119.903          estimate D2E/DX2                !
 ! A34   A(11,10,25)           119.8478         estimate D2E/DX2                !
 ! A35   A(10,11,12)           119.8183         estimate D2E/DX2                !
 ! A36   A(10,11,26)           120.102          estimate D2E/DX2                !
 ! A37   A(12,11,26)           120.0796         estimate D2E/DX2                !
 ! A38   A(11,12,13)           120.0717         estimate D2E/DX2                !
 ! A39   A(11,12,27)           119.9692         estimate D2E/DX2                !
 ! A40   A(13,12,27)           119.959          estimate D2E/DX2                !
 ! A41   A(8,13,12)            121.0032         estimate D2E/DX2                !
 ! A42   A(8,13,28)            118.8315         estimate D2E/DX2                !
 ! A43   A(12,13,28)           120.1587         estimate D2E/DX2                !
 ! A44   A(5,14,15)            120.4829         estimate D2E/DX2                !
 ! A45   A(5,14,29)            119.3739         estimate D2E/DX2                !
 ! A46   A(15,14,29)           120.1263         estimate D2E/DX2                !
 ! A47   A(14,15,16)           120.5833         estimate D2E/DX2                !
 ! A48   A(14,15,30)           119.6962         estimate D2E/DX2                !
 ! A49   A(16,15,30)           119.7203         estimate D2E/DX2                !
 ! A50   A(3,16,15)            120.6127         estimate D2E/DX2                !
 ! A51   A(3,16,31)            119.8428         estimate D2E/DX2                !
 ! A52   A(15,16,31)           119.5444         estimate D2E/DX2                !
 ! D1    D(17,1,2,3)            61.2099         estimate D2E/DX2                !
 ! D2    D(18,1,2,3)           -60.7414         estimate D2E/DX2                !
 ! D3    D(19,1,2,3)          -179.7651         estimate D2E/DX2                !
 ! D4    D(1,2,3,4)            179.5158         estimate D2E/DX2                !
 ! D5    D(1,2,3,16)            -0.47           estimate D2E/DX2                !
 ! D6    D(2,3,4,5)            179.9765         estimate D2E/DX2                !
 ! D7    D(2,3,4,20)            -0.7148         estimate D2E/DX2                !
 ! D8    D(16,3,4,5)            -0.0366         estimate D2E/DX2                !
 ! D9    D(16,3,4,20)          179.2721         estimate D2E/DX2                !
 ! D10   D(2,3,16,15)         -179.9809         estimate D2E/DX2                !
 ! D11   D(2,3,16,31)           -0.0032         estimate D2E/DX2                !
 ! D12   D(4,3,16,15)            0.0333         estimate D2E/DX2                !
 ! D13   D(4,3,16,31)         -179.989          estimate D2E/DX2                !
 ! D14   D(3,4,5,6)            179.7747         estimate D2E/DX2                !
 ! D15   D(3,4,5,14)             0.0567         estimate D2E/DX2                !
 ! D16   D(20,4,5,6)             0.4735         estimate D2E/DX2                !
 ! D17   D(20,4,5,14)         -179.2445         estimate D2E/DX2                !
 ! D18   D(4,5,6,7)           -149.8317         estimate D2E/DX2                !
 ! D19   D(4,5,6,8)             36.9123         estimate D2E/DX2                !
 ! D20   D(14,5,6,7)            29.8767         estimate D2E/DX2                !
 ! D21   D(14,5,6,8)          -143.3792         estimate D2E/DX2                !
 ! D22   D(4,5,14,15)           -0.0739         estimate D2E/DX2                !
 ! D23   D(4,5,14,29)         -178.5834         estimate D2E/DX2                !
 ! D24   D(6,5,14,15)         -179.7877         estimate D2E/DX2                !
 ! D25   D(6,5,14,29)            1.7028         estimate D2E/DX2                !
 ! D26   D(5,6,7,21)           -96.8286         estimate D2E/DX2                !
 ! D27   D(5,6,7,22)           142.7177         estimate D2E/DX2                !
 ! D28   D(5,6,7,23)            23.3649         estimate D2E/DX2                !
 ! D29   D(8,6,7,21)            76.5744         estimate D2E/DX2                !
 ! D30   D(8,6,7,22)           -43.8793         estimate D2E/DX2                !
 ! D31   D(8,6,7,23)          -163.2321         estimate D2E/DX2                !
 ! D32   D(5,6,8,9)           -149.977          estimate D2E/DX2                !
 ! D33   D(5,6,8,13)            30.6159         estimate D2E/DX2                !
 ! D34   D(7,6,8,9)             36.8251         estimate D2E/DX2                !
 ! D35   D(7,6,8,13)          -142.5819         estimate D2E/DX2                !
 ! D36   D(6,8,9,10)          -179.5378         estimate D2E/DX2                !
 ! D37   D(6,8,9,24)             2.2035         estimate D2E/DX2                !
 ! D38   D(13,8,9,10)           -0.1192         estimate D2E/DX2                !
 ! D39   D(13,8,9,24)         -178.378          estimate D2E/DX2                !
 ! D40   D(6,8,13,12)          179.5358         estimate D2E/DX2                !
 ! D41   D(6,8,13,28)            0.4692         estimate D2E/DX2                !
 ! D42   D(9,8,13,12)            0.107          estimate D2E/DX2                !
 ! D43   D(9,8,13,28)         -178.9596         estimate D2E/DX2                !
 ! D44   D(8,9,10,11)            0.08           estimate D2E/DX2                !
 ! D45   D(8,9,10,25)         -179.6839         estimate D2E/DX2                !
 ! D46   D(24,9,10,11)         178.3377         estimate D2E/DX2                !
 ! D47   D(24,9,10,25)          -1.4262         estimate D2E/DX2                !
 ! D48   D(9,10,11,12)          -0.0249         estimate D2E/DX2                !
 ! D49   D(9,10,11,26)        -179.9709         estimate D2E/DX2                !
 ! D50   D(25,10,11,12)        179.7391         estimate D2E/DX2                !
 ! D51   D(25,10,11,26)         -0.2069         estimate D2E/DX2                !
 ! D52   D(10,11,12,13)          0.0124         estimate D2E/DX2                !
 ! D53   D(10,11,12,27)        179.9102         estimate D2E/DX2                !
 ! D54   D(26,11,12,13)        179.9584         estimate D2E/DX2                !
 ! D55   D(26,11,12,27)         -0.1437         estimate D2E/DX2                !
 ! D56   D(11,12,13,8)          -0.055          estimate D2E/DX2                !
 ! D57   D(11,12,13,28)        178.9993         estimate D2E/DX2                !
 ! D58   D(27,12,13,8)        -179.9529         estimate D2E/DX2                !
 ! D59   D(27,12,13,28)         -0.8986         estimate D2E/DX2                !
 ! D60   D(5,14,15,16)           0.0729         estimate D2E/DX2                !
 ! D61   D(5,14,15,30)        -179.7519         estimate D2E/DX2                !
 ! D62   D(29,14,15,16)        178.5711         estimate D2E/DX2                !
 ! D63   D(29,14,15,30)         -1.2537         estimate D2E/DX2                !
 ! D64   D(14,15,16,3)          -0.0522         estimate D2E/DX2                !
 ! D65   D(14,15,16,31)        179.97           estimate D2E/DX2                !
 ! D66   D(30,15,16,3)         179.7726         estimate D2E/DX2                !
 ! D67   D(30,15,16,31)         -0.2052         estimate D2E/DX2                !
 --------------------------------------------------------------------------------
 Trust Radius=3.00D-01 FncErr=1.00D-07 GrdErr=1.00D-06 EigMax=2.50D+02 EigMin=1.00D-04
 Number of steps in this run=    161 maximum allowed number of steps=    186.
 GradGradGradGradGradGradGradGradGradGradGradGradGradGradGradGradGradGrad

                          Input orientation:                          
 ---------------------------------------------------------------------
 Center     Atomic      Atomic             Coordinates (Angstroms)
 Number     Number       Type             X           Y           Z
 ---------------------------------------------------------------------
      1          6           0       -3.827590    2.638700   -0.512210
      2          8           0       -2.503810    2.190320   -0.672390
      3          6           0       -2.279060    0.868940   -0.263990
      4          6           0       -0.988880    0.366510   -0.408570
      5          6           0       -0.654580   -0.929240   -0.035920
      6          7           0        0.682880   -1.403530   -0.207470
      7          6           0        0.893030   -2.829030   -0.461520
      8          6           0        1.812880   -0.552240    0.003460
      9          6           0        3.007060   -0.728230   -0.696340
     10          6           0        4.085030    0.098160   -0.469540
     11          6           0        3.997900    1.116090    0.459640
     12          6           0        2.824840    1.305220    1.162840
     13          6           0        1.745670    0.481170    0.938270
     14          6           0       -1.654550   -1.741780    0.497730
     15          6           0       -2.937360   -1.263020    0.649200
     16          6           0       -3.253730    0.024550    0.275030
     17          1           0       -4.106460    2.606540    0.541640
     18          1           0       -4.503350    2.022400   -1.106340
     19          1           0       -3.889410    3.669480   -0.862580
     20          1           0       -0.237390    1.004830   -0.832760
     21          1           0        1.134980   -3.339200    0.468810
     22          1           0        1.703990   -2.987010   -1.167550
     23          1           0       -0.004430   -3.274750   -0.886000
     24          1           0        3.076730   -1.500410   -1.440920
     25          1           0        4.999170   -0.047270   -1.021800
     26          1           0        4.842870    1.761760    0.634920
     27          1           0        2.754640    2.098000    1.889630
     28          1           0        0.836250    0.617120    1.496930
     29          1           0       -1.410270   -2.740550    0.813520
     30          1           0       -3.699460   -1.900680    1.066770
     31          1           0       -4.259950    0.380670    0.400140
 ---------------------------------------------------------------------
                    Distance matrix (angstroms):
                    1          2          3          4          5
     1  C    0.000000
     2  O    1.406803   0.000000
     3  C    2.364658   1.401195   0.000000
     4  C    3.637563   2.385560   1.392086   0.000000
     5  C    4.798441   3.681902   2.434010   1.389098   0.000000
     6  N    6.064390   4.825650   3.733685   2.443003   1.429398
     7  C    7.223773   6.064393   4.876080   3.708890   2.487053
     8  C    6.500993   5.158703   4.339960   2.977202   2.496405
     9  C    7.621192   6.236040   5.539038   4.153168   3.726146
    10  C    8.310579   6.916003   6.413891   5.081367   4.869033
    11  C    8.031259   6.686381   6.323365   5.116995   5.106322
    12  C    6.988475   5.704909   5.317516   4.230244   4.305369
    13  C    6.149801   4.855255   4.218323   3.050392   2.949492
    14  C    4.993064   4.189491   2.790356   2.389432   1.394612
    15  C    4.167110   3.722919   2.410919   2.751512   2.406633
    16  C    2.789775   2.480029   1.397683   2.390354   2.786034
    17  H    1.090597   2.053191   2.647203   3.954736   4.975017
    18  H    1.090627   2.052966   2.643386   3.947196   4.966992
    19  H    1.090453   2.035675   3.285508   4.419141   5.682932
    20  H    3.957502   2.562765   2.123766   1.073372   2.132986
    21  H    7.831015   6.717047   5.468190   4.360374   3.043877
    22  H    7.916847   6.689956   5.616890   4.367344   3.328341
    23  H    7.051607   6.013279   4.767704   3.802086   2.578129
    24  H    8.103355   6.734579   5.973564   4.591331   4.027770
    25  H    9.240444   7.837321   7.374710   6.033573   5.806438
    26  H    8.789870   7.474385   7.233744   6.086452   6.157391
    27  H    7.027584   5.850108   5.611310   4.721623   4.949213
    28  H    5.465787   4.282162   3.587396   2.650441   2.638832
    29  H    6.044611   5.264716   3.865778   3.365248   2.138565
    30  H    4.807865   4.603318   3.385152   3.829363   3.380964
    31  H    2.473463   2.740289   2.145554   3.369586   3.860661
                    6          7          8          9         10
     6  N    0.000000
     7  C    1.463132   0.000000
     8  C    1.430415   2.499221   0.000000
     9  C    2.469177   2.989586   1.395263   0.000000
    10  C    3.728053   4.330978   2.410273   1.377090   0.000000
    11  C    4.216975   5.104187   2.786707   2.391562   1.380996
    12  C    3.715248   4.843806   2.412132   2.761281   2.389506
    13  C    2.448333   3.693756   1.395107   2.392844   2.757033
    14  C    2.464812   2.931286   3.698970   4.917692   6.104406
    15  C    3.722870   4.284621   4.846336   6.118219   7.240052
    16  C    4.215343   5.087341   5.106562   6.380261   7.376802
    17  H    6.291232   7.452963   6.730982   7.953330   8.626411
    18  H    6.280282   7.285128   6.910513   8.008765   8.824312
    19  H    6.860790   8.078565   7.147661   8.181002   8.746456
    20  H    2.652938   4.014244   2.706906   3.680837   4.431399
    21  H    2.099659   1.088268   2.905726   3.417517   4.625877
    22  H    2.114670   1.086781   2.703928   2.649928   3.959147
    23  H    2.105769   1.088248   3.392022   3.948393   5.317297
    24  H    2.694680   2.737335   2.140695   1.074949   2.125012
    25  H    4.597057   4.991241   3.385055   2.130289   1.077865
    26  H    5.294733   6.154573   3.864476   3.367863   2.135818
    27  H    4.577197   5.767939   3.386491   3.839080   3.366746
    28  H    2.647929   3.964177   2.133462   3.366425   3.832870
    29  H    2.685390   2.634150   3.979145   5.083494   6.316869
    30  H    4.590833   4.928333   5.773631   7.032824   8.182536
    31  H    5.290003   6.131707   6.156861   7.432453   8.394930
                   11         12         13         14         15
    11  C    0.000000
    12  C    1.380699   0.000000
    13  C    2.388462   1.376262   0.000000
    14  C    6.333961   5.458160   4.086206   0.000000
    15  C    7.334434   6.329505   5.005650   1.377591   0.000000
    16  C    7.335644   6.275136   5.063832   2.393093   1.377654
    17  H    8.240681   7.079706   6.238745   4.992162   4.043743
    18  H    8.691659   7.704927   6.753227   4.985755   4.040820
    19  H    8.395101   7.400892   6.720306   6.010555   5.246088
    20  H    4.429487   3.667411   2.709851   3.364879   3.824812
    21  H    5.295848   4.990786   3.897251   3.214664   4.574606
    22  H    4.974455   5.011014   4.057646   3.950132   5.273979
    23  H    6.091705   5.760090   4.527444   2.643407   3.873755
    24  H    3.362552   3.835958   3.370300   5.118753   6.371360
    25  H    2.133216   3.365946   3.834891   7.032235   8.201146
    26  H    1.077770   2.135316   3.365201   7.383094   8.347543
    27  H    2.134178   1.077800   2.130081   6.010179   6.725622
    28  H    3.364665   2.130631   1.075931   3.573079   4.300431
    29  H    6.651857   5.867405   4.511652   1.075610   2.131220
    30  H    8.289684   7.270042   5.944675   2.128547   1.077855
    31  H    8.290746   7.185454   6.030519   3.361908   2.124380
                   16         17         18         19         20
    16  C    0.000000
    17  H    2.732197   0.000000
    18  H    2.731508   1.792925   0.000000
    19  H    3.870886   1.774482   1.774602   0.000000
    20  H    3.359532   4.407284   4.394168   4.520896   0.000000
    21  H    5.532914   7.926526   7.938427   8.725749   4.737941
    22  H    5.977417   8.244420   7.976779   8.699884   4.451497
    23  H    4.774026   7.311250   6.953318   7.957132   4.286247
    24  H    6.733848   8.508572   8.365390   8.694213   4.198747
    25  H    8.354477   9.612468   9.725665   9.635686   5.344550
    26  H    8.288688   8.989597   9.510612   9.062815   5.341916
    27  H    6.557945   7.010733   7.852386   7.361223   4.190307
    28  H    4.309538   5.413017   6.104355   6.100496   2.594316
    29  H    3.366615   5.994558   5.994889   7.074174   4.256026
    30  H    2.128858   4.555924   4.556227   5.897894   4.902666
    31  H    1.074687   2.235638   2.241429   3.542320   4.253305
                   21         22         23         24         25
    21  H    0.000000
    22  H    1.767904   0.000000
    23  H    1.771417   1.755210   0.000000
    24  H    3.286124   2.041844   3.598578   0.000000
    25  H    5.290622   4.418317   5.955760   2.446028   0.000000
    26  H    6.308394   5.970953   7.153737   4.250896   2.457995
    27  H    5.848519   6.025574   6.647032   4.913742   4.256351
    28  H    4.098626   4.565324   4.640232   4.258479   4.910735
    29  H    2.637329   3.699189   2.269388   5.172390   7.190485
    30  H    5.079243   5.947232   4.399389   7.236399   9.135831
    31  H    6.553428   7.026201   5.755493   7.794539   9.377438
                   26         27         28         29         30
    26  H    0.000000
    27  H    2.459280   0.000000
    28  H    4.255146   2.455084   0.000000
    29  H    7.707428   6.474261   4.097298   0.000000
    30  H    9.304373   7.636881   5.205480   2.451511   0.000000
    31  H    9.209987   7.373756   5.218248   4.246596   2.441946
                   31
    31  H    0.000000
 Stoichiometry    C14H15NO
 Framework group  C1[X(C14H15NO)]
 Deg. of freedom    87
 Full point group                 C1      NOp   1
 Largest Abelian subgroup         C1      NOp   1
 Largest concise Abelian subgroup C1      NOp   1
                         Standard orientation:                         
 ---------------------------------------------------------------------
 Center     Atomic      Atomic             Coordinates (Angstroms)
 Number     Number       Type             X           Y           Z
 ---------------------------------------------------------------------
      1          6           0        4.189405   -2.021430   -0.426622
      2          8           0        2.817105   -1.779775   -0.620249
      3          6           0        2.380886   -0.513858   -0.207311
      4          6           0        1.033040   -0.213834   -0.383947
      5          6           0        0.493509    1.010378   -0.010042
      6          7           0       -0.895990    1.275675   -0.215202
      7          6           0       -1.316241    2.655046   -0.463148
      8          6           0       -1.886681    0.258296   -0.043283
      9          6           0       -3.074729    0.257519   -0.774925
     10          6           0       -4.018283   -0.727464   -0.585470
     11          6           0       -3.800187   -1.731534    0.337257
     12          6           0       -2.631067   -1.747028    1.071593
     13          6           0       -1.686027   -0.764201    0.884381
     14          6           0        1.341979    1.960122    0.558314
     15          6           0        2.678719    1.682265    0.741827
     16          6           0        3.199321    0.463401    0.365966
     17          1           0        4.431945   -1.960072    0.634892
     18          1           0        4.777768   -1.301197   -0.996326
     19          1           0        4.418423   -3.025982   -0.783713
     20          1           0        0.400280   -0.954642   -0.834441
     21          1           0       -1.658429    3.110238    0.464233
     22          1           0       -2.122835    2.695430   -1.190381
     23          1           0       -0.487143    3.238664   -0.858460
     24          1           0       -3.242650    1.019136   -1.514694
     25          1           0       -4.928938   -0.717268   -1.162008
     26          1           0       -4.540051   -2.501511    0.483283
     27          1           0       -2.458981   -2.528693    1.793422
     28          1           0       -0.781663   -0.765836    1.467263
     29          1           0        0.938584    2.905449    0.875436
     30          1           0        3.322236    2.424135    1.185997
     31          1           0        4.244688    0.264555    0.516370
 ---------------------------------------------------------------------
 Rotational constants (GHZ):           0.9282726           0.3227554           0.2587384
 Standard basis: def2SVP (5D, 7F)
 There are   315 symmetry adapted cartesian basis functions of A   symmetry.
 There are   299 symmetry adapted basis functions of A   symmetry.
   299 basis functions,   505 primitive gaussians,   315 cartesian basis functions
    57 alpha electrons       57 beta electrons
       nuclear repulsion energy      1030.8152215346 Hartrees.
 NAtoms=   31 NActive=   31 NUniq=   31 SFac= 1.00D+00 NAtFMM=   60 NAOKFM=F Big=F
 Integral buffers will be    131072 words long.
 Raffenetti 2 integral format.
 Two-electron integral symmetry is turned on.
 Nuclear repulsion after empirical dispersion term =     1030.7949873163 Hartrees.
 One-electron integrals computed using PRISM.
   1 Symmetry operations used in ECPInt.
 ECPInt:  NShTT=   10011 NPrTT=   36031 LenC2=    9290 LenP2D=   24206.
 LDataN:  DoStor=T MaxTD1= 4 Len=   56
 NBasis=   299 RedAO= T EigKep=  2.14D-04  NBF=   299
 NBsUse=   299 1.00D-06 EigRej= -1.00D+00 NBFU=   299
 ExpMin= 1.22D-01 ExpMax= 2.27D+03 ExpMxC= 3.41D+02 IAcc=3 IRadAn=         5 AccDes= 0.00D+00
 Harris functional with IExCor= 4639 and IRadAn=       5 diagonalized for initial guess.
 HarFok:  IExCor= 4639 AccDes= 0.00D+00 IRadAn=         5 IDoV= 1 UseB2=F ITyADJ=14
 ICtDFT=  3500011 ScaDFX=  1.000000  1.000000  1.000000  1.000000
 FoFCou: FMM=F IPFlag=           0 FMFlag=      100000 FMFlg1=           0
         NFxFlg=           0 DoJE=T BraDBF=F KetDBF=T FulRan=T
         wScrn=  0.000000 ICntrl=       500 IOpCl=  0 I1Cent=   200000004 NGrid=           0
         NMat0=    1 NMatS0=      1 NMatT0=    0 NMatD0=    1 NMtDS0=    0 NMtDT0=    0
 Petite list used in FoFCou.
 Requested convergence on RMS density matrix=1.00D-08 within 128 cycles.
 Requested convergence on MAX density matrix=1.00D-06.
 Requested convergence on             energy=1.00D-06.
 No special actions if energy rises.
 Integral accuracy reduced to 1.0D-05 until final iterations.
 Initial convergence to 1.0D-05 achieved.  Increase integral accuracy.
 SCF Done:  E(RwB97XD) =  -671.770318128     A.U. after   15 cycles
            NFock= 15  Conv=0.49D-08     -V/T= 2.0105

 **********************************************************************

            Population analysis using the SCF Density.

 **********************************************************************

 Orbital symmetries:
       Occupied  (A) (A) (A) (A) (A) (A) (A) (A) (A) (A) (A) (A)
                 (A) (A) (A) (A) (A) (A) (A) (A) (A) (A) (A) (A)
                 (A) (A) (A) (A) (A) (A) (A) (A) (A) (A) (A) (A)
                 (A) (A) (A) (A) (A) (A) (A) (A) (A) (A) (A) (A)
                 (A) (A) (A) (A) (A) (A) (A) (A) (A)
       Virtual   (A) (A) (A) (A) (A) (A) (A) (A) (A) (A) (A) (A)
                 (A) (A) (A) (A) (A) (A) (A) (A) (A) (A) (A) (A)
                 (A) (A) (A) (A) (A) (A) (A) (A) (A) (A) (A) (A)
                 (A) (A) (A) (A) (A) (A) (A) (A) (A) (A) (A) (A)
                 (A) (A) (A) (A) (A) (A) (A) (A) (A) (A) (A) (A)
                 (A) (A) (A) (A) (A) (A) (A) (A) (A) (A) (A) (A)
                 (A) (A) (A) (A) (A) (A) (A) (A) (A) (A) (A) (A)
                 (A) (A) (A) (A) (A) (A) (A) (A) (A) (A) (A) (A)
                 (A) (A) (A) (A) (A) (A) (A) (A) (A) (A) (A) (A)
                 (A) (A) (A) (A) (A) (A) (A) (A) (A) (A) (A) (A)
                 (A) (A) (A) (A) (A) (A) (A) (A) (A) (A) (A) (A)
                 (A) (A) (A) (A) (A) (A) (A) (A) (A) (A) (A) (A)
                 (A) (A) (A) (A) (A) (A) (A) (A) (A) (A) (A) (A)
                 (A) (A) (A) (A) (A) (A) (A) (A) (A) (A) (A) (A)
                 (A) (A) (A) (A) (A) (A) (A) (A) (A) (A) (A) (A)
                 (A) (A) (A) (A) (A) (A) (A) (A) (A) (A) (A) (A)
                 (A) (A) (A) (A) (A) (A) (A) (A) (A) (A) (A) (A)
                 (A) (A) (A) (A) (A) (A) (A) (A) (A) (A) (A) (A)
                 (A) (A) (A) (A) (A) (A) (A) (A) (A) (A) (A) (A)
                 (A) (A) (A) (A) (A) (A) (A) (A) (A) (A) (A) (A)
                 (A) (A)
 The electronic state is 1-A.
 Alpha  occ. eigenvalues --  -19.28203 -14.46401 -10.35824 -10.34605 -10.34057
 Alpha  occ. eigenvalues --  -10.33834 -10.32883 -10.30014 -10.29509 -10.29368
 Alpha  occ. eigenvalues --  -10.29256 -10.29036 -10.28884 -10.28856 -10.28721
 Alpha  occ. eigenvalues --  -10.28609  -1.14560  -1.04029  -0.95372  -0.93790
 Alpha  occ. eigenvalues --   -0.85147  -0.84805  -0.83937  -0.82904  -0.78581
 Alpha  occ. eigenvalues --   -0.76751  -0.71286  -0.69698  -0.68534  -0.65943
 Alpha  occ. eigenvalues --   -0.63198  -0.61112  -0.57671  -0.57076  -0.56536
 Alpha  occ. eigenvalues --   -0.55800  -0.55541  -0.53660  -0.52784  -0.52005
 Alpha  occ. eigenvalues --   -0.51214  -0.50341  -0.49791  -0.47885  -0.46717
 Alpha  occ. eigenvalues --   -0.46181  -0.45442  -0.44937  -0.43572  -0.42261
 Alpha  occ. eigenvalues --   -0.40949  -0.40770  -0.37705  -0.33628  -0.33092
 Alpha  occ. eigenvalues --   -0.30118  -0.26058
 Alpha virt. eigenvalues --    0.05465   0.06393   0.07794   0.09418   0.13948
 Alpha virt. eigenvalues --    0.15050   0.15973   0.17067   0.18160   0.19858
 Alpha virt. eigenvalues --    0.20250   0.20368   0.21203   0.21644   0.21959
 Alpha virt. eigenvalues --    0.22180   0.22777   0.23439   0.24441   0.25035
 Alpha virt. eigenvalues --    0.25555   0.26121   0.29344   0.31324   0.32613
 Alpha virt. eigenvalues --    0.34905   0.36517   0.37331   0.37924   0.39149
 Alpha virt. eigenvalues --    0.39786   0.41097   0.41392   0.42987   0.44320
 Alpha virt. eigenvalues --    0.46086   0.47537   0.48612   0.49348   0.50720
 Alpha virt. eigenvalues --    0.51588   0.52623   0.53174   0.54054   0.54317
 Alpha virt. eigenvalues --    0.54986   0.56725   0.57057   0.57461   0.58161
 Alpha virt. eigenvalues --    0.58866   0.59640   0.59854   0.61223   0.62841
 Alpha virt. eigenvalues --    0.64255   0.64869   0.65876   0.66873   0.67272
 Alpha virt. eigenvalues --    0.68366   0.69819   0.70806   0.72001   0.72410
 Alpha virt. eigenvalues --    0.72531   0.73349   0.73881   0.74496   0.74917
 Alpha virt. eigenvalues --    0.75319   0.76152   0.76727   0.76957   0.77552
 Alpha virt. eigenvalues --    0.77647   0.78573   0.78668   0.79288   0.80439
 Alpha virt. eigenvalues --    0.81642   0.83478   0.83655   0.84504   0.85522
 Alpha virt. eigenvalues --    0.86238   0.87161   0.87935   0.90029   0.91231
 Alpha virt. eigenvalues --    0.91707   0.92391   0.93894   0.97641   0.99308
 Alpha virt. eigenvalues --    0.99738   1.02879   1.03853   1.04845   1.10123
 Alpha virt. eigenvalues --    1.10707   1.11399   1.14878   1.17419   1.20005
 Alpha virt. eigenvalues --    1.21516   1.24002   1.25626   1.27558   1.28350
 Alpha virt. eigenvalues --    1.29863   1.31572   1.32245   1.33845   1.35396
 Alpha virt. eigenvalues --    1.36111   1.36754   1.37696   1.38492   1.39693
 Alpha virt. eigenvalues --    1.40844   1.41196   1.42940   1.44743   1.48967
 Alpha virt. eigenvalues --    1.53842   1.55310   1.59124   1.60356   1.61347
 Alpha virt. eigenvalues --    1.62900   1.65923   1.68680   1.70917   1.75465
 Alpha virt. eigenvalues --    1.77032   1.77183   1.78071   1.79265   1.79730
 Alpha virt. eigenvalues --    1.80444   1.82193   1.83606   1.83876   1.84439
 Alpha virt. eigenvalues --    1.84889   1.85827   1.86561   1.87169   1.87375
 Alpha virt. eigenvalues --    1.88644   1.89140   1.89514   1.90619   1.91176
 Alpha virt. eigenvalues --    1.91562   1.92178   1.93411   1.94054   1.96512
 Alpha virt. eigenvalues --    1.98362   1.98830   2.00181   2.02686   2.02839
 Alpha virt. eigenvalues --    2.04816   2.05409   2.05849   2.06747   2.09338
 Alpha virt. eigenvalues --    2.10405   2.10684   2.13075   2.16250   2.16986
 Alpha virt. eigenvalues --    2.19700   2.21396   2.23976   2.24342   2.26395
 Alpha virt. eigenvalues --    2.28111   2.28542   2.29050   2.29901   2.30192
 Alpha virt. eigenvalues --    2.31811   2.33706   2.34802   2.36823   2.38339
 Alpha virt. eigenvalues --    2.40285   2.41170   2.41322   2.42091   2.42336
 Alpha virt. eigenvalues --    2.45393   2.45997   2.47124   2.49336   2.52027
 Alpha virt. eigenvalues --    2.55175   2.56716   2.60910   2.66299   2.69631
 Alpha virt. eigenvalues --    2.70198   2.71325   2.73132   2.74159   2.75710
 Alpha virt. eigenvalues --    2.76894   2.77372   2.79139   2.82142   2.85175
 Alpha virt. eigenvalues --    2.85863   2.86137   2.88828   2.90468   2.93247
 Alpha virt. eigenvalues --    2.93880   2.97630   2.98229   2.98344   3.00461
 Alpha virt. eigenvalues --    3.01271   3.04070   3.06855   3.08828   3.12318
 Alpha virt. eigenvalues --    3.14744   3.16227   3.18494   3.24276   3.26055
 Alpha virt. eigenvalues --    3.29773   3.35587   3.45538   3.52472   3.56056
 Alpha virt. eigenvalues --    3.79624   3.82219
          Condensed to atoms (all electrons):
               1          2          3          4          5          6
     1  C    4.392794   0.300842  -0.058621   0.006925  -0.000254   0.000001
     2  O    0.300842   7.909100   0.397958  -0.078699   0.003929  -0.000005
     3  C   -0.058621   0.397958   5.044673   0.225953   0.170342   0.010892
     4  C    0.006925  -0.078699   0.225953   5.342883   0.231335  -0.090763
     5  C   -0.000254   0.003929   0.170342   0.231335   5.109354   0.334574
     6  N    0.000001  -0.000005   0.010892  -0.090763   0.334574   6.820613
     7  C   -0.000000   0.000000  -0.000204   0.006001  -0.054903   0.340050
     8  C    0.000000  -0.000017  -0.000495  -0.004351  -0.046322   0.308762
     9  C   -0.000000   0.000000  -0.000058   0.000604   0.005928  -0.078018
    10  C    0.000000   0.000000   0.000005   0.000033  -0.000185   0.007427
    11  C    0.000000   0.000000  -0.000005  -0.000006   0.000049  -0.000508
    12  C   -0.000000   0.000003   0.000100  -0.001392  -0.000142   0.009576
    13  C   -0.000001   0.000005  -0.001435  -0.006944  -0.004902  -0.080550
    14  C    0.000095  -0.000289  -0.177448   0.090669   0.217843  -0.087238
    15  C    0.001040   0.004784   0.147147  -0.153713   0.143953   0.009764
    16  C    0.000817  -0.083045   0.152140   0.059703  -0.179129  -0.001037
    17  H    0.403341  -0.030775  -0.009696  -0.000326   0.000034   0.000000
    18  H    0.403584  -0.030657  -0.009426  -0.000394   0.000047   0.000000
    19  H    0.397579  -0.020669   0.005094  -0.000006   0.000008  -0.000000
    20  H   -0.000178   0.002343  -0.067815   0.450539  -0.073493  -0.014107
    21  H    0.000000  -0.000000   0.000048  -0.000740  -0.003371  -0.041198
    22  H    0.000000  -0.000000  -0.000009   0.000152   0.005118  -0.022925
    23  H   -0.000000   0.000000  -0.000064   0.000188  -0.009058  -0.016953
    24  H    0.000000  -0.000000   0.000001  -0.000035  -0.000186  -0.010963
    25  H   -0.000000  -0.000000  -0.000000  -0.000001   0.000007  -0.000121
    26  H    0.000000  -0.000000  -0.000000  -0.000000   0.000001   0.000010
    27  H    0.000000  -0.000000   0.000003   0.000058  -0.000023  -0.000127
    28  H   -0.000003   0.000045  -0.000950   0.002097   0.005993  -0.014769
    29  H   -0.000000   0.000005  -0.002313   0.016969  -0.076124  -0.014712
    30  H   -0.000033  -0.000060   0.014376  -0.002393   0.015403  -0.000129
    31  H    0.008196  -0.007985  -0.090444   0.014236  -0.001892   0.000006
               7          8          9         10         11         12
     1  C   -0.000000   0.000000  -0.000000   0.000000   0.000000  -0.000000
     2  O    0.000000  -0.000017   0.000000   0.000000   0.000000   0.000003
     3  C   -0.000204  -0.000495  -0.000058   0.000005  -0.000005   0.000100
     4  C    0.006001  -0.004351   0.000604   0.000033  -0.000006  -0.001392
     5  C   -0.054903  -0.046322   0.005928  -0.000185   0.000049  -0.000142
     6  N    0.340050   0.308762  -0.078018   0.007427  -0.000508   0.009576
     7  C    4.433927  -0.045426  -0.004263   0.000973  -0.000022  -0.000152
     8  C   -0.045426   5.090542   0.269462   0.112704  -0.164422   0.118887
     9  C   -0.004263   0.269462   5.166183   0.299126   0.083325  -0.149750
    10  C    0.000973   0.112704   0.299126   5.022304   0.286519   0.098775
    11  C   -0.000022  -0.164422   0.083325   0.286519   5.106640   0.274949
    12  C   -0.000152   0.118887  -0.149750   0.098775   0.274949   5.062780
    13  C    0.004213   0.278716   0.062853  -0.149425   0.087906   0.269429
    14  C   -0.000812   0.006322  -0.000455  -0.000003   0.000002  -0.000092
    15  C    0.000073  -0.000140   0.000002  -0.000000  -0.000000   0.000006
    16  C    0.000121  -0.000033   0.000002  -0.000000   0.000000  -0.000003
    17  H   -0.000000   0.000000   0.000000   0.000000  -0.000000   0.000000
    18  H    0.000000  -0.000000  -0.000000  -0.000000   0.000000   0.000000
    19  H    0.000000   0.000000  -0.000000  -0.000000  -0.000000  -0.000000
    20  H    0.000057   0.004462  -0.000834   0.000012   0.000026  -0.000405
    21  H    0.408067   0.003801   0.000498  -0.000069  -0.000010  -0.000132
    22  H    0.401264  -0.014017   0.002330   0.000729  -0.000055   0.000088
    23  H    0.397536   0.005070   0.000546  -0.000024   0.000002   0.000015
    24  H   -0.000627  -0.077068   0.454692  -0.064151   0.015566  -0.002604
    25  H   -0.000011   0.015426  -0.066249   0.450592  -0.071062   0.014178
    26  H   -0.000000  -0.001545   0.014669  -0.070081   0.452410  -0.069949
    27  H    0.000006   0.015302  -0.002082   0.014351  -0.072778   0.453282
    28  H   -0.000169  -0.067078   0.015970  -0.002423   0.014831  -0.070692
    29  H    0.007924  -0.000300   0.000005  -0.000000   0.000000  -0.000000
    30  H   -0.000020   0.000007  -0.000000   0.000000   0.000000  -0.000000
    31  H    0.000001   0.000001   0.000000  -0.000000   0.000000  -0.000000
              13         14         15         16         17         18
     1  C   -0.000001   0.000095   0.001040   0.000817   0.403341   0.403584
     2  O    0.000005  -0.000289   0.004784  -0.083045  -0.030775  -0.030657
     3  C   -0.001435  -0.177448   0.147147   0.152140  -0.009696  -0.009426
     4  C   -0.006944   0.090669  -0.153713   0.059703  -0.000326  -0.000394
     5  C   -0.004902   0.217843   0.143953  -0.179129   0.000034   0.000047
     6  N   -0.080550  -0.087238   0.009764  -0.001037   0.000000   0.000000
     7  C    0.004213  -0.000812   0.000073   0.000121  -0.000000   0.000000
     8  C    0.278716   0.006322  -0.000140  -0.000033   0.000000  -0.000000
     9  C    0.062853  -0.000455   0.000002   0.000002   0.000000  -0.000000
    10  C   -0.149425  -0.000003  -0.000000  -0.000000   0.000000  -0.000000
    11  C    0.087906   0.000002  -0.000000   0.000000  -0.000000   0.000000
    12  C    0.269429  -0.000092   0.000006  -0.000003   0.000000   0.000000
    13  C    5.170561   0.000888   0.000038   0.000025  -0.000000   0.000000
    14  C    0.000888   5.264488   0.231353   0.103532  -0.000119  -0.000107
    15  C    0.000038   0.231353   5.076556   0.215171   0.000730   0.000716
    16  C    0.000025   0.103532   0.215171   5.408370   0.006432   0.006174
    17  H   -0.000000  -0.000119   0.000730   0.006432   0.662172  -0.043306
    18  H    0.000000  -0.000107   0.000716   0.006174  -0.043306   0.661028
    19  H    0.000000   0.000005  -0.000036   0.000184  -0.023729  -0.023497
    20  H    0.002736   0.017034  -0.003538   0.021122   0.000079   0.000095
    21  H    0.001428   0.002069   0.000070  -0.000017  -0.000000   0.000000
    22  H   -0.000430   0.000554  -0.000011   0.000003   0.000000  -0.000000
    23  H   -0.000326   0.004805   0.001459  -0.000143   0.000000  -0.000000
    24  H    0.016628   0.000002  -0.000000   0.000000  -0.000000   0.000000
    25  H   -0.002024  -0.000000   0.000000   0.000000   0.000000  -0.000000
    26  H    0.014852   0.000000   0.000000  -0.000000  -0.000000  -0.000000
    27  H   -0.067212   0.000001  -0.000000  -0.000000   0.000000  -0.000000
    28  H    0.459927  -0.000762   0.000078   0.000018   0.000001   0.000000
    29  H    0.000005   0.460372  -0.073127   0.016479  -0.000001   0.000001
    30  H   -0.000002  -0.069059   0.453250  -0.068960   0.000029   0.000030
    31  H    0.000000   0.016098  -0.062286   0.461198   0.000179   0.000276
              19         20         21         22         23         24
     1  C    0.397579  -0.000178   0.000000   0.000000  -0.000000   0.000000
     2  O   -0.020669   0.002343  -0.000000  -0.000000   0.000000  -0.000000
     3  C    0.005094  -0.067815   0.000048  -0.000009  -0.000064   0.000001
     4  C   -0.000006   0.450539  -0.000740   0.000152   0.000188  -0.000035
     5  C    0.000008  -0.073493  -0.003371   0.005118  -0.009058  -0.000186
     6  N   -0.000000  -0.014107  -0.041198  -0.022925  -0.016953  -0.010963
     7  C    0.000000   0.000057   0.408067   0.401264   0.397536  -0.000627
     8  C    0.000000   0.004462   0.003801  -0.014017   0.005070  -0.077068
     9  C   -0.000000  -0.000834   0.000498   0.002330   0.000546   0.454692
    10  C   -0.000000   0.000012  -0.000069   0.000729  -0.000024  -0.064151
    11  C   -0.000000   0.000026  -0.000010  -0.000055   0.000002   0.015566
    12  C   -0.000000  -0.000405  -0.000132   0.000088   0.000015  -0.002604
    13  C    0.000000   0.002736   0.001428  -0.000430  -0.000326   0.016628
    14  C    0.000005   0.017034   0.002069   0.000554   0.004805   0.000002
    15  C   -0.000036  -0.003538   0.000070  -0.000011   0.001459  -0.000000
    16  C    0.000184   0.021122  -0.000017   0.000003  -0.000143   0.000000
    17  H   -0.023729   0.000079  -0.000000   0.000000   0.000000  -0.000000
    18  H   -0.023497   0.000095   0.000000  -0.000000  -0.000000   0.000000
    19  H    0.612927  -0.000106  -0.000000  -0.000000   0.000000   0.000000
    20  H   -0.000106   0.652687  -0.000013  -0.000009  -0.000016  -0.000008
    21  H   -0.000000  -0.000013   0.656853  -0.034075  -0.031025   0.000370
    22  H   -0.000000  -0.000009  -0.034075   0.629279  -0.012248  -0.001320
    23  H    0.000000  -0.000016  -0.031025  -0.012248   0.612282  -0.000271
    24  H    0.000000  -0.000008   0.000370  -0.001320  -0.000271   0.693477
    25  H    0.000000  -0.000003  -0.000005   0.000064  -0.000000  -0.014012
    26  H    0.000000   0.000000  -0.000000  -0.000000   0.000000  -0.000254
    27  H    0.000000   0.000020   0.000001  -0.000000  -0.000000   0.000025
    28  H   -0.000000  -0.002447   0.000106  -0.000041  -0.000018  -0.000174
    29  H   -0.000000  -0.000169  -0.000373   0.000095  -0.001279  -0.000002
    30  H   -0.000001   0.000018   0.000008  -0.000001   0.000018  -0.000000
    31  H   -0.000269  -0.000196  -0.000000  -0.000000  -0.000001   0.000000
              25         26         27         28         29         30
     1  C   -0.000000   0.000000   0.000000  -0.000003  -0.000000  -0.000033
     2  O   -0.000000  -0.000000  -0.000000   0.000045   0.000005  -0.000060
     3  C   -0.000000  -0.000000   0.000003  -0.000950  -0.002313   0.014376
     4  C   -0.000001  -0.000000   0.000058   0.002097   0.016969  -0.002393
     5  C    0.000007   0.000001  -0.000023   0.005993  -0.076124   0.015403
     6  N   -0.000121   0.000010  -0.000127  -0.014769  -0.014712  -0.000129
     7  C   -0.000011  -0.000000   0.000006  -0.000169   0.007924  -0.000020
     8  C    0.015426  -0.001545   0.015302  -0.067078  -0.000300   0.000007
     9  C   -0.066249   0.014669  -0.002082   0.015970   0.000005  -0.000000
    10  C    0.450592  -0.070081   0.014351  -0.002423  -0.000000   0.000000
    11  C   -0.071062   0.452410  -0.072778   0.014831   0.000000   0.000000
    12  C    0.014178  -0.069949   0.453282  -0.070692  -0.000000  -0.000000
    13  C   -0.002024   0.014852  -0.067212   0.459927   0.000005  -0.000002
    14  C   -0.000000   0.000000   0.000001  -0.000762   0.460372  -0.069059
    15  C    0.000000   0.000000  -0.000000   0.000078  -0.073127   0.453250
    16  C    0.000000  -0.000000  -0.000000   0.000018   0.016479  -0.068960
    17  H    0.000000  -0.000000   0.000000   0.000001  -0.000001   0.000029
    18  H   -0.000000  -0.000000  -0.000000   0.000000   0.000001   0.000030
    19  H    0.000000   0.000000   0.000000  -0.000000  -0.000000  -0.000001
    20  H   -0.000003   0.000000   0.000020  -0.002447  -0.000169   0.000018
    21  H   -0.000005  -0.000000   0.000001   0.000106  -0.000373   0.000008
    22  H    0.000064  -0.000000  -0.000000  -0.000041   0.000095  -0.000001
    23  H   -0.000000   0.000000  -0.000000  -0.000018  -0.001279   0.000018
    24  H   -0.014012  -0.000254   0.000025  -0.000174  -0.000002  -0.000000
    25  H    0.676717  -0.012366  -0.000270   0.000019  -0.000000  -0.000000
    26  H   -0.012366   0.678214  -0.012390  -0.000235   0.000000   0.000000
    27  H   -0.000270  -0.012390   0.673543  -0.012727  -0.000000   0.000000
    28  H    0.000019  -0.000235  -0.012727   0.654362  -0.000019  -0.000003
    29  H   -0.000000   0.000000  -0.000000  -0.000019   0.689689  -0.013104
    30  H   -0.000000   0.000000   0.000000  -0.000003  -0.013104   0.673663
    31  H    0.000000  -0.000000   0.000000   0.000002  -0.000238  -0.013828
              31
     1  C    0.008196
     2  O   -0.007985
     3  C   -0.090444
     4  C    0.014236
     5  C   -0.001892
     6  N    0.000006
     7  C    0.000001
     8  C    0.000001
     9  C    0.000000
    10  C   -0.000000
    11  C    0.000000
    12  C   -0.000000
    13  C    0.000000
    14  C    0.016098
    15  C   -0.062286
    16  C    0.461198
    17  H    0.000179
    18  H    0.000276
    19  H   -0.000269
    20  H   -0.000196
    21  H   -0.000000
    22  H   -0.000000
    23  H   -0.000001
    24  H    0.000000
    25  H    0.000000
    26  H   -0.000000
    27  H    0.000000
    28  H    0.000002
    29  H   -0.000238
    30  H   -0.013828
    31  H    0.686868
 Mulliken charges:
               1
     1  C    0.143875
     2  O   -0.366811
     3  C    0.250251
     4  C   -0.108583
     5  C    0.206067
     6  N   -0.367552
     7  C    0.106398
     8  C    0.191751
     9  C   -0.074487
    10  C   -0.007190
    11  C   -0.013355
    12  C   -0.006753
    13  C   -0.056960
    14  C   -0.079748
    15  C    0.006660
    16  C   -0.119122
    17  H    0.034953
    18  H    0.035437
    19  H    0.052516
    20  H    0.012104
    21  H    0.037707
    22  H    0.045468
    23  H    0.049506
    24  H   -0.009086
    25  H    0.009121
    26  H    0.006663
    27  H    0.011018
    28  H    0.019059
    29  H   -0.009781
    30  H    0.010791
    31  H   -0.009920
 Sum of Mulliken charges =  -0.00000
 Mulliken charges with hydrogens summed into heavy atoms:
               1
     1  C    0.266782
     2  O   -0.366811
     3  C    0.250251
     4  C   -0.096479
     5  C    0.206067
     6  N   -0.367552
     7  C    0.239079
     8  C    0.191751
     9  C   -0.083572
    10  C    0.001931
    11  C   -0.006692
    12  C    0.004265
    13  C   -0.037900
    14  C   -0.089529
    15  C    0.017452
    16  C   -0.129042
 Electronic spatial extent (au):  <R**2>=           4267.7800
 Charge=             -0.0000 electrons
 Dipole moment (field-independent basis, Debye):
    X=              0.9817    Y=              0.9892    Z=              0.1870  Tot=              1.4061
 Quadrupole moment (field-independent basis, Debye-Ang):
   XX=            -80.4629   YY=            -87.0687   ZZ=            -95.8906
   XY=             -3.1127   XZ=              3.9893   YZ=             -2.2831
 Traceless Quadrupole moment (field-independent basis, Debye-Ang):
   XX=              7.3445   YY=              0.7387   ZZ=             -8.0833
   XY=             -3.1127   XZ=              3.9893   YZ=             -2.2831
 Octapole moment (field-independent basis, Debye-Ang**2):
  XXX=             63.0367  YYY=              6.6304  ZZZ=             -5.0030  XYY=              4.9160
  XXY=            -28.0055  XXZ=            -12.8731  XZZ=              0.9540  YZZ=             -2.3564
  YYZ=              5.6039  XYZ=             12.0400
 Hexadecapole moment (field-independent basis, Debye-Ang**3):
 XXXX=          -3717.2229 YYYY=          -1301.8096 ZZZZ=           -333.6351 XXXY=            -89.2399
 XXXZ=             63.3937 YYYX=            -51.2556 YYYZ=             -3.2353 ZZZX=             -2.7864
 ZZZY=             -6.5738 XXYY=           -818.5322 XXZZ=           -743.3146 YYZZ=           -271.7059
 XXYZ=              4.6725 YYXZ=             -4.4164 ZZXY=            -14.8451
 N-N= 1.030794987316D+03 E-N=-3.619564218399D+03  KE= 6.648139848043D+02
   1 Symmetry operations used in ECPInt.
 ECPInt:  NShTT=   10011 NPrTT=   36031 LenC2=    9290 LenP2D=   24206.
 LDataN:  DoStor=T MaxTD1= 5 Len=  102
 Calling FoFJK, ICntrl=      2127 FMM=F ISym2X=0 I1Cent= 0 IOpClX= 0 NMat=1 NMatS=1 NMatT=0.
 ***** Axes restored to original set *****
 -------------------------------------------------------------------
 Center     Atomic                   Forces (Hartrees/Bohr)
 Number     Number              X              Y              Z
 -------------------------------------------------------------------
      1        6           0.011856096   -0.001054949   -0.002611562
      2        8           0.003330133   -0.033792098    0.010699557
      3        6           0.001041890    0.019312328   -0.005497858
      4        6          -0.002595419    0.008953842   -0.004735597
      5        6           0.021892881   -0.004350012   -0.000605613
      6        7          -0.005528799    0.006409864   -0.004269722
      7        6          -0.002205843    0.018659554    0.006622568
      8        6          -0.019806076   -0.012155902   -0.003061733
      9        6          -0.008822598   -0.005040631   -0.001479477
     10        6           0.002370727    0.001941782    0.002103909
     11        6           0.006956832    0.004129732    0.000252586
     12        6           0.000536669    0.001200497   -0.000953028
     13        6          -0.004122200   -0.004648231    0.001769979
     14        6           0.006846471   -0.006376055    0.000943839
     15        6           0.004565559   -0.000951778   -0.002808428
     16        6          -0.007021261    0.017052251   -0.004267014
     17        1          -0.006386657    0.000766932    0.007117448
     18        1          -0.008789534   -0.002742718   -0.002705206
     19        1           0.002907482    0.004156750   -0.002183553
     20        1           0.008067369    0.008662457   -0.005516987
     21        1           0.003021162   -0.009055845    0.007252606
     22        1           0.005352636   -0.000987183   -0.004773622
     23        1          -0.005184895   -0.000935961   -0.002935492
     24        1           0.001900482   -0.008404799   -0.007885390
     25        1           0.008366432   -0.001970065   -0.005817534
     26        1           0.008243372    0.006151902    0.001604557
     27        1          -0.001353726    0.007200553    0.007378853
     28        1          -0.008612417    0.002250423    0.006203010
     29        1           0.001220928   -0.010539816    0.003886839
     30        1          -0.007265663   -0.005537105    0.003979853
     31        1          -0.010782035    0.001694277    0.002292211
 -------------------------------------------------------------------
 Cartesian Forces:  Max     0.033792098 RMS     0.007840685

 GradGradGradGradGradGradGradGradGradGradGradGradGradGradGradGradGradGrad
 Berny optimization.
 FormGI is forming the generalized inverse of G from B-inverse, IUseBI=4.
 Internal  Forces:  Max     0.034282789 RMS     0.006384045
 Search for a local minimum.
 Step number   1 out of a maximum of  161
 All quantities printed in internal units (Hartrees-Bohrs-Radians)
 Mixed Optimization -- RFO/linear search
 Second derivative matrix not updated -- first step.
 ITU=  0
     Eigenvalues ---    0.00857   0.01137   0.01289   0.01303   0.01602
     Eigenvalues ---    0.01676   0.01891   0.01917   0.02072   0.02175
     Eigenvalues ---    0.02181   0.02201   0.02216   0.02251   0.02262
     Eigenvalues ---    0.02281   0.02285   0.02335   0.02339   0.02342
     Eigenvalues ---    0.02358   0.02369   0.02377   0.02385   0.07344
     Eigenvalues ---    0.07431   0.10344   0.10571   0.15993   0.15995
     Eigenvalues ---    0.15998   0.15999   0.16000   0.16000   0.16000
     Eigenvalues ---    0.16000   0.16000   0.16000   0.16000   0.16000
     Eigenvalues ---    0.16000   0.16000   0.16000   0.22000   0.22000
     Eigenvalues ---    0.22000   0.23454   0.23466   0.23481   0.24852
     Eigenvalues ---    0.24898   0.24999   0.25000   0.25000   0.25000
     Eigenvalues ---    0.34740   0.34744   0.34760   0.35014   0.35016
     Eigenvalues ---    0.35187   0.36254   0.36255   0.36262   0.36265
     Eigenvalues ---    0.36490   0.36530   0.36575   0.36612   0.36644
     Eigenvalues ---    0.36807   0.40930   0.41076   0.42647   0.43051
     Eigenvalues ---    0.43435   0.43728   0.44511   0.45423   0.46266
     Eigenvalues ---    0.47067   0.47309   0.47958   0.48621   0.49129
     Eigenvalues ---    0.49205   0.49719
 RFO step:  Lambda=-1.67411041D-02 EMin= 8.56667656D-03
 Linear search not attempted -- first point.
 Iteration  1 RMS(Cart)=  0.06598213 RMS(Int)=  0.00180774
 Iteration  2 RMS(Cart)=  0.00313427 RMS(Int)=  0.00015870
 Iteration  3 RMS(Cart)=  0.00000855 RMS(Int)=  0.00015863
 Iteration  4 RMS(Cart)=  0.00000000 RMS(Int)=  0.00015863
 Variable       Old X    -DE/DX   Delta X   Delta X   Delta X     New X
                                 (Linear)    (Quad)   (Total)
    R1        2.65847   0.00070   0.00000   0.00152   0.00152   2.66000
    R2        2.06093   0.00849   0.00000   0.02331   0.02331   2.08424
    R3        2.06099   0.00847   0.00000   0.02326   0.02326   2.08425
    R4        2.06066   0.00447   0.00000   0.01226   0.01226   2.07291
    R5        2.64788  -0.03428   0.00000  -0.07279  -0.07279   2.57508
    R6        2.63066   0.00215   0.00000   0.00355   0.00359   2.63425
    R7        2.64124   0.00311   0.00000   0.00614   0.00619   2.64743
    R8        2.62501   0.01013   0.00000   0.02011   0.02010   2.64512
    R9        2.02838   0.01298   0.00000   0.03373   0.03373   2.06211
   R10        2.70117  -0.01949   0.00000  -0.04560  -0.04560   2.65557
   R11        2.63544   0.00978   0.00000   0.02068   0.02063   2.65606
   R12        2.76492  -0.00841   0.00000  -0.02200  -0.02200   2.74292
   R13        2.70309  -0.01687   0.00000  -0.03959  -0.03959   2.66350
   R14        2.05653   0.01112   0.00000   0.03030   0.03030   2.08683
   R15        2.05372   0.00724   0.00000   0.01964   0.01964   2.07336
   R16        2.05649   0.00580   0.00000   0.01582   0.01582   2.07231
   R17        2.63666   0.00794   0.00000   0.01601   0.01600   2.65267
   R18        2.63637   0.01053   0.00000   0.02148   0.02147   2.65784
   R19        2.60232   0.01634   0.00000   0.03177   0.03177   2.63409
   R20        2.03136   0.01162   0.00000   0.03035   0.03035   2.06171
   R21        2.60970   0.01232   0.00000   0.02474   0.02475   2.63445
   R22        2.03687   0.01034   0.00000   0.02726   0.02726   2.06413
   R23        2.60914   0.01431   0.00000   0.02874   0.02874   2.63789
   R24        2.03669   0.01041   0.00000   0.02744   0.02744   2.06413
   R25        2.60076   0.01528   0.00000   0.02977   0.02976   2.63052
   R26        2.03675   0.01036   0.00000   0.02732   0.02732   2.06406
   R27        2.03322   0.01079   0.00000   0.02826   0.02826   2.06148
   R28        2.60327   0.01315   0.00000   0.02651   0.02647   2.62973
   R29        2.03261   0.01121   0.00000   0.02933   0.02933   2.06194
   R30        2.60339   0.01527   0.00000   0.03028   0.03029   2.63368
   R31        2.03685   0.00995   0.00000   0.02625   0.02625   2.06310
   R32        2.03086   0.01092   0.00000   0.02851   0.02851   2.05937
    A1        1.91903   0.00652   0.00000   0.03831   0.03794   1.95697
    A2        1.91868   0.00659   0.00000   0.03875   0.03839   1.95706
    A3        1.89446  -0.00747   0.00000  -0.04511  -0.04485   1.84961
    A4        1.92976  -0.00428   0.00000  -0.01882  -0.01966   1.91010
    A5        1.90060  -0.00079   0.00000  -0.00737  -0.00712   1.89348
    A6        1.90075  -0.00079   0.00000  -0.00725  -0.00700   1.89376
    A7        2.00238   0.01762   0.00000   0.06606   0.06606   2.06844
    A8        2.04738  -0.01093   0.00000  -0.04027  -0.04034   2.00704
    A9        2.17763  -0.00017   0.00000   0.00003  -0.00004   2.17759
   A10        2.05817   0.01110   0.00000   0.04024   0.04031   2.09848
   A11        2.13157  -0.00466   0.00000  -0.02141  -0.02138   2.11020
   A12        2.06608   0.00090   0.00000   0.00259   0.00257   2.06865
   A13        2.08547   0.00377   0.00000   0.01884   0.01882   2.10429
   A14        2.09728   0.00172   0.00000   0.00604   0.00597   2.10325
   A15        2.06414   0.00265   0.00000   0.01065   0.01049   2.07462
   A16        2.12176  -0.00437   0.00000  -0.01680  -0.01685   2.10491
   A17        2.06975  -0.00002   0.00000  -0.00057  -0.00061   2.06914
   A18        2.12234   0.00222   0.00000   0.00786   0.00781   2.13014
   A19        2.08514  -0.00225   0.00000  -0.00899  -0.00902   2.07612
   A20        1.91796   0.00742   0.00000   0.04641   0.04641   1.96437
   A21        1.94079  -0.00113   0.00000  -0.00842  -0.00863   1.93216
   A22        1.92657  -0.00337   0.00000  -0.02148  -0.02157   1.90501
   A23        1.89792  -0.00227   0.00000  -0.00830  -0.00842   1.88950
   A24        1.90159  -0.00117   0.00000  -0.00266  -0.00255   1.89904
   A25        1.87805   0.00034   0.00000  -0.00656  -0.00686   1.87119
   A26        2.12599  -0.00537   0.00000  -0.01939  -0.01944   2.10655
   A27        2.09623   0.00379   0.00000   0.01496   0.01489   2.11112
   A28        2.06092   0.00158   0.00000   0.00424   0.00415   2.06508
   A29        2.10793  -0.00027   0.00000  -0.00223  -0.00225   2.10568
   A30        2.08689   0.00119   0.00000   0.00718   0.00718   2.09407
   A31        2.08796  -0.00091   0.00000  -0.00472  -0.00473   2.08323
   A32        2.09874   0.00165   0.00000   0.00772   0.00772   2.10646
   A33        2.09270  -0.00170   0.00000  -0.00881  -0.00881   2.08389
   A34        2.09174   0.00005   0.00000   0.00107   0.00107   2.09280
   A35        2.09122  -0.00377   0.00000  -0.01396  -0.01396   2.07727
   A36        2.09618   0.00174   0.00000   0.00617   0.00616   2.10234
   A37        2.09578   0.00203   0.00000   0.00780   0.00779   2.10357
   A38        2.09565   0.00206   0.00000   0.01002   0.01000   2.10565
   A39        2.09386  -0.00018   0.00000  -0.00021  -0.00023   2.09363
   A40        2.09368  -0.00188   0.00000  -0.00982  -0.00983   2.08385
   A41        2.11190  -0.00124   0.00000  -0.00580  -0.00582   2.10609
   A42        2.07400   0.00183   0.00000   0.00976   0.00976   2.08376
   A43        2.09716  -0.00058   0.00000  -0.00387  -0.00387   2.09330
   A44        2.10282  -0.00386   0.00000  -0.01261  -0.01270   2.09012
   A45        2.08347   0.00340   0.00000   0.01465   0.01469   2.09816
   A46        2.09660   0.00047   0.00000  -0.00191  -0.00188   2.09472
   A47        2.10458   0.00305   0.00000   0.01676   0.01672   2.12130
   A48        2.08909  -0.00112   0.00000  -0.00610  -0.00609   2.08300
   A49        2.08951  -0.00193   0.00000  -0.01069  -0.01069   2.07882
   A50        2.10509  -0.00827   0.00000  -0.03363  -0.03356   2.07153
   A51        2.09165   0.00641   0.00000   0.02969   0.02966   2.12131
   A52        2.08644   0.00186   0.00000   0.00394   0.00390   2.09035
    D1        1.06831   0.00166   0.00000   0.01471   0.01555   1.08386
    D2       -1.06014  -0.00157   0.00000  -0.01219  -0.01304  -1.07317
    D3       -3.13749   0.00002   0.00000   0.00105   0.00105  -3.13644
    D4        3.13314  -0.00032   0.00000  -0.00878  -0.00864   3.12450
    D5       -0.00820   0.00017   0.00000   0.00444   0.00430  -0.00390
    D6        3.14118  -0.00006   0.00000  -0.00146  -0.00147   3.13971
    D7       -0.01248  -0.00001   0.00000  -0.00036  -0.00047  -0.01294
    D8       -0.00064  -0.00052   0.00000  -0.01375  -0.01378  -0.01442
    D9        3.12889  -0.00047   0.00000  -0.01265  -0.01278   3.11611
   D10       -3.14126  -0.00044   0.00000  -0.01176  -0.01189   3.13004
   D11       -0.00006  -0.00032   0.00000  -0.00861  -0.00872  -0.00878
   D12        0.00058   0.00005   0.00000   0.00154   0.00170   0.00228
   D13       -3.14140   0.00017   0.00000   0.00469   0.00487  -3.13653
   D14        3.13766  -0.00040   0.00000  -0.01127  -0.01161   3.12605
   D15        0.00099   0.00051   0.00000   0.01384   0.01375   0.01474
   D16        0.00826  -0.00043   0.00000  -0.01228  -0.01252  -0.00426
   D17       -3.12841   0.00048   0.00000   0.01284   0.01284  -3.11556
   D18       -2.61506   0.00101   0.00000   0.03362   0.03350  -2.58156
   D19        0.64424   0.00166   0.00000   0.05103   0.05100   0.69524
   D20        0.52145   0.00009   0.00000   0.00774   0.00777   0.52922
   D21       -2.50244   0.00074   0.00000   0.02515   0.02527  -2.47717
   D22       -0.00129  -0.00003   0.00000  -0.00168  -0.00184  -0.00313
   D23       -3.11687  -0.00023   0.00000  -0.00722  -0.00730  -3.12417
   D24       -3.13789   0.00087   0.00000   0.02374   0.02348  -3.11440
   D25        0.02972   0.00067   0.00000   0.01820   0.01802   0.04774
   D26       -1.68998   0.00037   0.00000   0.01468   0.01474  -1.67524
   D27        2.49089  -0.00096   0.00000  -0.00022  -0.00018   2.49071
   D28        0.40779   0.00154   0.00000   0.02746   0.02725   0.43505
   D29        1.33648   0.00005   0.00000  -0.00120  -0.00107   1.33541
   D30       -0.76584  -0.00129   0.00000  -0.01610  -0.01598  -0.78182
   D31       -2.84894   0.00121   0.00000   0.01158   0.01145  -2.83749
   D32       -2.61759   0.00037   0.00000   0.01464   0.01466  -2.60294
   D33        0.53435   0.00115   0.00000   0.03676   0.03673   0.57108
   D34        0.64272   0.00087   0.00000   0.03163   0.03166   0.67438
   D35       -2.48852   0.00165   0.00000   0.05375   0.05374  -2.43479
   D36       -3.13353   0.00049   0.00000   0.01391   0.01368  -3.11985
   D37        0.03846   0.00016   0.00000   0.00536   0.00515   0.04360
   D38       -0.00208  -0.00026   0.00000  -0.00771  -0.00776  -0.00984
   D39       -3.11328  -0.00059   0.00000  -0.01627  -0.01629  -3.12958
   D40        3.13349  -0.00015   0.00000  -0.00443  -0.00469   3.12880
   D41        0.00819  -0.00041   0.00000  -0.01127  -0.01149  -0.00330
   D42        0.00187   0.00064   0.00000   0.01702   0.01701   0.01888
   D43       -3.12343   0.00039   0.00000   0.01018   0.01021  -3.11322
   D44        0.00140  -0.00022   0.00000  -0.00481  -0.00488  -0.00348
   D45       -3.13608  -0.00003   0.00000  -0.00026  -0.00027  -3.13635
   D46        3.11258   0.00015   0.00000   0.00396   0.00381   3.11639
   D47       -0.02489   0.00034   0.00000   0.00851   0.00841  -0.01648
   D48       -0.00043   0.00033   0.00000   0.00836   0.00837   0.00793
   D49       -3.14109   0.00012   0.00000   0.00294   0.00297  -3.13812
   D50        3.13704   0.00013   0.00000   0.00378   0.00372   3.14076
   D51       -0.00361  -0.00007   0.00000  -0.00163  -0.00168  -0.00529
   D52        0.00022   0.00005   0.00000   0.00087   0.00092   0.00114
   D53        3.14003  -0.00037   0.00000  -0.00957  -0.00960   3.13042
   D54        3.14087   0.00025   0.00000   0.00629   0.00632  -3.13600
   D55       -0.00251  -0.00017   0.00000  -0.00416  -0.00420  -0.00671
   D56       -0.00096  -0.00054   0.00000  -0.01378  -0.01379  -0.01475
   D57        3.12413  -0.00026   0.00000  -0.00673  -0.00683   3.11730
   D58       -3.14077  -0.00012   0.00000  -0.00334  -0.00333   3.13908
   D59       -0.01568   0.00016   0.00000   0.00371   0.00363  -0.01206
   D60        0.00127  -0.00042   0.00000  -0.01018  -0.01025  -0.00898
   D61       -3.13726  -0.00002   0.00000  -0.00038  -0.00034  -3.13760
   D62        3.11665  -0.00018   0.00000  -0.00436  -0.00455   3.11211
   D63       -0.02188   0.00022   0.00000   0.00545   0.00537  -0.01651
   D64       -0.00091   0.00041   0.00000   0.01025   0.01030   0.00939
   D65        3.14107   0.00029   0.00000   0.00711   0.00719  -3.13493
   D66        3.13762   0.00001   0.00000   0.00045   0.00042   3.13805
   D67       -0.00358  -0.00011   0.00000  -0.00269  -0.00269  -0.00627
         Item               Value     Threshold  Converged?
 Maximum Force            0.034283     0.000450     NO 
 RMS     Force            0.006384     0.000300     NO 
 Maximum Displacement     0.217337     0.001800     NO 
 RMS     Displacement     0.067638     0.001200     NO 
 Predicted change in Energy=-8.906141D-03
 GradGradGradGradGradGradGradGradGradGradGradGradGradGradGradGradGradGrad

                          Input orientation:                          
 ---------------------------------------------------------------------
 Center     Atomic      Atomic             Coordinates (Angstroms)
 Number     Number       Type             X           Y           Z
 ---------------------------------------------------------------------
      1          6           0       -3.842200    2.636606   -0.574247
      2          8           0       -2.541577    2.109745   -0.684544
      3          6           0       -2.317374    0.835681   -0.256316
      4          6           0       -1.009716    0.381059   -0.419241
      5          6           0       -0.641985   -0.908951   -0.019360
      6          7           0        0.674172   -1.365244   -0.204571
      7          6           0        0.888808   -2.776879   -0.465427
      8          6           0        1.791467   -0.533867    0.012342
      9          6           0        2.969935   -0.709104   -0.729928
     10          6           0        4.083040    0.096845   -0.496678
     11          6           0        4.047260    1.095638    0.475241
     12          6           0        2.880966    1.272809    1.221519
     13          6           0        1.768683    0.465096    1.002145
     14          6           0       -1.619987   -1.751821    0.536151
     15          6           0       -2.925573   -1.292686    0.681681
     16          6           0       -3.292250   -0.004027    0.297934
     17          1           0       -4.180346    2.692247    0.474093
     18          1           0       -4.574638    2.062544   -1.166241
     19          1           0       -3.790438    3.655385   -0.977590
     20          1           0       -0.278564    1.050013   -0.876057
     21          1           0        1.136880   -3.343634    0.449302
     22          1           0        1.701636   -2.918501   -1.188648
     23          1           0       -0.018816   -3.202626   -0.909870
     24          1           0        3.013803   -1.468502   -1.512036
     25          1           0        4.987917   -0.053968   -1.089600
     26          1           0        4.920691    1.727116    0.652579
     27          1           0        2.839653    2.043818    1.994086
     28          1           0        0.871035    0.598587    1.607491
     29          1           0       -1.354008   -2.755898    0.870296
     30          1           0       -3.679057   -1.951678    1.117449
     31          1           0       -4.321778    0.327716    0.430675
 ---------------------------------------------------------------------
                    Distance matrix (angstroms):
                    1          2          3          4          5
     1  C    0.000000
     2  O    1.407610   0.000000
     3  C    2.381072   1.362676   0.000000
     4  C    3.624152   2.324938   1.393985   0.000000
     5  C    4.808352   3.628146   2.430394   1.399735   0.000000
     6  N    6.045583   4.758882   3.714309   2.435392   1.405267
     7  C    7.190278   5.974500   4.834659   3.684983   2.455903
     8  C    6.491085   5.123437   4.339403   2.978252   2.462394
     9  C    7.590994   6.190697   5.528680   4.137947   3.686572
    10  C    8.322609   6.926227   6.447399   5.101268   4.854413
    11  C    8.106762   6.766557   6.411811   5.184952   5.123673
    12  C    7.091240   5.808401   5.421975   4.315637   4.325626
    13  C    6.219523   4.912039   4.291494   3.122003   2.956822
    14  C    5.042768   4.153447   2.794552   2.415447   1.405529
    15  C    4.225742   3.686537   2.404098   2.771996   2.419397
    16  C    2.834799   2.448837   1.400959   2.423343   2.818415
    17  H    1.102931   2.089812   2.729651   4.023994   5.072683
    18  H    1.102937   2.089879   2.725509   4.011741   5.060719
    19  H    1.096939   2.008615   3.262037   4.331902   5.627088
    20  H    3.912527   2.506180   2.141674   1.091221   2.168766
    21  H    7.848704   6.675028   5.467764   4.385839   3.051506
    22  H    7.872154   6.598654   5.578133   4.339414   3.301225
    23  H    6.987670   5.885268   4.692380   3.750386   2.538167
    24  H    8.045876   6.659642   5.942015   4.561116   3.988228
    25  H    9.245308   7.844680   7.406289   6.050638   5.794153
    26  H    8.894972   7.590767   7.349172   6.174982   6.192231
    27  H    7.182958   6.011410   5.754896   4.838033   4.989450
    28  H    5.579255   4.379834   3.700803   2.773480   2.684874
    29  H    6.112029   5.244266   3.885456   3.409097   2.170179
    30  H    4.892934   4.586524   3.392755   3.863737   3.406379
    31  H    2.563365   2.754716   2.178904   3.419789   3.908037
                    6          7          8          9         10
     6  N    0.000000
     7  C    1.451492   0.000000
     8  C    1.409464   2.464581   0.000000
     9  C    2.444800   2.945631   1.403730   0.000000
    10  C    3.720674   4.296787   2.430680   1.393902   0.000000
    11  C    4.230343   5.084984   2.821021   2.422840   1.394093
    12  C    3.723304   4.818138   2.431706   2.782811   2.404179
    13  C    2.450359   3.665835   1.406469   2.412846   2.781785
    14  C    2.441573   2.889283   3.660029   4.874177   6.083488
    15  C    3.707947   4.250669   4.824343   6.090174   7.241545
    16  C    4.223496   5.074709   5.119226   6.385028   7.418658
    17  H    6.363188   7.516007   6.803204   8.009080   8.715622
    18  H    6.342282   7.332148   6.975508   8.049409   8.903240
    19  H    6.762914   7.970676   7.048934   8.050636   8.653678
    20  H    2.681803   4.021999   2.753717   3.697106   4.480630
    21  H    2.134403   1.104300   2.917912   3.419272   4.627271
    22  H    2.106347   1.097176   2.671502   2.588520   3.904128
    23  H    2.086541   1.096619   3.354083   3.896494   5.280384
    24  H    2.682163   2.706075   2.165958   1.091010   2.150472
    25  H    4.594683   4.960496   3.414947   2.151933   1.092292
    26  H    5.322624   6.147519   3.913309   3.413495   2.163386
    27  H    4.598380   5.752749   3.416206   3.875023   3.397149
    28  H    2.679358   3.961196   2.161978   3.402788   3.872499
    29  H    2.683798   2.610521   3.945570   5.044459   6.290330
    30  H    4.587182   4.904268   5.758306   7.011839   8.188529
    31  H    5.313113   6.131208   6.187819   7.455942   8.458975
                   11         12         13         14         15
    11  C    0.000000
    12  C    1.395909   0.000000
    13  C    2.422215   1.392013   0.000000
    14  C    6.342667   5.465958   4.076145   0.000000
    15  C    7.373405   6.370956   5.022801   1.391596   0.000000
    16  C    7.423550   6.371178   5.131182   2.430637   1.393684
    17  H    8.381090   7.241242   6.374165   5.129233   4.182969
    18  H    8.829864   7.868362   6.891405   5.116394   4.170348
    19  H    8.372129   7.417573   6.708287   6.019979   5.290045
[...]
    17  H    0.000000   0.000003   0.000000   0.000000  -0.000000  -0.000000
    18  H    0.000000  -0.000005  -0.000000  -0.000000   0.000000   0.000000
    19  H   -0.000000   0.000002   0.000000   0.000000  -0.000000   0.000000
    20  H    0.000086   0.000880  -0.000210   0.000326   0.000026  -0.000066
    21  H    0.405762  -0.005213   0.002891   0.000274   0.000032  -0.000729
    22  H    0.407351  -0.008465  -0.004443  -0.000270  -0.000110   0.000414
    23  H    0.415473   0.014112  -0.000565  -0.000350  -0.000023   0.000148
    24  H   -0.001939  -0.050709   0.426315  -0.035188   0.008027  -0.002520
    25  H    0.000029   0.014320  -0.055156   0.441256  -0.057365   0.011309
    26  H   -0.000002  -0.003497   0.010885  -0.055365   0.442758  -0.055484
    27  H    0.000006   0.012937  -0.003461   0.010594  -0.057260   0.441277
    28  H    0.000134  -0.041857   0.008769  -0.002194   0.008151  -0.042082
    29  H    0.004754  -0.000876  -0.000078   0.000010  -0.000001  -0.000002
    30  H   -0.000015   0.000032  -0.000000   0.000000   0.000000  -0.000000
    31  H    0.000007  -0.000006   0.000000  -0.000000   0.000000  -0.000000
              13         14         15         16         17         18
     1  C   -0.000001   0.002340  -0.006335   0.018687   0.414141   0.415261
     2  O    0.000182  -0.001096   0.009544  -0.093670  -0.041948  -0.042332
     3  C    0.001911  -0.103211   0.090263   0.216247  -0.016923  -0.016958
     4  C   -0.003064   0.014527  -0.071364   0.019391  -0.000517  -0.000370
     5  C    0.017912   0.341958   0.032487  -0.122561  -0.000144  -0.000380
     6  N   -0.050444  -0.092039   0.003471  -0.000362  -0.000001   0.000001
     7  C   -0.002604  -0.009605  -0.003468   0.001214   0.000000   0.000000
     8  C    0.426887   0.003835   0.000052  -0.000453   0.000003  -0.000005
     9  C    0.015384   0.000224   0.000015  -0.000009   0.000000  -0.000000
    10  C   -0.055922   0.000144  -0.000009   0.000003   0.000000  -0.000000
    11  C    0.028301   0.000058  -0.000003   0.000002  -0.000000   0.000000
    12  C    0.416903  -0.000815   0.000068  -0.000009  -0.000000   0.000000
    13  C    5.095091   0.002197  -0.000074   0.000509  -0.000004   0.000004
    14  C    0.002197   5.256547   0.423089   0.082797   0.000151   0.000253
    15  C   -0.000074   0.423089   4.948334   0.312982  -0.000856  -0.001198
    16  C    0.000509   0.082797   0.312982   5.450769   0.012832   0.013631
    17  H   -0.000004   0.000151  -0.000856   0.012832   0.591052  -0.056952
    18  H    0.000004   0.000253  -0.001198   0.013631  -0.056952   0.588166
    19  H   -0.000001  -0.000079   0.000376  -0.002395  -0.020602  -0.020013
    20  H   -0.002855   0.011778  -0.006675   0.020275   0.000141   0.000182
    21  H    0.002939   0.008404  -0.000348   0.000023  -0.000000   0.000000
    22  H    0.000338   0.000619   0.000100  -0.000016   0.000000  -0.000000
    23  H   -0.001224  -0.003345   0.001234  -0.000270   0.000000  -0.000000
    24  H    0.008632  -0.000040   0.000002  -0.000003  -0.000000   0.000000
    25  H   -0.004269  -0.000002   0.000000   0.000000   0.000000  -0.000000
    26  H    0.011441   0.000000  -0.000000   0.000000   0.000000  -0.000000
    27  H   -0.054411   0.000005   0.000000  -0.000001  -0.000000  -0.000000
    28  H    0.431749   0.000565   0.000078  -0.000067  -0.000001   0.000000
    29  H    0.000188   0.433130  -0.023426   0.008643  -0.000000   0.000002
    30  H   -0.000003  -0.047165   0.423680  -0.045483  -0.000024  -0.000024
    31  H    0.000005   0.007953  -0.023759   0.433740   0.000205   0.000100
              19         20         21         22         23         24
     1  C    0.400582  -0.000013   0.000000   0.000000  -0.000000   0.000000
     2  O   -0.031056   0.012044   0.000000  -0.000000   0.000000  -0.000000
     3  C    0.006831  -0.051600   0.000041   0.000070  -0.000146   0.000036
     4  C   -0.000091   0.432392  -0.001222  -0.000494   0.001192  -0.000134
     5  C    0.000119  -0.058619  -0.006641   0.007704  -0.005699   0.000624
     6  N   -0.000000  -0.005510  -0.049862  -0.026279  -0.047635   0.005404
     7  C   -0.000000   0.000086   0.405762   0.407351   0.415473  -0.001939
     8  C    0.000002   0.000880  -0.005213  -0.008465   0.014112  -0.050709
     9  C    0.000000  -0.000210   0.002891  -0.004443  -0.000565   0.426315
    10  C    0.000000   0.000326   0.000274  -0.000270  -0.000350  -0.035188
    11  C   -0.000000   0.000026   0.000032  -0.000110  -0.000023   0.008027
    12  C    0.000000  -0.000066  -0.000729   0.000414   0.000148  -0.002520
    13  C   -0.000001  -0.002855   0.002939   0.000338  -0.001224   0.008632
    14  C   -0.000079   0.011778   0.008404   0.000619  -0.003345  -0.000040
    15  C    0.000376  -0.006675  -0.000348   0.000100   0.001234   0.000002
    16  C   -0.002395   0.020275   0.000023  -0.000016  -0.000270  -0.000003
    17  H   -0.020602   0.000141  -0.000000   0.000000   0.000000  -0.000000
    18  H   -0.020013   0.000182   0.000000  -0.000000  -0.000000   0.000000
    19  H    0.528809  -0.000267   0.000000  -0.000000   0.000000   0.000000
    20  H   -0.000267   0.503400  -0.000015  -0.000020   0.000020  -0.000076
    21  H    0.000000  -0.000015   0.587566  -0.024243  -0.049123   0.000522
    22  H   -0.000000  -0.000020  -0.024243   0.515268  -0.013955  -0.002754
    23  H    0.000000   0.000020  -0.049123  -0.013955   0.558973  -0.000687
    24  H    0.000000  -0.000076   0.000522  -0.002754  -0.000687   0.512063
    25  H   -0.000000  -0.000001  -0.000008   0.000031   0.000008  -0.007099
    26  H   -0.000000   0.000004  -0.000000  -0.000001   0.000000  -0.000093
    27  H    0.000000  -0.000009   0.000003   0.000002  -0.000001   0.000032
    28  H   -0.000000  -0.000894   0.000294  -0.000157  -0.000010  -0.000158
    29  H   -0.000000  -0.000089   0.002142   0.000484  -0.006630   0.000001
    30  H    0.000002   0.000026  -0.000001  -0.000001  -0.000013   0.000000
    31  H   -0.000244   0.000016  -0.000000  -0.000000   0.000000   0.000000
              25         26         27         28         29         30
     1  C   -0.000000   0.000000   0.000000   0.000002   0.000003  -0.000159
     2  O    0.000000   0.000000  -0.000000   0.000005   0.000011  -0.000081
     3  C    0.000001  -0.000001  -0.000007   0.000047  -0.000908   0.006451
     4  C    0.000008  -0.000002  -0.000088  -0.000582   0.003345  -0.000087
     5  C   -0.000021   0.000006   0.000079   0.000462  -0.061424   0.010416
     6  N   -0.000247   0.000010  -0.000231  -0.002338  -0.004197  -0.000125
     7  C    0.000029  -0.000002   0.000006   0.000134   0.004754  -0.000015
     8  C    0.014320  -0.003497   0.012937  -0.041857  -0.000876   0.000032
     9  C   -0.055156   0.010885  -0.003461   0.008769  -0.000078  -0.000000
    10  C    0.441256  -0.055365   0.010594  -0.002194   0.000010   0.000000
    11  C   -0.057365   0.442758  -0.057260   0.008151  -0.000001   0.000000
    12  C    0.011309  -0.055484   0.441277  -0.042082  -0.000002  -0.000000
    13  C   -0.004269   0.011441  -0.054411   0.431749   0.000188  -0.000003
    14  C   -0.000002   0.000000   0.000005   0.000565   0.433130  -0.047165
    15  C    0.000000  -0.000000   0.000000   0.000078  -0.023426   0.423680
    16  C    0.000000   0.000000  -0.000001  -0.000067   0.008643  -0.045483
    17  H    0.000000   0.000000  -0.000000  -0.000001  -0.000000  -0.000024
    18  H   -0.000000  -0.000000  -0.000000   0.000000   0.000002  -0.000024
    19  H   -0.000000  -0.000000   0.000000  -0.000000  -0.000000   0.000002
    20  H   -0.000001   0.000004  -0.000009  -0.000894  -0.000089   0.000026
    21  H   -0.000008  -0.000000   0.000003   0.000294   0.002142  -0.000001
    22  H    0.000031  -0.000001   0.000002  -0.000157   0.000484  -0.000001
    23  H    0.000008   0.000000  -0.000001  -0.000010  -0.006630  -0.000013
    24  H   -0.007099  -0.000093   0.000032  -0.000158   0.000001   0.000000
    25  H    0.544169  -0.006850  -0.000144   0.000019  -0.000000  -0.000000
    26  H   -0.006850   0.542433  -0.006802  -0.000082   0.000000   0.000000
    27  H   -0.000144  -0.006802   0.542196  -0.006619   0.000000   0.000000
    28  H    0.000019  -0.000082  -0.006619   0.501558  -0.000011  -0.000001
    29  H   -0.000000   0.000000   0.000000  -0.000011   0.525779  -0.006517
    30  H   -0.000000   0.000000   0.000000  -0.000001  -0.006517   0.550712
    31  H    0.000000   0.000000  -0.000000   0.000001  -0.000193  -0.004919
              31
     1  C    0.008668
     2  O   -0.005737
     3  C   -0.065547
     4  C    0.004458
     5  C   -0.001259
     6  N    0.000016
     7  C    0.000007
     8  C   -0.000006
     9  C    0.000000
    10  C   -0.000000
    11  C    0.000000
    12  C   -0.000000
    13  C    0.000005
    14  C    0.007953
    15  C   -0.023759
    16  C    0.433740
    17  H    0.000205
    18  H    0.000100
    19  H   -0.000244
    20  H    0.000016
    21  H   -0.000000
    22  H   -0.000000
    23  H    0.000000
    24  H    0.000000
    25  H    0.000000
    26  H    0.000000
    27  H   -0.000000
    28  H    0.000001
    29  H   -0.000193
    30  H   -0.004919
    31  H    0.519629
 Mulliken charges:
               1
     1  C   -0.210428
     2  O   -0.282846
     3  C    0.379078
     4  C   -0.363610
     5  C    0.286392
     6  N   -0.051314
     7  C   -0.315289
     8  C    0.198274
     9  C   -0.272069
    10  C   -0.064130
    11  C   -0.143265
    12  C   -0.058052
    13  C   -0.285697
    14  C   -0.333178
    15  C   -0.108260
    16  C   -0.326446
    17  H    0.119447
    18  H    0.120630
    19  H    0.138029
    20  H    0.145324
    21  H    0.126512
    22  H    0.148827
    23  H    0.138517
    24  H    0.139743
    25  H    0.120014
    26  H    0.120642
    27  H    0.121904
    28  H    0.145220
    29  H    0.125862
    30  H    0.113301
    31  H    0.126868
 Sum of Mulliken charges =  -0.00000
 Mulliken charges with hydrogens summed into heavy atoms:
               1
     1  C    0.167679
     2  O   -0.282846
     3  C    0.379078
     4  C   -0.218285
     5  C    0.286392
     6  N   -0.051314
     7  C    0.098566
     8  C    0.198274
     9  C   -0.132326
    10  C    0.055884
    11  C   -0.022623
    12  C    0.063852
    13  C   -0.140477
    14  C   -0.207316
    15  C    0.005042
    16  C   -0.199578
 Electronic spatial extent (au):  <R**2>=           4231.0602
 Charge=              0.0000 electrons
 Dipole moment (field-independent basis, Debye):
    X=             -0.0805    Y=              0.3102    Z=              0.1368  Tot=              0.3484
 Quadrupole moment (field-independent basis, Debye-Ang):
   XX=            -81.7136   YY=            -87.7170   ZZ=            -95.1596
   XY=             -2.3620   XZ=              2.7177   YZ=             -1.6505
 Traceless Quadrupole moment (field-independent basis, Debye-Ang):
   XX=              6.4831   YY=              0.4797   ZZ=             -6.9628
   XY=             -2.3620   XZ=              2.7177   YZ=             -1.6505
 Octapole moment (field-independent basis, Debye-Ang**2):
  XXX=             54.2176  YYY=              3.2827  ZZZ=             -2.5179  XYY=              5.8795
  XXY=            -35.8213  XXZ=            -13.8517  XZZ=             -8.4032  YZZ=             -7.0855
  YYZ=              4.5643  XYZ=              9.5916
 Hexadecapole moment (field-independent basis, Debye-Ang**3):
 XXXX=          -3726.7525 YYYY=          -1363.1101 ZZZZ=           -336.7358 XXXY=            -41.7235
 XXXZ=             64.0365 YYYX=            -53.6351 YYYZ=              1.9943 ZZZX=              1.4057
 ZZZY=            -13.6579 XXYY=           -799.1416 XXZZ=           -725.3196 YYZZ=           -294.8241
 XXYZ=              4.2373 YYXZ=             -9.9439 ZZXY=            -11.8015
 N-N= 1.030590373022D+03 E-N=-3.624677360552D+03  KE= 6.688020797777D+02
 Breneman (CHELPG) radii used.
 Read replacement radii for each type of atom:
 Atom Element Radius
    1     6    1.50
    2     8    1.70
    3     6    1.50
    4     6    1.50
    5     6    1.50
    6     7    1.70
    7     6    1.50
    8     6    1.50
    9     6    1.50
   10     6    1.50
   11     6    1.50
   12     6    1.50
   13     6    1.50
   14     6    1.50
   15     6    1.50
   16     6    1.50
   17     1    1.45
   18     1    1.45
   19     1    1.45
   20     1    1.45
   21     1    1.45
   22     1    1.45
   23     1    1.45
   24     1    1.45
   25     1    1.45
   26     1    1.45
   27     1    1.45
   28     1    1.45
   29     1    1.45
   30     1    1.45
   31     1    1.45
 Generate Potential Derived Charges using the Breneman model, NDens= 1.
 Grid spacing= 0.300 Box extension= 2.800
 NStep X,Y,Z=   51     42     33   Total possible points=       70686
 Number of Points to Fit=   18964

 **********************************************************************

            Electrostatic Properties Using The SCF Density.

 **********************************************************************

       Atomic Center    1 is at   4.024175 -2.233549 -0.300858
       Atomic Center    2 is at   2.676404 -1.860714 -0.356443
       Atomic Center    3 is at   2.342250 -0.569961 -0.130592
       Atomic Center    4 is at   0.980564 -0.277315 -0.226535
       Atomic Center    5 is at   0.502147  1.024177 -0.012362
       Atomic Center    6 is at  -0.854750  1.311937 -0.130937
       Atomic Center    7 is at  -1.301140  2.688210 -0.124553
       Atomic Center    8 is at  -1.836098  0.293649 -0.021748
       Atomic Center    9 is at  -2.804149  0.142163 -1.020819
       Atomic Center   10 is at  -3.796322 -0.829198 -0.901720
       Atomic Center   11 is at  -3.821080 -1.675850  0.205088
       Atomic Center   12 is at  -2.851090 -1.537112  1.198404
       Atomic Center   13 is at  -1.871486 -0.553929  1.093225
       Atomic Center   14 is at   1.435779  2.038873  0.288129
       Atomic Center   15 is at   2.788020  1.731220  0.371159
       Atomic Center   16 is at   3.267192  0.437774  0.171368
       Atomic Center   17 is at   4.459311 -2.059588  0.699158
       Atomic Center   18 is at   4.631870 -1.695434 -1.049635
       Atomic Center   19 is at   4.063304 -3.307751 -0.520375
       Atomic Center   20 is at   0.304798 -1.092667 -0.483249
       Atomic Center   21 is at  -1.164273  3.171589  0.861040
       Atomic Center   22 is at  -2.370723  2.721068 -0.364005
       Atomic Center   23 is at  -0.762470  3.285208 -0.877597
       Atomic Center   24 is at  -2.767251  0.789391 -1.899941
       Atomic Center   25 is at  -4.545962 -0.934325 -1.689161
       Atomic Center   26 is at  -4.592648 -2.443386  0.293457
       Atomic Center   27 is at  -2.864247 -2.193252  2.071566
       Atomic Center   28 is at  -1.115859 -0.438657  1.872915
       Atomic Center   29 is at   1.112252  3.063136  0.466416
       Atomic Center   30 is at   3.497238  2.528071  0.607940
       Atomic Center   31 is at   4.334117  0.233836  0.250435
   18964 points will be used for fitting atomic charges
 Fitting point charges to electrostatic potential
 Charges from ESP fit, RMS=   0.00374 RRMS=   0.33381:
 ESP charges:
               1
     1  C    0.106368
     2  O   -0.352402
     3  C    0.473696
     4  C   -0.448582
     5  C    0.461493
     6  N   -0.428115
     7  C    0.042970
     8  C    0.370976
     9  C   -0.222000
    10  C   -0.077616
    11  C   -0.131731
    12  C   -0.098072
    13  C   -0.142112
    14  C   -0.368020
    15  C    0.002301
    16  C   -0.379948
    17  H    0.016470
    18  H    0.014329
    19  H    0.056364
    20  H    0.121311
    21  H    0.021513
    22  H    0.026838
    23  H    0.039619
    24  H    0.128991
    25  H    0.096162
    26  H    0.100932
    27  H    0.102603
    28  H    0.084104
    29  H    0.142980
    30  H    0.091618
    31  H    0.146962
 Sum of ESP charges =  -0.00000
 ESP charges with hydrogens summed into heavy atoms:
               1
     1  C    0.193531
     2  O   -0.352402
     3  C    0.473696
     4  C   -0.327270
     5  C    0.461493
     6  N   -0.428115
     7  C    0.130941
     8  C    0.370976
     9  C   -0.093009
    10  C    0.018546
    11  C   -0.030800
    12  C    0.004530
    13  C   -0.058008
    14  C   -0.225040
    15  C    0.093919
    16  C   -0.232986
 Charge=  -0.00000 Dipole=    -0.1160     0.3839     0.1469 Tot=     0.4271
 -----------------------------------------------------------------

              Electrostatic Properties (Atomic Units)

 -----------------------------------------------------------------
    Center     Electric         -------- Electric Field --------
               Potential          X             Y             Z
 -----------------------------------------------------------------
    1 Atom    -14.718888
    2 Atom    -22.332564
    3 Atom    -14.715323
    4 Atom    -14.789163
    5 Atom    -14.728483
    6 Atom    -18.361657
    7 Atom    -14.737069
    8 Atom    -14.727978
    9 Atom    -14.768618
   10 Atom    -14.765947
   11 Atom    -14.769193
   12 Atom    -14.766752
   13 Atom    -14.770107
   14 Atom    -14.785728
   15 Atom    -14.773877
   16 Atom    -14.785683
   17 Atom     -1.111669
   18 Atom     -1.111645
   19 Atom     -1.109483
   20 Atom     -1.115038
   21 Atom     -1.116272
   22 Atom     -1.105341
   23 Atom     -1.112875
   24 Atom     -1.101944
   25 Atom     -1.105000
   26 Atom     -1.106750
   27 Atom     -1.106219
   28 Atom     -1.105432
   29 Atom     -1.114420
   30 Atom     -1.114648
   31 Atom     -1.110116
 -----------------------------------------------------------------
 Unable to Open any file for archive entry.
 1\1\GINC-NOTCH131\SP\RwB97XD\def2TZVP\C14H15N1O1\U1366379\17-Feb-2026\
 0\\#N Guess=Read Geom=Check Integral(Ultrafine) Density Pop=(ChelpG,Re
 adRadii) NMR wB97XD def2TZVP\\prod_5g_10\\0,1\C,0,-3.7122414208,2.7017
 33109,-0.4941723592\O,0,-2.4222984746,2.1589509753,-0.4981595971\C,0,-
 2.2618135467,0.8450991853,-0.2211208184\C,0,-0.9468051487,0.378596043,
 -0.2676035602\C,0,-0.6443712902,-0.9646449095,0.0023459972\N,0,0.66708
 04999,-1.4265054136,-0.0670457952\C,0,0.9333801765,-2.8472248355,-0.00
 32169096\C,0,1.7676331115,-0.5378964851,0.03799957\C,0,2.77175947,-0.5
 463946552,-0.9366130477\C,0,3.8767918644,0.2946765347,-0.8198365798\C,
 0,3.982038516,1.1703019306,0.2593572884\C,0,2.9777637803,1.1914770715,
 1.2277529319\C,0,1.883333221,0.3375876819,1.1256328349\C,0,-1.70738832
 64,-1.8411256225,0.3078746954\C,0,-3.0107896433,-1.3614070336,0.341250
 365\C,0,-3.3153608794,-0.0255322529,0.0859066879\H,0,-4.1909025015,2.6
 202842746,0.4977386191\H,0,-4.3649085606,2.2187887064,-1.2427170343\H,
 0,-3.6080892991,3.7636733946,-0.749251613\H,0,-0.1660558323,1.09179887
 28,-0.5305345808\H,0,0.7112071264,-3.2737934999,0.9930049113\H,0,1.995
 6092093,-3.0242274857,-0.2100141057\H,0,0.3417201303,-3.3974584543,-0.
 7521026849\H,0,2.6743090965,-1.2146670501,-1.7951213632\H,0,4.65315353
 77,0.2755296562,-1.5879329002\H,0,4.8430330819,1.8362598758,0.34553219
 39\H,0,3.0529656964,1.8713877906,2.0793231456\H,0,1.0999310535,0.34716
 30944,1.8861361574\H,0,-1.5221491913,-2.8911662197,0.5284942744\H,0,-3
 .8218403215,-2.0527332553,0.5826893506\H,0,-4.3490551352,0.3149889763,
 0.1270339264\\Version=ES64L-G16RevC.01\State=1-A\HF=-672.4938555\RMSD=
 1.062e-09\Dipole=0.0144487,-0.1230585,0.0586189\Quadrupole=4.3873096,0
 .9691596,-5.3564693,-2.3572998,-1.5246318,1.1958865\PG=C01 [X(C14H15N1
 O1)]\\@
 The archive entry for this job was punched.


 TOWERING GENIUS DISDAINS A BEATEN PATH.  IT SEEKS 
 REGIONS HITHERTO UNEXPLORED.

                                -- ABRAHAM LINCOLN
 Job cpu time:       0 days  1 hours 36 minutes 41.3 seconds.
 Elapsed time:       0 days  0 hours 12 minutes 29.8 seconds.
 File lengths (MBytes):  RWF=    209 Int=      0 D2E=      0 Chk=     32 Scr=      2
 Normal termination of Gaussian 16 at Tue Feb 17 16:56:36 2026.
