 Entering Gaussian System, Link 0=g16
 Input=prod_5f_8.com
 Output=prod_5f_8.log
 Initial command:
 /uufs/chpc.utah.edu/sys/installdir/gaussian16/C01/AVX/g16/l1.exe "/scratch/general/vast/u1366379/GAUSSSCRDIR/11028658-notchpeak.peaks/Gau-492457.inp" -scrdir="/scratch/general/vast/u1366379/GAUSSSCRDIR/11028658-notchpeak.peaks/"
 Entering Link 1 = /uufs/chpc.utah.edu/sys/installdir/gaussian16/C01/AVX/g16/l1.exe PID=    492464.
  
 Copyright (c) 1988-2019, Gaussian, Inc.  All Rights Reserved.
  
 This is part of the Gaussian(R) 16 program.  It is based on
 the Gaussian(R) 09 system (copyright 2009, Gaussian, Inc.),
 the Gaussian(R) 03 system (copyright 2003, Gaussian, Inc.),
 the Gaussian(R) 98 system (copyright 1998, Gaussian, Inc.),
 the Gaussian(R) 94 system (copyright 1995, Gaussian, Inc.),
 the Gaussian 92(TM) system (copyright 1992, Gaussian, Inc.),
 the Gaussian 90(TM) system (copyright 1990, Gaussian, Inc.),
 the Gaussian 88(TM) system (copyright 1988, Gaussian, Inc.),
 the Gaussian 86(TM) system (copyright 1986, Carnegie Mellon
 University), and the Gaussian 82(TM) system (copyright 1983,
 Carnegie Mellon University). Gaussian is a federally registered
 trademark of Gaussian, Inc.
  
 This software contains proprietary and confidential information,
 including trade secrets, belonging to Gaussian, Inc.
  
 This software is provided under written license and may be
 used, copied, transmitted, or stored only in accord with that
 written license.
  
 The following legend is applicable only to US Government
 contracts under FAR:
  
                    RESTRICTED RIGHTS LEGEND
  
 Use, reproduction and disclosure by the US Government is
 subject to restrictions as set forth in subparagraphs (a)
 and (c) of the Commercial Computer Software - Restricted
 Rights clause in FAR 52.227-19.
  
 Gaussian, Inc.
 340 Quinnipiac St., Bldg. 40, Wallingford CT 06492
  
  
 ---------------------------------------------------------------
 Warning -- This program may not be used in any manner that
 competes with the business of Gaussian, Inc. or will provide
 assistance to any competitor of Gaussian, Inc.  The licensee
 of this program is prohibited from giving any competitor of
 Gaussian, Inc. access to this program.  By using this program,
 the user acknowledges that Gaussian, Inc. is engaged in the
 business of creating and licensing software in the field of
 computational chemistry and represents and warrants to the
 licensee that it is not a competitor of Gaussian, Inc. and that
 it will not use this program in any manner prohibited above.
 ---------------------------------------------------------------
  

 Cite this work as:
 Gaussian 16, Revision C.01,
 M. J. Frisch, G. W. Trucks, H. B. Schlegel, G. E. Scuseria, 
 M. A. Robb, J. R. Cheeseman, G. Scalmani, V. Barone, 
 G. A. Petersson, H. Nakatsuji, X. Li, M. Caricato, A. V. Marenich, 
 J. Bloino, B. G. Janesko, R. Gomperts, B. Mennucci, H. P. Hratchian, 
 J. V. Ortiz, A. F. Izmaylov, J. L. Sonnenberg, D. Williams-Young, 
 F. Ding, F. Lipparini, F. Egidi, J. Goings, B. Peng, A. Petrone, 
 T. Henderson, D. Ranasinghe, V. G. Zakrzewski, J. Gao, N. Rega, 
 G. Zheng, W. Liang, M. Hada, M. Ehara, K. Toyota, R. Fukuda, 
 J. Hasegawa, M. Ishida, T. Nakajima, Y. Honda, O. Kitao, H. Nakai, 
 T. Vreven, K. Throssell, J. A. Montgomery, Jr., J. E. Peralta, 
 F. Ogliaro, M. J. Bearpark, J. J. Heyd, E. N. Brothers, K. N. Kudin, 
 V. N. Staroverov, T. A. Keith, R. Kobayashi, J. Normand, 
 K. Raghavachari, A. P. Rendell, J. C. Burant, S. S. Iyengar, 
 J. Tomasi, M. Cossi, J. M. Millam, M. Klene, C. Adamo, R. Cammi, 
 J. W. Ochterski, R. L. Martin, K. Morokuma, O. Farkas, 
 J. B. Foresman, and D. J. Fox, Gaussian, Inc., Wallingford CT, 2019.
 
 ******************************************
 Gaussian 16:  ES64L-G16RevC.01  3-Jul-2019
                17-Feb-2026 
 ******************************************
 %NProcShared=8
 Will use up to    8 processors via shared memory.
 %Mem=8GB
 %chk=prod_5f_8.chk
 ------------------------------------------------------
 #N OPT FREQ=NORAMAN Integral(Ultrafine) wB97XD def2SVP
 ------------------------------------------------------
 1/18=20,19=15,26=4,38=1/1,3;
 2/9=110,12=2,17=6,18=5,40=1/2;
 3/5=43,7=101,11=2,25=1,30=1,71=1,74=-58,75=-5/1,2,3;
 4//1;
 5/5=2,38=5/2;
 6/7=2,8=2,9=2,10=2,28=1/1;
 7//1,2,3,16;
 1/18=20,19=15,26=4/3(2);
 2/9=110/2;
 99//99;
 2/9=110/2;
 3/5=43,7=101,11=2,25=1,30=1,71=1,74=-58,75=-5/1,2,3;
 4/5=5,16=3,69=1/1;
 5/5=2,38=5/2;
 7//1,2,3,16;
 1/18=20,19=15,26=4/3(-5);
 2/9=110/2;
 6/7=2,8=2,9=2,10=2,19=2,28=1/1;
 99/9=1/99;
 ---------
 prod_5f_8
 ---------
 Symbolic Z-matrix:
 Charge =  0 Multiplicity = 1
 Cl                   -4.2476   -0.2499    1.15187 
 C                    -2.81277   0.04487   0.2323 
 C                    -1.5874    0.08003   0.86855 
 C                    -0.41691   0.30918   0.14937 
 N                     0.86055   0.35847   0.79068 
 C                     0.97005   0.95032   2.12419 
 C                     2.05723  -0.02275   0.10832 
 C                     2.05238  -1.10848  -0.76685 
 C                     3.19883  -1.48784  -1.42711 
 C                     4.37484  -0.79161  -1.2282 
 C                     4.39873   0.28643  -0.36504 
 C                     3.254     0.66806   0.29798 
 C                    -0.5204    0.50635  -1.22991 
 C                    -1.7443    0.47275  -1.86394 
 C                    -2.89327   0.24212  -1.13693 
 H                    -1.55184  -0.10328   1.92578 
 H                     0.18535   0.58298   2.78033 
 H                     0.89159   2.03358   2.05604 
 H                     1.92527   0.69239   2.57711 
 H                     1.13721  -1.65666  -0.90741 
 H                     3.17936  -2.33079  -2.09837 
 H                     5.27221  -1.08886  -1.74565 
 H                     5.31556   0.8321   -0.21253 
 H                     3.26978   1.52213   0.95181 
 H                     0.37455   0.70303  -1.79342 
 H                    -1.80403   0.62924  -2.92844 
 H                    -3.85726   0.21217  -1.61543 
 

 GradGradGradGradGradGradGradGradGradGradGradGradGradGradGradGradGradGrad
 Berny optimization.
 Initialization pass.
                           ----------------------------
                           !    Initial Parameters    !
                           ! (Angstroms and Degrees)  !
 --------------------------                            --------------------------
 ! Name  Definition              Value          Derivative Info.                !
 --------------------------------------------------------------------------------
 ! R1    R(1,2)                  1.7295         estimate D2E/DX2                !
 ! R2    R(2,3)                  1.3812         estimate D2E/DX2                !
 ! R3    R(2,15)                 1.3857         estimate D2E/DX2                !
 ! R4    R(3,4)                  1.3928         estimate D2E/DX2                !
 ! R5    R(3,16)                 1.0736         estimate D2E/DX2                !
 ! R6    R(4,5)                  1.4302         estimate D2E/DX2                !
 ! R7    R(4,13)                 1.3971         estimate D2E/DX2                !
 ! R8    R(5,6)                  1.4631         estimate D2E/DX2                !
 ! R9    R(5,7)                  1.4293         estimate D2E/DX2                !
 ! R10   R(6,17)                 1.0868         estimate D2E/DX2                !
 ! R11   R(6,18)                 1.0882         estimate D2E/DX2                !
 ! R12   R(6,19)                 1.0882         estimate D2E/DX2                !
 ! R13   R(7,8)                  1.3945         estimate D2E/DX2                !
 ! R14   R(7,12)                 1.3948         estimate D2E/DX2                !
 ! R15   R(8,9)                  1.3763         estimate D2E/DX2                !
 ! R16   R(8,20)                 1.076          estimate D2E/DX2                !
 ! R17   R(9,10)                 1.3811         estimate D2E/DX2                !
 ! R18   R(9,21)                 1.0777         estimate D2E/DX2                !
 ! R19   R(10,11)                1.3812         estimate D2E/DX2                !
 ! R20   R(10,22)                1.0777         estimate D2E/DX2                !
 ! R21   R(11,12)                1.3768         estimate D2E/DX2                !
 ! R22   R(11,23)                1.0778         estimate D2E/DX2                !
 ! R23   R(12,24)                1.0757         estimate D2E/DX2                !
 ! R24   R(13,14)                1.3788         estimate D2E/DX2                !
 ! R25   R(13,25)                1.0757         estimate D2E/DX2                !
 ! R26   R(14,15)                1.3791         estimate D2E/DX2                !
 ! R27   R(14,26)                1.0776         estimate D2E/DX2                !
 ! R28   R(15,27)                1.0766         estimate D2E/DX2                !
 ! A1    A(1,2,3)              119.6991         estimate D2E/DX2                !
 ! A2    A(1,2,15)             120.095          estimate D2E/DX2                !
 ! A3    A(3,2,15)             120.2057         estimate D2E/DX2                !
 ! A4    A(2,3,4)              120.7927         estimate D2E/DX2                !
 ! A5    A(2,3,16)             118.5995         estimate D2E/DX2                !
 ! A6    A(4,3,16)             120.581          estimate D2E/DX2                !
 ! A7    A(3,4,5)              121.6526         estimate D2E/DX2                !
 ! A8    A(3,4,13)             118.0822         estimate D2E/DX2                !
 ! A9    A(5,4,13)             120.262          estimate D2E/DX2                !
 ! A10   A(4,5,6)              119.3063         estimate D2E/DX2                !
 ! A11   A(4,5,7)              121.6373         estimate D2E/DX2                !
 ! A12   A(6,5,7)              118.7089         estimate D2E/DX2                !
 ! A13   A(5,6,17)             111.0693         estimate D2E/DX2                !
 ! A14   A(5,6,18)             109.8894         estimate D2E/DX2                !
 ! A15   A(5,6,19)             110.4373         estimate D2E/DX2                !
 ! A16   A(17,6,18)            108.7959         estimate D2E/DX2                !
 ! A17   A(17,6,19)            107.6017         estimate D2E/DX2                !
 ! A18   A(18,6,19)            108.984          estimate D2E/DX2                !
 ! A19   A(5,7,8)              120.2874         estimate D2E/DX2                !
 ! A20   A(5,7,12)             121.4232         estimate D2E/DX2                !
 ! A21   A(8,7,12)             118.289          estimate D2E/DX2                !
 ! A22   A(7,8,9)              120.8484         estimate D2E/DX2                !
 ! A23   A(7,8,20)             118.7885         estimate D2E/DX2                !
 ! A24   A(9,8,20)             120.357          estimate D2E/DX2                !
 ! A25   A(8,9,10)             120.084          estimate D2E/DX2                !
 ! A26   A(8,9,21)             119.9561         estimate D2E/DX2                !
 ! A27   A(10,9,21)            119.9597         estimate D2E/DX2                !
 ! A28   A(9,10,11)            119.8814         estimate D2E/DX2                !
 ! A29   A(9,10,22)            120.0566         estimate D2E/DX2                !
 ! A30   A(11,10,22)           120.062          estimate D2E/DX2                !
 ! A31   A(10,11,12)           120.1917         estimate D2E/DX2                !
 ! A32   A(10,11,23)           119.8878         estimate D2E/DX2                !
 ! A33   A(12,11,23)           119.9203         estimate D2E/DX2                !
 ! A34   A(7,12,11)            120.7055         estimate D2E/DX2                !
 ! A35   A(7,12,24)            119.2394         estimate D2E/DX2                !
 ! A36   A(11,12,24)           120.0374         estimate D2E/DX2                !
 ! A37   A(4,13,14)            121.0831         estimate D2E/DX2                !
 ! A38   A(4,13,25)            118.7722         estimate D2E/DX2                !
 ! A39   A(14,13,25)           120.1368         estimate D2E/DX2                !
 ! A40   A(13,14,15)           120.08           estimate D2E/DX2                !
 ! A41   A(13,14,26)           119.9947         estimate D2E/DX2                !
 ! A42   A(15,14,26)           119.9251         estimate D2E/DX2                !
 ! A43   A(2,15,14)            119.756          estimate D2E/DX2                !
 ! A44   A(2,15,27)            119.1576         estimate D2E/DX2                !
 ! A45   A(14,15,27)           121.0864         estimate D2E/DX2                !
 ! D1    D(1,2,3,4)            179.6895         estimate D2E/DX2                !
 ! D2    D(1,2,3,16)             1.5582         estimate D2E/DX2                !
 ! D3    D(15,2,3,4)            -0.1846         estimate D2E/DX2                !
 ! D4    D(15,2,3,16)         -178.316          estimate D2E/DX2                !
 ! D5    D(1,2,15,14)         -179.8115         estimate D2E/DX2                !
 ! D6    D(1,2,15,27)            0.1876         estimate D2E/DX2                !
 ! D7    D(3,2,15,14)            0.0621         estimate D2E/DX2                !
 ! D8    D(3,2,15,27)         -179.9387         estimate D2E/DX2                !
 ! D9    D(2,3,4,5)            179.5649         estimate D2E/DX2                !
 ! D10   D(2,3,4,13)             0.2186         estimate D2E/DX2                !
 ! D11   D(16,3,4,5)            -2.3408         estimate D2E/DX2                !
 ! D12   D(16,3,4,13)          178.3129         estimate D2E/DX2                !
 ! D13   D(3,4,5,6)            -36.3242         estimate D2E/DX2                !
 ! D14   D(3,4,5,7)            150.5336         estimate D2E/DX2                !
 ! D15   D(13,4,5,6)           143.0081         estimate D2E/DX2                !
 ! D16   D(13,4,5,7)           -30.1341         estimate D2E/DX2                !
 ! D17   D(3,4,13,14)           -0.1365         estimate D2E/DX2                !
 ! D18   D(3,4,13,25)          178.8391         estimate D2E/DX2                !
 ! D19   D(5,4,13,14)         -179.4922         estimate D2E/DX2                !
 ! D20   D(5,4,13,25)           -0.5167         estimate D2E/DX2                !
 ! D21   D(4,5,6,17)            46.3386         estimate D2E/DX2                !
 ! D22   D(4,5,6,18)           -74.0965         estimate D2E/DX2                !
 ! D23   D(4,5,6,19)           165.6391         estimate D2E/DX2                !
 ! D24   D(7,5,6,17)          -140.3174         estimate D2E/DX2                !
 ! D25   D(7,5,6,18)            99.2475         estimate D2E/DX2                !
 ! D26   D(7,5,6,19)           -21.0169         estimate D2E/DX2                !
 ! D27   D(4,5,7,8)            -38.4347         estimate D2E/DX2                !
 ! D28   D(4,5,7,12)           141.7991         estimate D2E/DX2                !
 ! D29   D(6,5,7,8)            148.3834         estimate D2E/DX2                !
 ! D30   D(6,5,7,12)           -31.3829         estimate D2E/DX2                !
 ! D31   D(5,7,8,9)           -179.8212         estimate D2E/DX2                !
 ! D32   D(5,7,8,20)            -0.7186         estimate D2E/DX2                !
 ! D33   D(12,7,8,9)            -0.0477         estimate D2E/DX2                !
 ! D34   D(12,7,8,20)          179.055          estimate D2E/DX2                !
 ! D35   D(5,7,12,11)          179.8718         estimate D2E/DX2                !
 ! D36   D(5,7,12,24)           -1.6577         estimate D2E/DX2                !
 ! D37   D(8,7,12,11)            0.101          estimate D2E/DX2                !
 ! D38   D(8,7,12,24)          178.5715         estimate D2E/DX2                !
 ! D39   D(7,8,9,10)            -0.0067         estimate D2E/DX2                !
 ! D40   D(7,8,9,21)           179.8438         estimate D2E/DX2                !
 ! D41   D(20,8,9,10)         -179.0953         estimate D2E/DX2                !
 ! D42   D(20,8,9,21)            0.7552         estimate D2E/DX2                !
 ! D43   D(8,9,10,11)            0.0095         estimate D2E/DX2                !
 ! D44   D(8,9,10,22)         -179.9819         estimate D2E/DX2                !
 ! D45   D(21,9,10,11)        -179.841          estimate D2E/DX2                !
 ! D46   D(21,9,10,22)           0.1676         estimate D2E/DX2                !
 ! D47   D(9,10,11,12)           0.0436         estimate D2E/DX2                !
 ! D48   D(9,10,11,23)        -179.7732         estimate D2E/DX2                !
 ! D49   D(22,10,11,12)       -179.965          estimate D2E/DX2                !
 ! D50   D(22,10,11,23)          0.2182         estimate D2E/DX2                !
 ! D51   D(10,11,12,7)          -0.1            estimate D2E/DX2                !
 ! D52   D(10,11,12,24)       -178.5583         estimate D2E/DX2                !
 ! D53   D(23,11,12,7)         179.7168         estimate D2E/DX2                !
 ! D54   D(23,11,12,24)          1.2585         estimate D2E/DX2                !
 ! D55   D(4,13,14,15)           0.0191         estimate D2E/DX2                !
 ! D56   D(4,13,14,26)         179.8677         estimate D2E/DX2                !
 ! D57   D(25,13,14,15)       -178.9426         estimate D2E/DX2                !
 ! D58   D(25,13,14,26)          0.906          estimate D2E/DX2                !
 ! D59   D(13,14,15,2)           0.0199         estimate D2E/DX2                !
 ! D60   D(13,14,15,27)       -179.9792         estimate D2E/DX2                !
 ! D61   D(26,14,15,2)        -179.8288         estimate D2E/DX2                !
 ! D62   D(26,14,15,27)          0.1721         estimate D2E/DX2                !
 --------------------------------------------------------------------------------
 Trust Radius=3.00D-01 FncErr=1.00D-07 GrdErr=1.00D-06 EigMax=2.50D+02 EigMin=1.00D-04
 Number of steps in this run=    145 maximum allowed number of steps=    162.
 GradGradGradGradGradGradGradGradGradGradGradGradGradGradGradGradGradGrad

                          Input orientation:                          
 ---------------------------------------------------------------------
 Center     Atomic      Atomic             Coordinates (Angstroms)
 Number     Number       Type             X           Y           Z
 ---------------------------------------------------------------------
      1         17           0       -4.247600   -0.249900    1.151870
      2          6           0       -2.812770    0.044870    0.232300
      3          6           0       -1.587400    0.080030    0.868550
      4          6           0       -0.416910    0.309180    0.149370
      5          7           0        0.860550    0.358470    0.790680
      6          6           0        0.970050    0.950320    2.124190
      7          6           0        2.057230   -0.022750    0.108320
      8          6           0        2.052380   -1.108480   -0.766850
      9          6           0        3.198830   -1.487840   -1.427110
     10          6           0        4.374840   -0.791610   -1.228200
     11          6           0        4.398730    0.286430   -0.365040
     12          6           0        3.254000    0.668060    0.297980
     13          6           0       -0.520400    0.506350   -1.229910
     14          6           0       -1.744300    0.472750   -1.863940
     15          6           0       -2.893270    0.242120   -1.136930
     16          1           0       -1.551840   -0.103280    1.925780
     17          1           0        0.185350    0.582980    2.780330
     18          1           0        0.891590    2.033580    2.056040
     19          1           0        1.925270    0.692390    2.577110
     20          1           0        1.137210   -1.656660   -0.907410
     21          1           0        3.179360   -2.330790   -2.098370
     22          1           0        5.272210   -1.088860   -1.745650
     23          1           0        5.315560    0.832100   -0.212530
     24          1           0        3.269780    1.522130    0.951810
     25          1           0        0.374550    0.703030   -1.793420
     26          1           0       -1.804030    0.629240   -2.928440
     27          1           0       -3.857260    0.212170   -1.615430
 ---------------------------------------------------------------------
                    Distance matrix (angstroms):
                    1          2          3          4          5
     1  Cl   0.000000
     2  C    1.729519   0.000000
     3  C    2.695513   1.381152   0.000000
     4  C    3.998970   2.411821   1.392759   0.000000
     5  N    5.156915   3.728728   2.464965   1.430249   0.000000
     6  C    5.441489   4.325369   2.979025   2.496925   1.463054
     7  C    6.394644   4.872047   3.724492   2.496644   1.429331
     8  C    6.641415   5.098843   4.163543   2.991089   2.449143
     9  C    7.977027   6.422007   5.535004   4.334529   3.714163
    10  C    8.961286   7.382039   6.380002   5.105909   4.212932
    11  C    8.794753   7.240228   6.115398   4.843090   3.722848
    12  C    7.605641   6.099047   4.910243   3.691404   2.463169
    13  C    4.487406   2.757895   2.392441   1.397140   2.451872
    14  C    3.985454   2.391429   2.765022   2.417051   3.720929
    15  C    2.704607   1.385705   2.398650   2.791312   4.221419
    16  H    2.808479   2.116546   1.073593   2.147981   2.705788
    17  H    4.795479   3.971239   2.655279   2.712865   2.113056
    18  H    5.695883   4.582933   3.372222   2.884635   2.099546
    19  H    6.404962   5.326015   3.953860   3.395082   2.106291
    20  H    5.934289   4.449324   3.686953   2.719669   2.649679
    21  H    8.369821   6.854298   6.110374   4.995491   4.577730
    22  H    9.986304   8.400270   7.433343   6.157248   5.290603
    23  H    9.720408   8.178469   7.027460   5.767636   4.591064
    24  H    7.726003   6.300588   5.067424   3.963186   2.680384
    25  H    5.563010   3.833500   3.365035   2.134469   2.651884
    26  H    4.836616   3.368875   3.842615   3.391085   4.583138
    27  H    2.832635   2.129097   3.367474   3.867808   5.297971
                    6          7          8          9         10
     6  C    0.000000
     7  C    2.488485   0.000000
     8  C    3.710554   1.394545   0.000000
     9  C    4.850136   2.409831   1.376301   0.000000
    10  C    5.085807   2.783657   2.388948   1.381051   0.000000
    11  C    4.288690   2.408793   2.759091   2.390771   1.381226
    12  C    2.937880   1.394793   2.394545   2.761681   2.390846
    13  C    3.697099   2.952115   3.072669   4.224731   5.064393
    14  C    4.847778   4.311260   4.256604   5.335660   6.280656
    15  C    5.105065   5.111580   5.140091   6.339609   7.341822
    16  H    2.740323   4.041662   4.609890   5.977269   6.748846
    17  H    1.086836   3.318204   4.350784   5.574218   5.958996
    18  H    1.088234   3.062813   4.380489   5.464073   5.558863
    19  H    1.088168   2.573667   3.800179   4.733829   4.762671
    20  H    4.001860   2.132559   1.076009   2.132807   3.366521
    21  H    5.785909   3.384628   2.130040   1.077745   2.134348
    22  H    6.135348   3.861333   3.365374   2.135312   1.077676
    23  H    4.935351   3.383848   3.836856   3.367176   2.133770
    24  H    2.643899   2.137383   3.369861   3.837214   3.365560
    25  H    3.970320   2.640982   2.674047   3.593140   4.307638
    26  H    5.773013   4.955434   4.750162   5.636012   6.564150
    27  H    6.150817   6.165038   6.114577   7.260434   8.302108
                   11         12         13         14         15
    11  C    0.000000
    12  C    1.376824   0.000000
    13  C    4.999420   4.075131   0.000000
    14  C    6.325997   5.449316   1.378787   0.000000
    15  C    7.332874   6.326873   2.389346   1.379082   0.000000
    16  H    6.388193   5.132329   3.375485   3.838076   3.361388
    17  H    5.266295   3.947900   4.072589   5.030402   4.993898
    18  H    4.605887   3.245982   3.888909   4.974972   5.265886
    19  H    3.865107   2.638285   4.528721   5.765146   6.100423
    20  H    3.835007   3.367208   2.744137   3.708428   4.461257
    21  H    3.367660   3.839423   4.742553   5.670734   6.664913
    22  H    2.135527   3.366952   6.030341   7.189161   8.295608
    23  H    1.077772   2.130155   5.932925   7.259333   8.281756
    24  H    2.129689   1.075722   4.489674   5.845566   6.632077
    25  H    4.290437   3.558990   1.075715   2.132493   3.364828
    26  H    6.720325   5.999580   2.132560   1.077598   2.132091
    27  H    8.350471   7.378278   3.371914   2.143422   1.076632
                   16         17         18         19         20
    16  H    0.000000
    17  H    2.054030   0.000000
    18  H    3.248613   1.768505   0.000000
    19  H    3.625964   1.755161   1.771666   0.000000
    20  H    4.203682   4.418309   4.739223   4.275623   0.000000
    21  H    6.598472   6.423073   6.445211   5.707230   2.458295
    22  H    7.811429   7.011112   6.587284   5.749879   4.257143
    23  H    7.253171   5.944605   5.114829   4.392684   4.912779
    24  H    5.180598   3.706642   2.671459   2.266666   4.255498
    25  H    4.265391   4.579235   4.105610   4.637497   2.633401
    26  H    4.915652   6.045645   5.838114   6.650019   4.238018
    27  H    4.237291   5.983553   6.272862   7.158607   5.379456
                   21         22         23         24         25
    21  H    0.000000
    22  H    2.459029   0.000000
    23  H    4.257184   2.458134   0.000000
    24  H    4.914953   4.254796   2.452967   0.000000
    25  H    4.142948   5.215384   5.189360   4.073030   0.000000
    26  H    5.855337   7.377265   7.622721   6.449585   2.457626
    27  H    7.497593   9.222628   9.300165   7.687745   4.263900
                   26         27
    26  H    0.000000
    27  H    2.472589   0.000000
 Stoichiometry    C13H12ClN
 Framework group  C1[X(C13H12ClN)]
 Deg. of freedom    75
 Full point group                 C1      NOp   1
 Largest Abelian subgroup         C1      NOp   1
 Largest concise Abelian subgroup C1      NOp   1
                         Standard orientation:                         
 ---------------------------------------------------------------------
 Center     Atomic      Atomic             Coordinates (Angstroms)
 Number     Number       Type             X           Y           Z
 ---------------------------------------------------------------------
      1         17           0       -4.437881    0.425790    0.592249
      2          6           0       -2.907248   -0.163079    0.043037
      3          6           0       -1.779828    0.621209    0.189316
      4          6           0       -0.534826    0.167005   -0.238988
      5          7           0        0.642912    0.967360   -0.104902
      6          6           0        0.549357    2.415699   -0.289525
      7          6           0        1.934567    0.378502    0.062012
      8          6           0        2.091584   -0.760601    0.851027
      9          6           0        3.330485   -1.334962    1.022605
     10          6           0        4.439389   -0.784834    0.410240
     11          6           0        4.303145    0.343345   -0.374895
     12          6           0        3.065485    0.921208   -0.547859
     13          6           0       -0.462345   -1.099983   -0.823358
     14          6           0       -1.588670   -1.881517   -0.970498
     15          6           0       -2.813340   -1.417307   -0.538575
     16          1           0       -1.877374    1.577137    0.668158
     17          1           0       -0.299444    2.824617    0.252263
     18          1           0        0.435264    2.647563   -1.346632
     19          1           0        1.445914    2.905245    0.085494
     20          1           0        1.227012   -1.177018    1.337759
     21          1           0        3.435749   -2.213746    1.637578
     22          1           0        5.409222   -1.235102    0.544654
     23          1           0        5.167878    0.770617   -0.855797
     24          1           0        2.958416    1.786098   -1.178478
     25          1           0        0.490486   -1.454100   -1.175318
     26          1           0       -1.512967   -2.855320   -1.425683
     27          1           0       -3.703105   -2.014047   -0.645137
 ---------------------------------------------------------------------
 Rotational constants (GHZ):           1.4185630           0.2592304           0.2353260
 Standard basis: def2SVP (5D, 7F)
 There are   289 symmetry adapted cartesian basis functions of A   symmetry.
 There are   274 symmetry adapted basis functions of A   symmetry.
   274 basis functions,   471 primitive gaussians,   289 cartesian basis functions
    57 alpha electrons       57 beta electrons
       nuclear repulsion energy       997.5432625578 Hartrees.
 NAtoms=   27 NActive=   27 NUniq=   27 SFac= 1.00D+00 NAtFMM=   60 NAOKFM=F Big=F
 Integral buffers will be    131072 words long.
 Raffenetti 2 integral format.
 Two-electron integral symmetry is turned on.
 Nuclear repulsion after empirical dispersion term =      997.5253838716 Hartrees.
 One-electron integrals computed using PRISM.
   1 Symmetry operations used in ECPInt.
 ECPInt:  NShTT=    8256 NPrTT=   30622 LenC2=    7767 LenP2D=   20985.
 LDataN:  DoStor=T MaxTD1= 4 Len=   56
 NBasis=   274 RedAO= T EigKep=  2.32D-04  NBF=   274
 NBsUse=   274 1.00D-06 EigRej= -1.00D+00 NBFU=   274
 ExpMin= 1.22D-01 ExpMax= 1.04D+04 ExpMxC= 1.57D+03 IAcc=3 IRadAn=         5 AccDes= 0.00D+00
 Harris functional with IExCor= 4639 and IRadAn=       5 diagonalized for initial guess.
 HarFok:  IExCor= 4639 AccDes= 0.00D+00 IRadAn=         5 IDoV= 1 UseB2=F ITyADJ=14
 ICtDFT=  3500011 ScaDFX=  1.000000  1.000000  1.000000  1.000000
 FoFCou: FMM=F IPFlag=           0 FMFlag=      100000 FMFlg1=           0
         NFxFlg=           0 DoJE=T BraDBF=F KetDBF=T FulRan=T
         wScrn=  0.000000 ICntrl=       500 IOpCl=  0 I1Cent=   200000004 NGrid=           0
         NMat0=    1 NMatS0=      1 NMatT0=    0 NMatD0=    1 NMtDS0=    0 NMtDT0=    0
 Petite list used in FoFCou.
 Requested convergence on RMS density matrix=1.00D-08 within 128 cycles.
 Requested convergence on MAX density matrix=1.00D-06.
 Requested convergence on             energy=1.00D-06.
 No special actions if energy rises.
 Integral accuracy reduced to 1.0D-05 until final iterations.
 Initial convergence to 1.0D-05 achieved.  Increase integral accuracy.
 SCF Done:  E(RwB97XD) =  -1016.82256239     A.U. after   16 cycles
            NFock= 16  Conv=0.56D-08     -V/T= 2.0067

 **********************************************************************

            Population analysis using the SCF Density.

 **********************************************************************

 Orbital symmetries:
       Occupied  (A) (A) (A) (A) (A) (A) (A) (A) (A) (A) (A) (A)
                 (A) (A) (A) (A) (A) (A) (A) (A) (A) (A) (A) (A)
                 (A) (A) (A) (A) (A) (A) (A) (A) (A) (A) (A) (A)
                 (A) (A) (A) (A) (A) (A) (A) (A) (A) (A) (A) (A)
                 (A) (A) (A) (A) (A) (A) (A) (A) (A)
       Virtual   (A) (A) (A) (A) (A) (A) (A) (A) (A) (A) (A) (A)
                 (A) (A) (A) (A) (A) (A) (A) (A) (A) (A) (A) (A)
                 (A) (A) (A) (A) (A) (A) (A) (A) (A) (A) (A) (A)
                 (A) (A) (A) (A) (A) (A) (A) (A) (A) (A) (A) (A)
                 (A) (A) (A) (A) (A) (A) (A) (A) (A) (A) (A) (A)
                 (A) (A) (A) (A) (A) (A) (A) (A) (A) (A) (A) (A)
                 (A) (A) (A) (A) (A) (A) (A) (A) (A) (A) (A) (A)
                 (A) (A) (A) (A) (A) (A) (A) (A) (A) (A) (A) (A)
                 (A) (A) (A) (A) (A) (A) (A) (A) (A) (A) (A) (A)
                 (A) (A) (A) (A) (A) (A) (A) (A) (A) (A) (A) (A)
                 (A) (A) (A) (A) (A) (A) (A) (A) (A) (A) (A) (A)
                 (A) (A) (A) (A) (A) (A) (A) (A) (A) (A) (A) (A)
                 (A) (A) (A) (A) (A) (A) (A) (A) (A) (A) (A) (A)
                 (A) (A) (A) (A) (A) (A) (A) (A) (A) (A) (A) (A)
                 (A) (A) (A) (A) (A) (A) (A) (A) (A) (A) (A) (A)
                 (A) (A) (A) (A) (A) (A) (A) (A) (A) (A) (A) (A)
                 (A) (A) (A) (A) (A) (A) (A) (A) (A) (A) (A) (A)
                 (A) (A) (A) (A) (A) (A) (A) (A) (A) (A) (A) (A)
                 (A)
 The electronic state is 1-A.
 Alpha  occ. eigenvalues -- -101.67565 -14.47236 -10.35747 -10.35271 -10.34451
 Alpha  occ. eigenvalues --  -10.33505 -10.30860 -10.30670 -10.30221 -10.30124
 Alpha  occ. eigenvalues --  -10.30031 -10.30001 -10.29863 -10.29624 -10.29366
 Alpha  occ. eigenvalues --   -9.58383  -7.33765  -7.32792  -7.32766  -1.04914
 Alpha  occ. eigenvalues --   -0.99059  -0.95405  -0.93069  -0.85922  -0.85015
 Alpha  occ. eigenvalues --   -0.83681  -0.82949  -0.77869  -0.71872  -0.70319
 Alpha  occ. eigenvalues --   -0.70006  -0.66753  -0.63058  -0.61186  -0.57989
 Alpha  occ. eigenvalues --   -0.57223  -0.56320  -0.54215  -0.53793  -0.52814
 Alpha  occ. eigenvalues --   -0.52252  -0.51662  -0.51151  -0.49081  -0.48323
 Alpha  occ. eigenvalues --   -0.46821  -0.45855  -0.44966  -0.43947  -0.42895
 Alpha  occ. eigenvalues --   -0.42513  -0.39251  -0.38425  -0.34362  -0.33840
 Alpha  occ. eigenvalues --   -0.32470  -0.26841
 Alpha virt. eigenvalues --    0.04556   0.04971   0.06675   0.08269   0.11973
 Alpha virt. eigenvalues --    0.14143   0.15809   0.17223   0.18168   0.19242
 Alpha virt. eigenvalues --    0.20217   0.20608   0.21149   0.21840   0.22720
 Alpha virt. eigenvalues --    0.23305   0.24243   0.24453   0.24882   0.27891
 Alpha virt. eigenvalues --    0.31483   0.33487   0.35319   0.35570   0.36754
 Alpha virt. eigenvalues --    0.37403   0.38549   0.39502   0.41190   0.42064
 Alpha virt. eigenvalues --    0.42851   0.44503   0.46375   0.47221   0.48085
 Alpha virt. eigenvalues --    0.49214   0.50130   0.51411   0.52548   0.53376
 Alpha virt. eigenvalues --    0.53582   0.54989   0.56325   0.57038   0.57314
 Alpha virt. eigenvalues --    0.57990   0.58241   0.58952   0.60655   0.61911
 Alpha virt. eigenvalues --    0.63139   0.64208   0.65178   0.65393   0.67260
 Alpha virt. eigenvalues --    0.68044   0.68438   0.69587   0.71494   0.72396
 Alpha virt. eigenvalues --    0.72556   0.73642   0.73771   0.74661   0.75139
 Alpha virt. eigenvalues --    0.75772   0.76218   0.76626   0.77004   0.77664
 Alpha virt. eigenvalues --    0.78259   0.79150   0.80456   0.82140   0.82456
 Alpha virt. eigenvalues --    0.83368   0.84140   0.84648   0.86027   0.86986
 Alpha virt. eigenvalues --    0.87591   0.88464   0.89263   0.90669   0.91258
 Alpha virt. eigenvalues --    0.91724   0.92722   0.94650   0.95921   0.96697
 Alpha virt. eigenvalues --    1.00298   1.01989   1.03563   1.03888   1.06087
 Alpha virt. eigenvalues --    1.08167   1.13236   1.15332   1.16829   1.17891
 Alpha virt. eigenvalues --    1.20972   1.24640   1.26678   1.29451   1.30642
 Alpha virt. eigenvalues --    1.32501   1.33697   1.33989   1.34560   1.35534
 Alpha virt. eigenvalues --    1.36731   1.37124   1.37437   1.38669   1.39549
 Alpha virt. eigenvalues --    1.40729   1.42312   1.45440   1.51264   1.56033
 Alpha virt. eigenvalues --    1.57174   1.59729   1.62338   1.65423   1.68042
 Alpha virt. eigenvalues --    1.71592   1.75920   1.77057   1.78067   1.78910
 Alpha virt. eigenvalues --    1.80651   1.81154   1.82101   1.83155   1.83949
 Alpha virt. eigenvalues --    1.84247   1.85520   1.86147   1.86459   1.88214
 Alpha virt. eigenvalues --    1.89374   1.89936   1.90518   1.91596   1.91786
 Alpha virt. eigenvalues --    1.92034   1.92442   1.95505   1.97141   1.98806
 Alpha virt. eigenvalues --    1.99190   2.02019   2.04378   2.05794   2.06649
 Alpha virt. eigenvalues --    2.07280   2.08513   2.10779   2.13440   2.15052
 Alpha virt. eigenvalues --    2.15811   2.19194   2.20139   2.23040   2.23809
 Alpha virt. eigenvalues --    2.25160   2.25762   2.27959   2.28306   2.29251
 Alpha virt. eigenvalues --    2.33378   2.34726   2.36575   2.38111   2.38598
 Alpha virt. eigenvalues --    2.39220   2.39801   2.40737   2.43455   2.44710
 Alpha virt. eigenvalues --    2.45436   2.46979   2.50588   2.54187   2.56369
 Alpha virt. eigenvalues --    2.62113   2.64858   2.68843   2.70282   2.71114
 Alpha virt. eigenvalues --    2.72869   2.74041   2.75227   2.75999   2.78683
 Alpha virt. eigenvalues --    2.84161   2.84558   2.85178   2.88425   2.90654
 Alpha virt. eigenvalues --    2.93290   2.94161   2.97655   3.00076   3.01296
 Alpha virt. eigenvalues --    3.02646   3.05780   3.10465   3.10836   3.17372
 Alpha virt. eigenvalues --    3.23625   3.24349   3.28616   3.38595   3.45599
 Alpha virt. eigenvalues --    3.71815   3.79330
          Condensed to atoms (all electrons):
               1          2          3          4          5          6
     1  Cl  16.967129   0.237590  -0.062256   0.003716  -0.000024   0.000007
     2  C    0.237590   5.204768   0.272879   0.145728   0.008984   0.001160
     3  C   -0.062256   0.272879   5.190152   0.244122  -0.082375  -0.003904
     4  C    0.003716   0.145728   0.244122   5.079535   0.325217  -0.045042
     5  N   -0.000024   0.008984  -0.082375   0.325217   6.815773   0.336284
     6  C    0.000007   0.001160  -0.003904  -0.045042   0.336284   4.438306
     7  C    0.000001  -0.000191   0.006465  -0.047968   0.318954  -0.053517
     8  C    0.000000   0.000045   0.000437  -0.006554  -0.079079   0.005396
     9  C    0.000000   0.000004  -0.000057  -0.000097   0.008908  -0.000183
    10  C    0.000000  -0.000000   0.000001   0.000029  -0.000525   0.000067
    11  C    0.000000  -0.000000   0.000002  -0.000139   0.008636   0.000138
    12  C   -0.000000  -0.000003  -0.000485   0.005674  -0.082967  -0.001053
    13  C    0.000401  -0.181568   0.076393   0.253238  -0.084071   0.004223
    14  C    0.004095   0.132860  -0.153329   0.136525   0.009994  -0.000161
    15  C   -0.056637   0.266286   0.093061  -0.170532  -0.000948  -0.000024
    16  H    0.004597  -0.065527   0.439300  -0.063267  -0.012118   0.000719
    17  H   -0.000095   0.001008   0.004728  -0.016740  -0.022560   0.400914
    18  H   -0.000001  -0.000083   0.000430   0.003420  -0.040700   0.408841
    19  H   -0.000000  -0.000030   0.000525   0.005198  -0.016664   0.398346
    20  H   -0.000000   0.000024  -0.001106   0.005377  -0.013285  -0.000071
    21  H   -0.000000  -0.000000   0.000000  -0.000022  -0.000124   0.000006
    22  H    0.000000  -0.000000   0.000000   0.000001   0.000009   0.000000
    23  H   -0.000000   0.000000  -0.000000   0.000008  -0.000125  -0.000024
    24  H   -0.000000  -0.000000   0.000005  -0.000317  -0.014379   0.007471
    25  H    0.000008  -0.002336   0.016322  -0.065315  -0.014837  -0.000157
    26  H   -0.000122   0.015149  -0.002337   0.014772  -0.000123   0.000005
    27  H    0.000915  -0.071519   0.015722  -0.001711   0.000010  -0.000000
               7          8          9         10         11         12
     1  Cl   0.000001   0.000000   0.000000   0.000000   0.000000  -0.000000
     2  C   -0.000191   0.000045   0.000004  -0.000000  -0.000000  -0.000003
     3  C    0.006465   0.000437  -0.000057   0.000001   0.000002  -0.000485
     4  C   -0.047968  -0.006554  -0.000097   0.000029  -0.000139   0.005674
     5  N    0.318954  -0.079079   0.008908  -0.000525   0.008636  -0.082967
     6  C   -0.053517   0.005396  -0.000183   0.000067   0.000138  -0.001053
     7  C    5.101205   0.273474   0.120385  -0.166265   0.117926   0.268323
     8  C    0.273474   5.171342   0.275447   0.089559  -0.152991   0.063192
     9  C    0.120385   0.275447   5.058784   0.271445   0.101948  -0.151683
    10  C   -0.166265   0.089559   0.271445   5.107114   0.282248   0.087313
    11  C    0.117926  -0.152991   0.101948   0.282248   5.052359   0.269236
    12  C    0.268323   0.063192  -0.151683   0.087313   0.269236   5.185831
    13  C   -0.004145  -0.005476  -0.001376   0.000040   0.000031   0.000877
    14  C   -0.000321  -0.001027   0.000042  -0.000004   0.000005  -0.000083
    15  C    0.000099  -0.000028  -0.000005   0.000000  -0.000000   0.000003
    16  H   -0.000090  -0.000056   0.000000   0.000000   0.000000   0.000007
    17  H    0.005085   0.000182  -0.000010   0.000002  -0.000008   0.000496
    18  H   -0.002990  -0.000666   0.000041  -0.000009   0.000029   0.001995
    19  H   -0.008528   0.000348  -0.000060  -0.000127   0.001310   0.004018
    20  H   -0.068312   0.458928  -0.069462   0.014760  -0.002479   0.016199
    21  H    0.015356  -0.067749   0.453746  -0.071969   0.014278  -0.002062
    22  H   -0.001629   0.014844  -0.070041   0.453311  -0.069856   0.014803
    23  H    0.015168  -0.001961   0.014094  -0.070198   0.451283  -0.066723
    24  H   -0.073252   0.016287  -0.002519   0.015158  -0.070198   0.457467
    25  H    0.005943   0.003192  -0.000708   0.000053   0.000030  -0.000828
    26  H   -0.000017   0.000039   0.000002  -0.000000  -0.000000   0.000001
    27  H    0.000001  -0.000000  -0.000000  -0.000000   0.000000   0.000000
              13         14         15         16         17         18
     1  Cl   0.000401   0.004095  -0.056637   0.004597  -0.000095  -0.000001
     2  C   -0.181568   0.132860   0.266286  -0.065527   0.001008  -0.000083
     3  C    0.076393  -0.153329   0.093061   0.439300   0.004728   0.000430
     4  C    0.253238   0.136525  -0.170532  -0.063267  -0.016740   0.003420
     5  N   -0.084071   0.009994  -0.000948  -0.012118  -0.022560  -0.040700
     6  C    0.004223  -0.000161  -0.000024   0.000719   0.400914   0.408841
     7  C   -0.004145  -0.000321   0.000099  -0.000090   0.005085  -0.002990
     8  C   -0.005476  -0.001027  -0.000028  -0.000056   0.000182  -0.000666
     9  C   -0.001376   0.000042  -0.000005   0.000000  -0.000010   0.000041
    10  C    0.000040  -0.000004   0.000000   0.000000   0.000002  -0.000009
    11  C    0.000031   0.000005  -0.000000   0.000000  -0.000008   0.000029
    12  C    0.000877  -0.000083   0.000003   0.000007   0.000496   0.001995
    13  C    5.225128   0.232751   0.109302   0.016949  -0.000632   0.001491
    14  C    0.232751   5.086913   0.239986  -0.002973   0.000089  -0.000129
    15  C    0.109302   0.239986   5.114801   0.016879  -0.000067  -0.000011
    16  H    0.016949  -0.002973   0.016879   0.680667  -0.002277   0.000248
    17  H   -0.000632   0.000089  -0.000067  -0.002277   0.625977  -0.033741
    18  H    0.001491  -0.000129  -0.000011   0.000248  -0.033741   0.650821
    19  H   -0.000295   0.000013   0.000002  -0.000260  -0.011910  -0.029683
    20  H    0.002732  -0.000579   0.000001  -0.000021  -0.000007  -0.000003
    21  H    0.000036   0.000003  -0.000000  -0.000000   0.000000  -0.000000
    22  H   -0.000000  -0.000000  -0.000000   0.000000  -0.000000   0.000000
    23  H   -0.000002  -0.000000   0.000000  -0.000000  -0.000001   0.000008
    24  H    0.000004  -0.000000   0.000000  -0.000002   0.000103  -0.000381
    25  H    0.459879  -0.071480   0.014887  -0.000155  -0.000038   0.000098
    26  H   -0.068222   0.455578  -0.070587   0.000027  -0.000001   0.000001
    27  H    0.014488  -0.061799   0.447646  -0.000329   0.000001  -0.000000
              19         20         21         22         23         24
     1  Cl  -0.000000  -0.000000  -0.000000   0.000000  -0.000000  -0.000000
     2  C   -0.000030   0.000024  -0.000000  -0.000000   0.000000  -0.000000
     3  C    0.000525  -0.001106   0.000000   0.000000  -0.000000   0.000005
     4  C    0.005198   0.005377  -0.000022   0.000001   0.000008  -0.000317
     5  N   -0.016664  -0.013285  -0.000124   0.000009  -0.000125  -0.014379
     6  C    0.398346  -0.000071   0.000006   0.000000  -0.000024   0.007471
     7  C   -0.008528  -0.068312   0.015356  -0.001629   0.015168  -0.073252
     8  C    0.000348   0.458928  -0.067749   0.014844  -0.001961   0.016287
     9  C   -0.000060  -0.069462   0.453746  -0.070041   0.014094  -0.002519
    10  C   -0.000127   0.014760  -0.071969   0.453311  -0.070198   0.015158
    11  C    0.001310  -0.002479   0.014278  -0.069856   0.451283  -0.070198
    12  C    0.004018   0.016199  -0.002062   0.014803  -0.066723   0.457467
    13  C   -0.000295   0.002732   0.000036  -0.000000  -0.000002   0.000004
    14  C    0.000013  -0.000579   0.000003  -0.000000  -0.000000  -0.000000
    15  C    0.000002   0.000001  -0.000000  -0.000000   0.000000   0.000000
    16  H   -0.000260  -0.000021  -0.000000   0.000000  -0.000000  -0.000002
    17  H   -0.011910  -0.000007   0.000000  -0.000000  -0.000001   0.000103
    18  H   -0.029683  -0.000003  -0.000000   0.000000   0.000008  -0.000381
    19  H    0.606485  -0.000026   0.000001  -0.000001   0.000018  -0.001066
    20  H   -0.000026   0.656557  -0.012599  -0.000228   0.000021  -0.000190
    21  H    0.000001  -0.012599   0.670664  -0.012320  -0.000264   0.000023
    22  H   -0.000001  -0.000228  -0.012320   0.674628  -0.012328  -0.000236
    23  H    0.000018   0.000021  -0.000264  -0.012328   0.672306  -0.013093
    24  H   -0.001066  -0.000190   0.000023  -0.000236  -0.013093   0.682739
    25  H   -0.000016  -0.002146   0.000014   0.000000  -0.000004  -0.000017
    26  H   -0.000000   0.000010  -0.000000   0.000000   0.000000   0.000000
    27  H    0.000000  -0.000000   0.000000  -0.000000   0.000000   0.000000
              25         26         27
     1  Cl   0.000008  -0.000122   0.000915
     2  C   -0.002336   0.015149  -0.071519
     3  C    0.016322  -0.002337   0.015722
     4  C   -0.065315   0.014772  -0.001711
     5  N   -0.014837  -0.000123   0.000010
     6  C   -0.000157   0.000005  -0.000000
     7  C    0.005943  -0.000017   0.000001
     8  C    0.003192   0.000039  -0.000000
     9  C   -0.000708   0.000002  -0.000000
    10  C    0.000053  -0.000000  -0.000000
    11  C    0.000030  -0.000000   0.000000
    12  C   -0.000828   0.000001   0.000000
    13  C    0.459879  -0.068222   0.014488
    14  C   -0.071480   0.455578  -0.061799
    15  C    0.014887  -0.070587   0.447646
    16  H   -0.000155   0.000027  -0.000329
    17  H   -0.000038  -0.000001   0.000001
    18  H    0.000098   0.000001  -0.000000
    19  H   -0.000016  -0.000000   0.000000
    20  H   -0.002146   0.000010  -0.000000
    21  H    0.000014  -0.000000   0.000000
    22  H    0.000000   0.000000  -0.000000
    23  H   -0.000004   0.000000   0.000000
    24  H   -0.000017   0.000000   0.000000
    25  H    0.648515  -0.012274  -0.000210
    26  H   -0.012274   0.660708  -0.012443
    27  H   -0.000210  -0.012443   0.662091
 Mulliken charges:
               1
     1  Cl  -0.099323
     2  C    0.034772
     3  C   -0.054695
     4  C    0.195144
     5  N   -0.367867
     6  C    0.102253
     7  C    0.178840
     8  C   -0.057125
     9  C   -0.008647
    10  C   -0.012003
    11  C   -0.003785
    12  C   -0.069548
    13  C   -0.052178
    14  C   -0.006970
    15  C   -0.004115
    16  H   -0.012318
    17  H    0.049501
    18  H    0.040973
    19  H    0.052402
    20  H    0.015906
    21  H    0.012984
    22  H    0.009043
    23  H    0.011816
    24  H   -0.003607
    25  H    0.021578
    26  H    0.019834
    27  H    0.007137
 Sum of Mulliken charges =  -0.00000
 Mulliken charges with hydrogens summed into heavy atoms:
               1
     1  Cl  -0.099323
     2  C    0.034772
     3  C   -0.067013
     4  C    0.195144
     5  N   -0.367867
     6  C    0.245129
     7  C    0.178840
     8  C   -0.041219
     9  C    0.004337
    10  C   -0.002961
    11  C    0.008031
    12  C   -0.073155
    13  C   -0.030600
    14  C    0.012864
    15  C    0.003022
 Electronic spatial extent (au):  <R**2>=           4442.6678
 Charge=             -0.0000 electrons
 Dipole moment (field-independent basis, Debye):
    X=              1.6554    Y=              0.3564    Z=             -0.5811  Tot=              1.7902
 Quadrupole moment (field-independent basis, Debye-Ang):
   XX=            -96.6408   YY=            -85.3701   ZZ=            -96.2796
   XY=              2.0152   XZ=             -0.2603   YZ=             -0.8100
 Traceless Quadrupole moment (field-independent basis, Debye-Ang):
   XX=             -3.8773   YY=              7.3934   ZZ=             -3.5161
   XY=              2.0152   XZ=             -0.2603   YZ=             -0.8100
 Octapole moment (field-independent basis, Debye-Ang**2):
  XXX=             30.6638  YYY=              9.2066  ZZZ=              3.9791  XYY=             -7.2284
  XXY=             -9.2132  XXZ=             -7.9022  XZZ=             -6.7665  YZZ=             -0.2470
  YYZ=             -2.5119  XYZ=            -15.2370
 Hexadecapole moment (field-independent basis, Debye-Ang**3):
 XXXX=          -4657.6703 YYYY=           -832.8486 ZZZZ=           -331.8072 XXXY=             -2.9877
 XXXZ=            -36.1570 YYYX=              7.6721 YYYZ=              8.6056 ZZZX=            -24.2542
 ZZZY=             -6.0199 XXYY=           -902.8955 XXZZ=           -874.1372 YYZZ=           -186.4067
 XXYZ=            -26.6466 YYXZ=              8.7674 ZZXY=             -7.0900
 N-N= 9.975253838716D+02 E-N=-4.377397872757D+03  KE= 1.010064857417D+03
   1 Symmetry operations used in ECPInt.
 ECPInt:  NShTT=    8256 NPrTT=   30622 LenC2=    7767 LenP2D=   20985.
 LDataN:  DoStor=T MaxTD1= 5 Len=  102
 Calling FoFJK, ICntrl=      2127 FMM=F ISym2X=0 I1Cent= 0 IOpClX= 0 NMat=1 NMatS=1 NMatT=0.
 ***** Axes restored to original set *****
 -------------------------------------------------------------------
 Center     Atomic                   Forces (Hartrees/Bohr)
 Number     Number              X              Y              Z
 -------------------------------------------------------------------
      1       17          -0.004611484   -0.001107554    0.003204042
      2        6           0.002840430    0.002299494   -0.005753404
      3        6           0.003572114   -0.001258553    0.006172532
      4        6           0.024180713    0.000703812    0.005858764
      5        7          -0.000660372   -0.007174042   -0.003270308
      6        6          -0.002643392   -0.004941172   -0.018435243
      7        6          -0.020829858    0.007338368    0.007155216
      8        6          -0.004999153   -0.000234096    0.004106495
      9        6           0.000228168    0.000364447   -0.001265250
     10        6           0.007284779   -0.000495244   -0.002913821
     11        6           0.003376374   -0.003226008   -0.001330801
     12        6          -0.009651756    0.002964511    0.004286372
     13        6           0.004634480    0.002624139    0.001154000
     14        6           0.003336861   -0.001812018    0.004109364
     15        6          -0.012768926   -0.001774344    0.001358603
     16        1           0.000160781   -0.001414521    0.011912785
     17        1          -0.005182201   -0.002503797    0.004958223
     18        1          -0.000535484    0.011141045    0.003692690
     19        1           0.004940762   -0.002907710    0.001339032
     20        1          -0.009093939   -0.006374439   -0.002073872
     21        1          -0.000858288   -0.008449450   -0.006051760
     22        1           0.008732555   -0.002772570   -0.004992081
     23        1           0.008454534    0.005773699    0.001855046
     24        1           0.001375950    0.009360758    0.006625871
     25        1           0.008454008    0.002082298   -0.006598523
     26        1          -0.000528904    0.001810498   -0.009867954
     27        1          -0.009208752   -0.000017550   -0.005236018
 -------------------------------------------------------------------
 Cartesian Forces:  Max     0.024180713 RMS     0.006569847

 GradGradGradGradGradGradGradGradGradGradGradGradGradGradGradGradGradGrad
 Berny optimization.
 FormGI is forming the generalized inverse of G from B-inverse, IUseBI=4.
 Internal  Forces:  Max     0.020822760 RMS     0.005570902
 Search for a local minimum.
 Step number   1 out of a maximum of  145
 All quantities printed in internal units (Hartrees-Bohrs-Radians)
 Mixed Optimization -- RFO/linear search
 Second derivative matrix not updated -- first step.
 ITU=  0
     Eigenvalues ---    0.00858   0.01139   0.01292   0.01304   0.01892
     Eigenvalues ---    0.01901   0.02178   0.02187   0.02245   0.02263
     Eigenvalues ---    0.02267   0.02289   0.02296   0.02306   0.02328
     Eigenvalues ---    0.02336   0.02338   0.02343   0.02356   0.02367
     Eigenvalues ---    0.02369   0.02375   0.07360   0.07428   0.15992
     Eigenvalues ---    0.15995   0.15998   0.15998   0.16000   0.16000
     Eigenvalues ---    0.16000   0.16000   0.16000   0.16000   0.16000
     Eigenvalues ---    0.16000   0.22000   0.22000   0.22000   0.23462
     Eigenvalues ---    0.23468   0.23492   0.24849   0.24896   0.24998
     Eigenvalues ---    0.25000   0.25000   0.32560   0.35018   0.35025
     Eigenvalues ---    0.35181   0.36265   0.36268   0.36277   0.36286
     Eigenvalues ---    0.36404   0.36481   0.36516   0.36517   0.36585
     Eigenvalues ---    0.36780   0.40954   0.41086   0.42995   0.43083
     Eigenvalues ---    0.43707   0.43778   0.46991   0.47354   0.47771
     Eigenvalues ---    0.47947   0.48902   0.49099   0.49160   0.49738
 RFO step:  Lambda=-1.09261515D-02 EMin= 8.57703244D-03
 Linear search not attempted -- first point.
 Iteration  1 RMS(Cart)=  0.04620640 RMS(Int)=  0.00048510
 Iteration  2 RMS(Cart)=  0.00103316 RMS(Int)=  0.00009378
 Iteration  3 RMS(Cart)=  0.00000080 RMS(Int)=  0.00009378
 Variable       Old X    -DE/DX   Delta X   Delta X   Delta X     New X
                                 (Linear)    (Quad)   (Total)
    R1        3.26832   0.00572   0.00000   0.01699   0.01699   3.28531
    R2        2.61000   0.01208   0.00000   0.02411   0.02412   2.63412
    R3        2.61860   0.00724   0.00000   0.01499   0.01501   2.63361
    R4        2.63193   0.00890   0.00000   0.01823   0.01823   2.65016
    R5        2.02880   0.01198   0.00000   0.03163   0.03163   2.06042
    R6        2.70278  -0.02082   0.00000  -0.04952  -0.04952   2.65326
    R7        2.64021   0.00841   0.00000   0.01754   0.01753   2.65774
    R8        2.76477  -0.00763   0.00000  -0.02026  -0.02026   2.74451
    R9        2.70104  -0.01709   0.00000  -0.04052  -0.04052   2.66052
   R10        2.05382   0.00758   0.00000   0.02090   0.02090   2.07472
   R11        2.05646   0.01090   0.00000   0.03018   0.03018   2.08664
   R12        2.05634   0.00558   0.00000   0.01546   0.01546   2.07180
   R13        2.63531   0.01014   0.00000   0.02083   0.02084   2.65614
   R14        2.63578   0.00829   0.00000   0.01696   0.01697   2.65274
   R15        2.60083   0.01502   0.00000   0.02954   0.02954   2.63037
   R16        2.03336   0.01125   0.00000   0.02995   0.02995   2.06331
   R17        2.60981   0.01469   0.00000   0.02983   0.02982   2.63963
   R18        2.03664   0.01039   0.00000   0.02782   0.02782   2.06446
   R19        2.61014   0.01208   0.00000   0.02462   0.02461   2.63475
   R20        2.03651   0.01043   0.00000   0.02792   0.02792   2.06443
   R21        2.60182   0.01713   0.00000   0.03372   0.03373   2.63555
   R22        2.03669   0.01038   0.00000   0.02778   0.02778   2.06447
   R23        2.03282   0.01148   0.00000   0.03052   0.03052   2.06334
   R24        2.60553   0.01213   0.00000   0.02412   0.02410   2.62963
   R25        2.03281   0.01087   0.00000   0.02890   0.02890   2.06171
   R26        2.60609   0.01441   0.00000   0.02893   0.02893   2.63502
   R27        2.03636   0.01004   0.00000   0.02686   0.02686   2.06323
   R28        2.03454   0.01057   0.00000   0.02820   0.02820   2.06274
    A1        2.08914  -0.00296   0.00000  -0.01182  -0.01183   2.07731
    A2        2.09605  -0.00225   0.00000  -0.00909  -0.00911   2.08694
    A3        2.09799   0.00521   0.00000   0.02089   0.02092   2.11890
    A4        2.10823  -0.00263   0.00000  -0.01152  -0.01154   2.09669
    A5        2.06995   0.00115   0.00000   0.00494   0.00491   2.07486
    A6        2.10454   0.00149   0.00000   0.00696   0.00693   2.11147
    A7        2.12324  -0.00579   0.00000  -0.02197  -0.02201   2.10122
    A8        2.06092   0.00249   0.00000   0.00893   0.00883   2.06976
    A9        2.09897   0.00329   0.00000   0.01283   0.01277   2.11174
   A10        2.08229  -0.00179   0.00000  -0.00750  -0.00755   2.07474
   A11        2.12297  -0.00018   0.00000  -0.00134  -0.00139   2.12158
   A12        2.07186   0.00193   0.00000   0.00680   0.00674   2.07860
   A13        1.93852  -0.00031   0.00000  -0.00370  -0.00398   1.93455
   A14        1.91793   0.00724   0.00000   0.04734   0.04730   1.96524
   A15        1.92749  -0.00382   0.00000  -0.02550  -0.02554   1.90195
   A16        1.89885  -0.00239   0.00000  -0.00810  -0.00836   1.89049
   A17        1.87800   0.00012   0.00000  -0.00887  -0.00916   1.86884
   A18        1.90213  -0.00101   0.00000  -0.00227  -0.00208   1.90005
   A19        2.09941   0.00162   0.00000   0.00700   0.00687   2.10629
   A20        2.11923  -0.00367   0.00000  -0.01328  -0.01339   2.10584
   A21        2.06453   0.00204   0.00000   0.00619   0.00609   2.07062
   A22        2.10920  -0.00124   0.00000  -0.00613  -0.00612   2.10308
   A23        2.07325   0.00164   0.00000   0.00906   0.00905   2.08230
   A24        2.10063  -0.00040   0.00000  -0.00289  -0.00289   2.09773
   A25        2.09586   0.00191   0.00000   0.00940   0.00937   2.10523
   A26        2.09363  -0.00175   0.00000  -0.00933  -0.00936   2.08427
   A27        2.09369  -0.00017   0.00000  -0.00010  -0.00012   2.09357
   A28        2.09232  -0.00346   0.00000  -0.01291  -0.01292   2.07941
   A29        2.09538   0.00184   0.00000   0.00710   0.00710   2.10249
   A30        2.09548   0.00162   0.00000   0.00581   0.00581   2.10128
   A31        2.09774   0.00150   0.00000   0.00755   0.00754   2.10528
   A32        2.09244   0.00000   0.00000   0.00062   0.00060   2.09304
   A33        2.09300  -0.00150   0.00000  -0.00819  -0.00821   2.08479
   A34        2.10671  -0.00076   0.00000  -0.00408  -0.00409   2.10262
   A35        2.08112   0.00167   0.00000   0.00971   0.00969   2.09081
   A36        2.09505  -0.00091   0.00000  -0.00540  -0.00542   2.08962
   A37        2.11330  -0.00277   0.00000  -0.01172  -0.01177   2.10153
   A38        2.07297   0.00249   0.00000   0.01238   0.01238   2.08535
   A39        2.09678   0.00028   0.00000  -0.00051  -0.00051   2.09627
   A40        2.09579   0.00385   0.00000   0.01817   0.01812   2.11391
   A41        2.09430  -0.00199   0.00000  -0.00949  -0.00951   2.08480
   A42        2.09309  -0.00186   0.00000  -0.00872  -0.00874   2.08435
   A43        2.09014  -0.00616   0.00000  -0.02476  -0.02475   2.06539
   A44        2.07969   0.00373   0.00000   0.01617   0.01615   2.09584
   A45        2.11336   0.00243   0.00000   0.00860   0.00858   2.12194
    D1        3.13617   0.00008   0.00000   0.00201   0.00201   3.13818
    D2        0.02720  -0.00037   0.00000  -0.01130  -0.01121   0.01598
    D3       -0.00322   0.00030   0.00000   0.00819   0.00829   0.00507
    D4       -3.11220  -0.00016   0.00000  -0.00512  -0.00493  -3.11713
    D5       -3.13830  -0.00009   0.00000  -0.00333  -0.00328  -3.14158
    D6        0.00327   0.00014   0.00000   0.00392   0.00395   0.00723
    D7        0.00108  -0.00031   0.00000  -0.00954  -0.00960  -0.00851
    D8       -3.14052  -0.00008   0.00000  -0.00229  -0.00236   3.14030
    D9        3.13400  -0.00046   0.00000  -0.01533  -0.01505   3.11895
   D10        0.00382   0.00015   0.00000   0.00579   0.00593   0.00975
   D11       -0.04085  -0.00001   0.00000  -0.00180  -0.00159  -0.04245
   D12        3.11215   0.00061   0.00000   0.01932   0.01939   3.13153
   D13       -0.63398  -0.00022   0.00000  -0.01469  -0.01469  -0.64867
   D14        2.62731   0.00010   0.00000   0.00486   0.00477   2.63208
   D15        2.49596  -0.00085   0.00000  -0.03630  -0.03621   2.45975
   D16       -0.52594  -0.00053   0.00000  -0.01675  -0.01675  -0.54269
   D17       -0.00238  -0.00060   0.00000  -0.01878  -0.01874  -0.02112
   D18        3.12133  -0.00032   0.00000  -0.00992  -0.00996   3.11138
   D19       -3.13273   0.00006   0.00000   0.00227   0.00261  -3.13013
   D20       -0.00902   0.00034   0.00000   0.01114   0.01139   0.00237
   D21        0.80876   0.00145   0.00000   0.01875   0.01873   0.82749
   D22       -1.29323  -0.00012   0.00000   0.00006  -0.00010  -1.29333
   D23        2.89095  -0.00109   0.00000  -0.01131  -0.01111   2.87984
   D24       -2.44900   0.00101   0.00000  -0.00075  -0.00077  -2.44977
   D25        1.73220  -0.00057   0.00000  -0.01943  -0.01961   1.71259
   D26       -0.36681  -0.00153   0.00000  -0.03080  -0.03061  -0.39743
   D27       -0.67081  -0.00164   0.00000  -0.06344  -0.06344  -0.73425
   D28        2.47486  -0.00080   0.00000  -0.03510  -0.03518   2.43968
   D29        2.58978  -0.00108   0.00000  -0.04306  -0.04298   2.54680
   D30       -0.54774  -0.00023   0.00000  -0.01471  -0.01472  -0.56246
   D31       -3.13847   0.00043   0.00000   0.01479   0.01503  -3.12344
   D32       -0.01254   0.00052   0.00000   0.01771   0.01791   0.00536
   D33       -0.00083  -0.00040   0.00000  -0.01273  -0.01271  -0.01354
   D34        3.12510  -0.00031   0.00000  -0.00980  -0.00984   3.11526
   D35        3.13935  -0.00091   0.00000  -0.02905  -0.02887   3.11048
   D36       -0.02893  -0.00060   0.00000  -0.01949  -0.01931  -0.04825
   D37        0.00176  -0.00009   0.00000  -0.00126  -0.00119   0.00057
   D38        3.11666   0.00023   0.00000   0.00831   0.00837   3.12503
   D39       -0.00012   0.00049   0.00000   0.01480   0.01481   0.01470
   D40        3.13887   0.00003   0.00000   0.00109   0.00109   3.13996
   D41       -3.12580   0.00038   0.00000   0.01172   0.01181  -3.11400
   D42        0.01318  -0.00008   0.00000  -0.00199  -0.00191   0.01127
   D43        0.00017  -0.00010   0.00000  -0.00272  -0.00276  -0.00260
   D44       -3.14128  -0.00025   0.00000  -0.00737  -0.00740   3.13451
   D45       -3.13882   0.00036   0.00000   0.01101   0.01104  -3.12777
   D46        0.00293   0.00021   0.00000   0.00636   0.00641   0.00934
   D47        0.00076  -0.00038   0.00000  -0.01119  -0.01120  -0.01044
   D48       -3.13763  -0.00003   0.00000  -0.00122  -0.00116  -3.13879
   D49       -3.14098  -0.00023   0.00000  -0.00654  -0.00657   3.13563
   D50        0.00381   0.00012   0.00000   0.00342   0.00347   0.00728
   D51       -0.00175   0.00047   0.00000   0.01316   0.01321   0.01146
   D52       -3.11643   0.00011   0.00000   0.00329   0.00342  -3.11301
   D53        3.13665   0.00013   0.00000   0.00321   0.00323   3.13988
   D54        0.02196  -0.00023   0.00000  -0.00666  -0.00656   0.01541
   D55        0.00033   0.00059   0.00000   0.01769   0.01769   0.01803
   D56        3.13928   0.00009   0.00000   0.00316   0.00309  -3.14082
   D57       -3.12314   0.00028   0.00000   0.00858   0.00872  -3.11441
   D58        0.01581  -0.00021   0.00000  -0.00595  -0.00588   0.00993
   D59        0.00035  -0.00012   0.00000  -0.00328  -0.00339  -0.00304
   D60       -3.14123  -0.00036   0.00000  -0.01068  -0.01074   3.13122
   D61       -3.13860   0.00037   0.00000   0.01124   0.01121  -3.12739
   D62        0.00300   0.00013   0.00000   0.00385   0.00387   0.00687
         Item               Value     Threshold  Converged?
 Maximum Force            0.020823     0.000450     NO 
 RMS     Force            0.005571     0.000300     NO 
 Maximum Displacement     0.162618     0.001800     NO 
 RMS     Displacement     0.046808     0.001200     NO 
 Predicted change in Energy=-5.707389D-03
 GradGradGradGradGradGradGradGradGradGradGradGradGradGradGradGradGradGrad

                          Input orientation:                          
 ---------------------------------------------------------------------
 Center     Atomic      Atomic             Coordinates (Angstroms)
 Number     Number       Type             X           Y           Z
 ---------------------------------------------------------------------
      1         17           0       -4.230227   -0.246767    1.193645
      2          6           0       -2.804854    0.054724    0.245050
      3          6           0       -1.562026    0.064033    0.876156
      4          6           0       -0.396701    0.300728    0.132700
      5          7           0        0.855259    0.338260    0.767147
      6          6           0        0.953755    0.930087    2.089759
      7          6           0        2.034800   -0.028927    0.091867
      8          6           0        2.058583   -1.154234   -0.750004
      9          6           0        3.232458   -1.526320   -1.398882
     10          6           0        4.410262   -0.799174   -1.211328
     11          6           0        4.396347    0.309621   -0.366154
     12          6           0        3.221020    0.698797    0.275916
     13          6           0       -0.516071    0.537563   -1.248481
     14          6           0       -1.764589    0.510800   -1.862382
     15          6           0       -2.924514    0.271469   -1.126428
     16          1           0       -1.513898   -0.133196    1.947418
     17          1           0        0.161324    0.550012    2.747766
     18          1           0        0.887548    2.032078    2.067536
     19          1           0        1.911280    0.641477    2.539016
     20          1           0        1.148325   -1.742714   -0.881427
     21          1           0        3.231423   -2.405008   -2.048026
     22          1           0        5.331717   -1.097399   -1.716727
     23          1           0        5.309623    0.889066   -0.212314
     24          1           0        3.220370    1.585170    0.913516
     25          1           0        0.378116    0.751470   -1.835827
     26          1           0       -1.839070    0.696122   -2.935770
     27          1           0       -3.908551    0.258290   -1.598641
 ---------------------------------------------------------------------
                    Distance matrix (angstroms):
                    1          2          3          4          5
     1  Cl   0.000000
     2  C    1.738510   0.000000
     3  C    2.704939   1.393917   0.000000
     4  C    4.015131   2.423292   1.402403   0.000000
     5  N    5.136762   3.708019   2.435230   1.404042   0.000000
     6  C    5.390888   4.277424   2.924386   2.459656   1.452330
     7  C    6.364899   4.842800   3.682514   2.454086   1.407887
     8  C    6.644577   5.109279   4.151793   2.987390   2.444846
     9  C    8.003132   6.453785   5.540045   4.342193   3.717447
    10  C    8.985939   7.409998   6.385212   5.111074   4.224472
    11  C    8.784095   7.231587   6.091458   4.818947   3.718131
    12  C    7.566862   6.060276   4.862174   3.642372   2.442974
    13  C    4.513768   2.775301   2.415022   1.406414   2.446022
    14  C    3.999072   2.394039   2.782126   2.428085   3.715884
    15  C    2.712230   1.393646   2.430997   2.824199   4.228093
    16  H    2.821262   2.144747   1.090330   2.174770   2.688534
    17  H    4.726084   3.912430   2.590180   2.685536   2.109321
    18  H    5.669959   4.567846   3.360505   2.896629   2.135667
    19  H    6.349576   5.277166   3.893892   3.351604   2.084861
    20  H    5.955888   4.486352   3.701275   2.755215   2.670980
    21  H    8.416808   6.909785   6.133854   5.023928   4.593133
    22  H   10.031182   8.448654   7.456250   6.179799   5.316900
    23  H    9.709561   8.170070   7.006069   5.746939   4.593919
    24  H    7.677621   6.252395   5.018622   3.916972   2.677679
    25  H    5.604552   3.866110   3.404640   2.163009   2.678410
    26  H    4.864025   3.385520   3.873896   3.413542   4.593372
    27  H    2.855770   2.158421   3.415924   3.915665   5.319514
                    6          7          8          9         10
     6  C    0.000000
     7  C    2.465753   0.000000
     8  C    3.691787   1.405571   0.000000
     9  C    4.837048   2.428766   1.391931   0.000000
    10  C    5.082810   2.816809   2.422659   1.396832   0.000000
    11  C    4.274100   2.429260   2.784843   2.406626   1.394252
    12  C    2.912732   1.403771   2.416091   2.785001   2.422831
    13  C    3.668557   2.936731   3.120817   4.281787   5.104606
    14  C    4.815040   4.306478   4.315828   5.416195   6.345761
    15  C    5.081201   5.115592   5.196689   6.419858   7.412990
    16  H    2.690751   4.005896   4.591430   5.972136   6.746619
    17  H    1.097897   3.301345   4.328792   5.562167   5.962231
    18  H    1.104202   3.076881   4.411626   5.493346   5.583588
    19  H    1.096349   2.540322   3.750191   4.685285   4.731328
    20  H    4.001208   2.161066   1.091857   2.158285   3.411647
    21  H    5.782032   3.414208   2.150547   1.092466   2.160654
    22  H    6.145452   3.909259   3.413384   2.166077   1.092450
    23  H    4.926947   3.414631   3.877299   3.399507   2.158016
    24  H    2.636328   2.164715   3.409015   3.876687   3.408210
    25  H    3.971585   2.658877   2.763094   3.677841   4.364939
    26  H    5.754177   4.969824   4.836640   5.746448   6.653101
    27  H    6.139839   6.185769   6.190484   7.363338   8.394694
                   11         12         13         14         15
    11  C    0.000000
    12  C    1.394671   0.000000
    13  C    4.996230   4.039262   0.000000
    14  C    6.343210   5.428072   1.391542   0.000000
    15  C    7.360332   6.317972   2.426170   1.394393   0.000000
    16  H    6.362366   5.089753   3.414579   3.871970   3.406189
    17  H    5.262101   3.936231   4.053271   4.996413   4.960782
    18  H    4.604496   3.229959   3.898678   4.979194   5.275695
    19  H    3.837408   2.615402   4.499774   5.735974   6.079251
    20  H    3.876498   3.405362   2.846859   3.811255   4.550272
    21  H    3.399258   3.877425   4.831326   5.787620   6.775577
    22  H    2.163023   3.413501   6.090073   7.277712   8.389732
    23  H    1.092472   2.153331   5.927555   7.273946   8.307710
    24  H    2.155807   1.091875   4.442151   5.806006   6.606571
    25  H    4.301320   3.541799   1.091010   2.156343   3.411893
    26  H    6.755201   5.993284   2.149980   1.091812   2.152263
    27  H    8.396011   7.385039   3.421918   2.174831   1.091553
                   16         17         18         19         20
    16  H    0.000000
    17  H    1.978307   0.000000
    18  H    3.235704   1.785114   0.000000
    19  H    3.561173   1.764735   1.789998   0.000000
    20  H    4.204800   4.404748   4.797233   4.238620   0.000000
    21  H    6.606268   6.415394   6.489941   5.662580   2.477678
    22  H    7.824199   7.026993   6.623059   5.730134   4.314503
    23  H    7.229793   5.948278   5.104796   4.379481   4.968942
    24  H    5.141501   3.714000   2.640748   2.290530   4.311613
    25  H    4.321493   4.593137   4.139532   4.637019   2.779398
    26  H    4.963772   6.027064   5.852546   6.636369   4.369528
    27  H    4.296762   5.961563   6.292038   7.151047   5.485472
                   21         22         23         24         25
    21  H    0.000000
    22  H    2.496164   0.000000
    23  H    4.305772   2.491945   0.000000
    24  H    4.969142   4.309540   2.473263   0.000000
    25  H    4.260252   5.288730   5.193697   4.041330   0.000000
    26  H    6.009576   7.491527   7.652337   6.419139   2.475652
    27  H    7.633763   9.339935   9.343153   7.674181   4.321458
                   26         27
    26  H    0.000000
    27  H    2.502471   0.000000
 Stoichiometry    C13H12ClN
 Framework group  C1[X(C13H12ClN)]
 Deg. of freedom    75
 Full point group                 C1      NOp   1
 Largest Abelian subgroup         C1      NOp   1
 Largest concise Abelian subgroup C1      NOp   1
                         Standard orientation:                         
 ---------------------------------------------------------------------
 Center     Atomic      Atomic             Coordinates (Angstroms)
 Number     Number       Type             X           Y           Z
 ---------------------------------------------------------------------
      1         17           0       -4.428972    0.451658    0.605038
      2          6           0       -2.902648   -0.163756    0.044662
      3          6           0       -1.759274    0.617723    0.202753
      4          6           0       -0.515349    0.142429   -0.237111
      5          7           0        0.635325    0.936094   -0.105275
      6          6           0        0.525479    2.369850   -0.309092
      7          6           0        1.911407    0.363029    0.053968
      8          6           0        2.100861   -0.741297    0.902613
      9          6           0        3.367954   -1.291396    1.073895
     10          6           0        4.474944   -0.745471    0.419922
     11          6           0        4.295555    0.358912   -0.412001
     12          6           0        3.027177    0.906986   -0.601580
     13          6           0       -0.455755   -1.124075   -0.845728
     14          6           0       -1.606316   -1.894762   -0.982256
     15          6           0       -2.843753   -1.426550   -0.541964
     16          1           0       -1.848878    1.589962    0.688078
     17          1           0       -0.331264    2.778329    0.242734
     18          1           0        0.413008    2.639697   -1.373890
     19          1           0        1.424841    2.856103    0.086745
     20          1           0        1.244687   -1.157572    1.437248
     21          1           0        3.495364   -2.148693    1.738944
     22          1           0        5.469314   -1.175200    0.561373
     23          1           0        5.152065    0.794483   -0.931775
     24          1           0        2.899327    1.755154   -1.277195
     25          1           0        0.499582   -1.496027   -1.218938
     26          1           0       -1.541961   -2.876057   -1.456568
     27          1           0       -3.752531   -2.020745   -0.653959
 ---------------------------------------------------------------------
 Rotational constants (GHZ):           1.4125017           0.2581790           0.2356835
 Standard basis: def2SVP (5D, 7F)
 There are   289 symmetry adapted cartesian basis functions of A   symmetry.
 There are   274 symmetry adapted basis functions of A   symmetry.
   274 basis functions,   471 primitive gaussians,   289 cartesian basis functions
    57 alpha electrons       57 beta electrons
       nuclear repulsion energy       994.7876518110 Hartrees.
 NAtoms=   27 NActive=   27 NUniq=   27 SFac= 1.00D+00 NAtFMM=   60 NAOKFM=F Big=F
 Integral buffers will be    131072 words long.
 Raffenetti 2 integral format.
 Two-electron integral symmetry is turned on.
 Nuclear repulsion after empirical dispersion term =      994.7698207770 Hartrees.
 One-electron integrals computed using PRISM.
   1 Symmetry operations used in ECPInt.
 ECPInt:  NShTT=    8256 NPrTT=   30622 LenC2=    7768 LenP2D=   20953.
 LDataN:  DoStor=T MaxTD1= 4 Len=   56
 NBasis=   274 RedAO= T EigKep=  2.58D-04  NBF=   274
 NBsUse=   274 1.00D-06 EigRej= -1.00D+00 NBFU=   274
 Initial guess from the checkpoint file:  "prod_5f_8.chk"
 B after Tr=     0.000000   -0.000000   -0.000000
         Rot=    0.999977    0.006569   -0.001141   -0.000820 Ang=   0.77 deg.
 ExpMin= 1.22D-01 ExpMax= 1.04D+04 ExpMxC= 1.57D+03 IAcc=3 IRadAn=         5 AccDes= 0.00D+00
 Harris functional with IExCor= 4639 and IRadAn=       5 diagonalized for initial guess.
 HarFok:  IExCor= 4639 AccDes= 0.00D+00 IRadAn=         5 IDoV= 1 UseB2=F ITyADJ=14
 ICtDFT=  3500011 ScaDFX=  1.000000  1.000000  1.000000  1.000000
 FoFCou: FMM=F IPFlag=           0 FMFlag=      100000 FMFlg1=           0
         NFxFlg=           0 DoJE=T BraDBF=F KetDBF=T FulRan=T
         wScrn=  0.000000 ICntrl=       500 IOpCl=  0 I1Cent=   200000004 NGrid=           0
         NMat0=    1 NMatS0=      1 NMatT0=    0 NMatD0=    1 NMtDS0=    0 NMtDT0=    0
 Petite list used in FoFCou.
 Requested convergence on RMS density matrix=1.00D-08 within 128 cycles.
 Requested convergence on MAX density matrix=1.00D-06.
 Requested convergence on             energy=1.00D-06.
 No special actions if energy rises.
 Integral accuracy reduced to 1.0D-05 until final iterations.
 Initial convergence to 1.0D-05 achieved.  Increase integral accuracy.
 SCF Done:  E(RwB97XD) =  -1016.82780925     A.U. after   14 cycles
            NFock= 14  Conv=0.44D-08     -V/T= 2.0072
   1 Symmetry operations used in ECPInt.
 ECPInt:  NShTT=    8256 NPrTT=   30622 LenC2=    7768 LenP2D=   20953.
 LDataN:  DoStor=T MaxTD1= 5 Len=  102
 Calling FoFJK, ICntrl=      2127 FMM=F ISym2X=0 I1Cent= 0 IOpClX= 0 NMat=1 NMatS=1 NMatT=0.
 ***** Axes restored to original set *****
 -------------------------------------------------------------------
 Center     Atomic                   Forces (Hartrees/Bohr)
 Number     Number              X              Y              Z
 -------------------------------------------------------------------
      1       17          -0.001790543   -0.000424951    0.001401349
      2        6           0.004773193    0.001002252   -0.003077796
      3        6          -0.003141844   -0.000868700    0.000316085
      4        6           0.002362145    0.001017450   -0.000063965
      5        7          -0.000384859   -0.001237638    0.002153785
      6        6           0.000765189   -0.002079284   -0.002567539
      7        6          -0.000667489    0.002073746    0.000429288
      8        6           0.001217149   -0.000415060   -0.000139532
      9        6          -0.000544514    0.001411645    0.000806360
     10        6          -0.000086209    0.000652684    0.000668304
     11        6          -0.000422445   -0.001366863   -0.000658202
     12        6           0.000103126   -0.000544154   -0.001144338
     13        6          -0.001550848   -0.000048889   -0.000896279
     14        6           0.001464618   -0.000508638    0.002049750
     15        6          -0.002186656   -0.000265608    0.000553804
     16        1          -0.000940152    0.000085087   -0.001229249
     17        1           0.000785638    0.000835690    0.000670921
     18        1          -0.000143870    0.000383062    0.000177213
     19        1           0.000083020    0.000202516    0.000970302
     20        1           0.000109508    0.000244563   -0.000333070
     21        1          -0.000261812   -0.000030641    0.000158681
     22        1          -0.000540936    0.000119128    0.000238792
     23        1          -0.000195764    0.000164540    0.000184744
     24        1           0.000493060   -0.000237891   -0.000598502
     25        1          -0.000309699   -0.000392370   -0.000031271
     26        1           0.000065609    0.000133282   -0.000159610
     27        1           0.000945386    0.000095041    0.000119977
 -------------------------------------------------------------------
 Cartesian Forces:  Max     0.004773193 RMS     0.001171894

 GradGradGradGradGradGradGradGradGradGradGradGradGradGradGradGradGradGrad
 Berny optimization.
 Using GEDIIS/GDIIS optimizer.
 FormGI is forming the generalized inverse of G from B-inverse, IUseBI=4.
 Internal  Forces:  Max     0.004066073 RMS     0.000923397
 Search for a local minimum.
 Step number   2 out of a maximum of  145
 All quantities printed in internal units (Hartrees-Bohrs-Radians)
 Mixed Optimization -- En-DIIS/RFO-DIIS
 Update second derivatives using D2CorX and points    1    2
 DE= -5.25D-03 DEPred=-5.71D-03 R= 9.19D-01
 TightC=F SS=  1.41D+00  RLast= 2.12D-01 DXNew= 5.0454D-01 6.3552D-01
 Trust test= 9.19D-01 RLast= 2.12D-01 DXMaxT set to 5.05D-01
 ITU=  1  0
 Use linear search instead of GDIIS.
[...]
 Alpha virt. eigenvalues --   22.68680  22.71282  22.77231  22.84863  22.86152
 Alpha virt. eigenvalues --   22.90387  22.95604  23.27739  23.33440  25.98663
 Alpha virt. eigenvalues --   33.15085
          Condensed to atoms (all electrons):
               1          2          3          4          5          6
     1  Cl  16.878519   0.281600  -0.048525   0.009315  -0.000308  -0.000303
     2  C    0.281600   4.909758   0.315369   0.064005  -0.000487  -0.001626
     3  C   -0.048525   0.315369   5.433471   0.309780  -0.091870  -0.003769
     4  C    0.009315   0.064005   0.309780   4.956765   0.437843  -0.082842
     5  N   -0.000308  -0.000487  -0.091870   0.437843   6.425352   0.310151
     6  C   -0.000303  -0.001626  -0.003769  -0.082842   0.310151   4.935698
     7  C   -0.000001  -0.000428   0.006557  -0.142677   0.243928  -0.073452
     8  C   -0.000002   0.000120   0.001020   0.024357  -0.050976  -0.003432
     9  C   -0.000000   0.000065  -0.000989  -0.003284   0.008831   0.000573
    10  C    0.000000  -0.000001   0.000076   0.001007   0.000934  -0.000156
    11  C    0.000000  -0.000010   0.000087  -0.000172   0.005770   0.000568
    12  C    0.000001   0.000022   0.000687  -0.009313  -0.039148  -0.008096
    13  C   -0.000096  -0.100149   0.055623   0.361998  -0.068214   0.013187
    14  C    0.013757   0.063168  -0.125953   0.016612   0.002034  -0.001195
    15  C   -0.038921   0.374377   0.072693  -0.109936   0.001527   0.000907
    16  H    0.006462  -0.037507   0.424069  -0.049804  -0.005154   0.005867
    17  H    0.000031  -0.000846   0.008592  -0.006576  -0.049922   0.407658
    18  H    0.000036   0.001672  -0.003391  -0.006367  -0.045420   0.414161
    19  H   -0.000003   0.000135   0.000349   0.007536  -0.026681   0.406517
    20  H   -0.000001  -0.000035   0.000736   0.001268  -0.003139   0.000152
    21  H   -0.000000   0.000000   0.000005   0.000049  -0.000224   0.000004
    22  H    0.000000  -0.000000   0.000000   0.000005   0.000012  -0.000002
    23  H   -0.000000   0.000000  -0.000003  -0.000025  -0.000256   0.000027
    24  H   -0.000000  -0.000002   0.000023   0.000778   0.005938  -0.001956
    25  H    0.000019  -0.001781   0.007946  -0.045069  -0.004555  -0.000275
    26  H   -0.000286   0.010451  -0.002328   0.012015  -0.000154   0.000013
    27  H    0.000950  -0.067053   0.019502  -0.004407   0.000040   0.000009
               7          8          9         10         11         12
     1  Cl  -0.000001  -0.000002  -0.000000   0.000000   0.000000   0.000001
     2  C   -0.000428   0.000120   0.000065  -0.000001  -0.000010   0.000022
     3  C    0.006557   0.001020  -0.000989   0.000076   0.000087   0.000687
     4  C   -0.142677   0.024357  -0.003284   0.001007  -0.000172  -0.009313
     5  N    0.243928  -0.050976   0.008831   0.000934   0.005770  -0.039148
     6  C   -0.073452  -0.003432   0.000573  -0.000156   0.000568  -0.008096
     7  C    5.078778   0.420051  -0.013779  -0.084415  -0.031091   0.468676
     8  C    0.420051   5.098535   0.406397   0.033598  -0.059345   0.024029
     9  C   -0.013779   0.406397   4.936975   0.431891  -0.001077  -0.056229
    10  C   -0.084415   0.033598   0.431891   4.948260   0.451247   0.012433
    11  C   -0.031091  -0.059345  -0.001077   0.451247   4.881269   0.456337
    12  C    0.468676   0.024029  -0.056229   0.012433   0.456337   5.027892
    13  C    0.005851  -0.002265  -0.002257   0.000387  -0.000122   0.004039
    14  C   -0.002704   0.002666   0.000097   0.000015  -0.000063   0.000099
    15  C    0.000289   0.000086  -0.000017   0.000001   0.000003   0.000049
    16  H   -0.000679   0.000128  -0.000008  -0.000001   0.000010  -0.000050
    17  H   -0.006076   0.002715  -0.000858   0.000052   0.000241   0.003295
    18  H    0.013635  -0.001033   0.000162  -0.000027  -0.000310  -0.000751
    19  H   -0.006641   0.000216   0.000476  -0.000136  -0.000331  -0.005078
    20  H   -0.042029   0.431614  -0.041228   0.007959  -0.002136   0.008544
    21  H    0.012873  -0.053972   0.440994  -0.056214   0.010400  -0.003339
    22  H   -0.003492   0.011369  -0.055033   0.442749  -0.054628   0.010724
    23  H    0.014601  -0.004379   0.011402  -0.057331   0.441839  -0.055063
    24  H   -0.052656   0.009222  -0.002923   0.008550  -0.035863   0.428624
    25  H    0.002699  -0.003696  -0.000441   0.000154   0.000237   0.000061
    26  H    0.000091  -0.000046   0.000012  -0.000004   0.000004  -0.000017
    27  H   -0.000000   0.000003  -0.000000   0.000000  -0.000000  -0.000000
              13         14         15         16         17         18
     1  Cl  -0.000096   0.013757  -0.038921   0.006462   0.000031   0.000036
     2  C   -0.100149   0.063168   0.374377  -0.037507  -0.000846   0.001672
     3  C    0.055623  -0.125953   0.072693   0.424069   0.008592  -0.003391
     4  C    0.361998   0.016612  -0.109936  -0.049804  -0.006576  -0.006367
     5  N   -0.068214   0.002034   0.001527  -0.005154  -0.049922  -0.045420
     6  C    0.013187  -0.001195   0.000907   0.005867   0.407658   0.414161
     7  C    0.005851  -0.002704   0.000289  -0.000679  -0.006076   0.013635
     8  C   -0.002265   0.002666   0.000086   0.000128   0.002715  -0.001033
     9  C   -0.002257   0.000097  -0.000017  -0.000008  -0.000858   0.000162
    10  C    0.000387   0.000015   0.000001  -0.000001   0.000052  -0.000027
    11  C   -0.000122  -0.000063   0.000003   0.000010   0.000241  -0.000310
    12  C    0.004039   0.000099   0.000049  -0.000050   0.003295  -0.000751
    13  C    5.129138   0.436310   0.039062   0.006768  -0.000326   0.000795
    14  C    0.436310   4.953498   0.382687  -0.003243  -0.000094   0.000011
    15  C    0.039062   0.382687   5.116196   0.012459   0.000070  -0.000280
    16  H    0.006768  -0.003243   0.012459   0.503185   0.002247  -0.006747
    17  H   -0.000326  -0.000094   0.000070   0.002247   0.578419  -0.046950
    18  H    0.000795   0.000011  -0.000280  -0.006747  -0.046950   0.552653
    19  H   -0.000490   0.000057  -0.000015   0.000397  -0.023740  -0.013372
    20  H   -0.000325   0.000156  -0.000006  -0.000007   0.000377  -0.000018
    21  H   -0.000089  -0.000012  -0.000001   0.000000   0.000003  -0.000001
    22  H    0.000000  -0.000000   0.000000   0.000000  -0.000000   0.000000
    23  H    0.000009   0.000000  -0.000000  -0.000000  -0.000008   0.000007
    24  H   -0.000158   0.000005   0.000002   0.000003   0.000519  -0.000710
    25  H    0.430556  -0.038636   0.007207  -0.000113   0.000019   0.000010
    26  H   -0.054255   0.438179  -0.055702   0.000042  -0.000000  -0.000000
    27  H    0.012385  -0.059494   0.445836  -0.000024   0.000000  -0.000001
              19         20         21         22         23         24
     1  Cl  -0.000003  -0.000001  -0.000000   0.000000  -0.000000  -0.000000
     2  C    0.000135  -0.000035   0.000000  -0.000000   0.000000  -0.000002
     3  C    0.000349   0.000736   0.000005   0.000000  -0.000003   0.000023
     4  C    0.007536   0.001268   0.000049   0.000005  -0.000025   0.000778
     5  N   -0.026681  -0.003139  -0.000224   0.000012  -0.000256   0.005938
     6  C    0.406517   0.000152   0.000004  -0.000002   0.000027  -0.001956
     7  C   -0.006641  -0.042029   0.012873  -0.003492   0.014601  -0.052656
     8  C    0.000216   0.431614  -0.053972   0.011369  -0.004379   0.009222
     9  C    0.000476  -0.041228   0.440994  -0.055033   0.011402  -0.002923
    10  C   -0.000136   0.007959  -0.056214   0.442749  -0.057331   0.008550
    11  C   -0.000331  -0.002136   0.010400  -0.054628   0.441839  -0.035863
    12  C   -0.005078   0.008544  -0.003339   0.010724  -0.055063   0.428624
    13  C   -0.000490  -0.000325  -0.000089   0.000000   0.000009  -0.000158
    14  C    0.000057   0.000156  -0.000012  -0.000000   0.000000   0.000005
    15  C   -0.000015  -0.000006  -0.000001   0.000000  -0.000000   0.000002
    16  H    0.000397  -0.000007   0.000000   0.000000  -0.000000   0.000003
    17  H   -0.023740   0.000377   0.000003  -0.000000  -0.000008   0.000519
    18  H   -0.013372  -0.000018  -0.000001   0.000000   0.000007  -0.000710
    19  H    0.511517  -0.000162   0.000002  -0.000001   0.000032  -0.002521
    20  H   -0.000162   0.498891  -0.006395  -0.000078   0.000017  -0.000142
    21  H    0.000002  -0.006395   0.537466  -0.006693  -0.000133   0.000031
    22  H   -0.000001  -0.000078  -0.006693   0.538116  -0.006755  -0.000084
    23  H    0.000032   0.000017  -0.000133  -0.006755   0.539964  -0.007104
    24  H   -0.002521  -0.000142   0.000031  -0.000084  -0.007104   0.509931
    25  H   -0.000020  -0.000693   0.000000   0.000003  -0.000007  -0.000034
    26  H   -0.000000  -0.000002   0.000001  -0.000000   0.000000  -0.000000
    27  H    0.000000   0.000001   0.000000   0.000000   0.000000   0.000000
              25         26         27
     1  Cl   0.000019  -0.000286   0.000950
     2  C   -0.001781   0.010451  -0.067053
     3  C    0.007946  -0.002328   0.019502
     4  C   -0.045069   0.012015  -0.004407
     5  N   -0.004555  -0.000154   0.000040
     6  C   -0.000275   0.000013   0.000009
     7  C    0.002699   0.000091  -0.000000
     8  C   -0.003696  -0.000046   0.000003
     9  C   -0.000441   0.000012  -0.000000
    10  C    0.000154  -0.000004   0.000000
    11  C    0.000237   0.000004  -0.000000
    12  C    0.000061  -0.000017  -0.000000
    13  C    0.430556  -0.054255   0.012385
    14  C   -0.038636   0.438179  -0.059494
    15  C    0.007207  -0.055702   0.445836
    16  H   -0.000113   0.000042  -0.000024
    17  H    0.000019  -0.000000   0.000000
    18  H    0.000010  -0.000000  -0.000001
    19  H   -0.000020  -0.000000   0.000000
    20  H   -0.000693  -0.000002   0.000001
    21  H    0.000000   0.000001   0.000000
    22  H    0.000003  -0.000000   0.000000
    23  H   -0.000007   0.000000   0.000000
    24  H   -0.000034  -0.000000   0.000000
    25  H    0.499928  -0.006647  -0.000083
    26  H   -0.006647   0.543229  -0.006648
    27  H   -0.000083  -0.006648   0.529934
 Mulliken charges:
               1
     1  Cl  -0.102246
     2  C    0.189185
     3  C   -0.379756
     4  C    0.257138
     5  N   -0.055851
     6  C   -0.318388
     7  C    0.192093
     8  C   -0.286979
     9  C   -0.059752
    10  C   -0.141028
    11  C   -0.062862
    12  C   -0.268430
    13  C   -0.267363
    14  C   -0.077955
    15  C   -0.248573
    16  H    0.141698
    17  H    0.131158
    18  H    0.142235
    19  H    0.151958
    20  H    0.146684
    21  H    0.125245
    22  H    0.123788
    23  H    0.123166
    24  H    0.140526
    25  H    0.153208
    26  H    0.122051
    27  H    0.129049
 Sum of Mulliken charges =  -0.00000
 Mulliken charges with hydrogens summed into heavy atoms:
               1
     1  Cl  -0.102246
     2  C    0.189185
     3  C   -0.238059
     4  C    0.257138
     5  N   -0.055851
     6  C    0.106963
     7  C    0.192093
     8  C   -0.140295
     9  C    0.065493
    10  C   -0.017240
    11  C    0.060304
    12  C   -0.127904
    13  C   -0.114154
    14  C    0.044096
    15  C   -0.119523
 Electronic spatial extent (au):  <R**2>=           4449.3952
 Charge=             -0.0000 electrons
 Dipole moment (field-independent basis, Debye):
    X=              3.0393    Y=              0.2951    Z=             -0.1126  Tot=              3.0557
 Quadrupole moment (field-independent basis, Debye-Ang):
   XX=            -96.7108   YY=            -87.6495   ZZ=            -95.3780
   XY=              1.0544   XZ=             -0.5047   YZ=             -1.6209
 Traceless Quadrupole moment (field-independent basis, Debye-Ang):
   XX=             -3.4647   YY=              5.5966   ZZ=             -2.1319
   XY=              1.0544   XZ=             -0.5047   YZ=             -1.6209
 Octapole moment (field-independent basis, Debye-Ang**2):
  XXX=             54.0313  YYY=              6.7543  ZZZ=              5.6221  XYY=            -13.0618
  XXY=            -16.8432  XXZ=             -9.2974  XZZ=              4.4296  YZZ=              2.1109
  YYZ=             -2.9103  XYZ=            -14.7871
 Hexadecapole moment (field-independent basis, Debye-Ang**3):
 XXXX=          -4711.4006 YYYY=           -819.2664 ZZZZ=           -341.8619 XXXY=            -39.5514
 XXXZ=            -43.1463 YYYX=             14.4002 YYYZ=             10.8422 ZZZX=            -15.3511
 ZZZY=            -18.7160 XXYY=           -929.9519 XXZZ=           -863.6701 YYZZ=           -194.7893
 XXYZ=            -37.2856 YYXZ=              9.3279 ZZXY=            -11.9599
 N-N= 9.952377224299D+02 E-N=-4.378151957078D+03  KE= 1.013778143307D+03
 Breneman (CHELPG) radii used.
 Read replacement radii for each type of atom:
 Atom Element Radius
    1    17    2.00
    2     6    1.50
    3     6    1.50
    4     6    1.50
    5     7    1.70
    6     6    1.50
    7     6    1.50
    8     6    1.50
    9     6    1.50
   10     6    1.50
   11     6    1.50
   12     6    1.50
   13     6    1.50
   14     6    1.50
   15     6    1.50
   16     1    1.45
   17     1    1.45
   18     1    1.45
   19     1    1.45
   20     1    1.45
   21     1    1.45
   22     1    1.45
   23     1    1.45
   24     1    1.45
   25     1    1.45
   26     1    1.45
   27     1    1.45
 Generate Potential Derived Charges using the Breneman model, NDens= 1.
 Grid spacing= 0.300 Box extension= 2.800
 NStep X,Y,Z=   52     40     33   Total possible points=       68640
 Number of Points to Fit=   16873

 **********************************************************************

            Electrostatic Properties Using The SCF Density.

 **********************************************************************

       Atomic Center    1 is at  -4.470235  0.484981  0.365343
       Atomic Center    2 is at  -2.904224 -0.193828 -0.003294
       Atomic Center    3 is at  -1.785982  0.632655  0.085173
       Atomic Center    4 is at  -0.508298  0.119188 -0.202929
       Atomic Center    5 is at   0.614546  0.935814 -0.154437
       Atomic Center    6 is at   0.460693  2.362316  0.036880
       Atomic Center    7 is at   1.914289  0.382970 -0.004050
       Atomic Center    8 is at   2.208440 -0.479615  1.059254
       Atomic Center    9 is at   3.490964 -1.001075  1.205989
       Atomic Center   10 is at   4.499964 -0.653008  0.307557
       Atomic Center   11 is at   4.214183  0.213123 -0.746592
       Atomic Center   12 is at   2.926444  0.720528 -0.908679
       Atomic Center   13 is at  -0.406544 -1.237142 -0.579689
       Atomic Center   14 is at  -1.538518 -2.035862 -0.650726
       Atomic Center   15 is at  -2.808778 -1.531941 -0.365091
       Atomic Center   16 is at  -1.928031  1.668208  0.388073
       Atomic Center   17 is at   0.088725  2.615145  1.047594
       Atomic Center   18 is at  -0.235273  2.787788 -0.703210
       Atomic Center   19 is at   1.434820  2.849156 -0.091171
       Atomic Center   20 is at   1.418478 -0.742954  1.765859
       Atomic Center   21 is at   3.707155 -1.675260  2.037685
       Atomic Center   22 is at   5.506872 -1.057497  0.428833
       Atomic Center   23 is at   4.995778  0.485864 -1.459061
       Atomic Center   24 is at   2.692049  1.380042 -1.747213
       Atomic Center   25 is at   0.568343 -1.657890 -0.826749
       Atomic Center   26 is at  -1.432576 -3.081560 -0.948167
       Atomic Center   27 is at  -3.699964 -2.156260 -0.425062
   16873 points will be used for fitting atomic charges
 Fitting point charges to electrostatic potential
 Charges from ESP fit, RMS=   0.00394 RRMS=   0.38458:
 ESP charges:
               1
     1  Cl  -0.148055
     2  C    0.138170
     3  C   -0.243308
     4  C    0.359126
     5  N   -0.418771
     6  C    0.041228
     7  C    0.361571
     8  C   -0.140719
     9  C   -0.101360
    10  C   -0.129013
    11  C   -0.071168
    12  C   -0.226996
    13  C   -0.241869
    14  C   -0.064412
    15  C   -0.175528
    16  H    0.119811
    17  H    0.030997
    18  H    0.045514
    19  H    0.031144
    20  H    0.083367
    21  H    0.107143
    22  H    0.103020
    23  H    0.098570
    24  H    0.131710
    25  H    0.087671
    26  H    0.110763
    27  H    0.111394
 Sum of ESP charges =   0.00000
 ESP charges with hydrogens summed into heavy atoms:
               1
     1  Cl  -0.148055
     2  C    0.138170
     3  C   -0.123496
     4  C    0.359126
     5  N   -0.418771
     6  C    0.148883
     7  C    0.361571
     8  C   -0.057352
     9  C    0.005783
    10  C   -0.025993
    11  C    0.027402
    12  C   -0.095287
    13  C   -0.154198
    14  C    0.046351
    15  C   -0.064134
 Charge=   0.00000 Dipole=     3.1794     0.2736    -0.1621 Tot=     3.1952
 -----------------------------------------------------------------

              Electrostatic Properties (Atomic Units)

 -----------------------------------------------------------------
    Center     Electric         -------- Electric Field --------
               Potential          X             Y             Z
 -----------------------------------------------------------------
    1 Atom    -64.439935
    2 Atom    -14.709374
    3 Atom    -14.766257
    4 Atom    -14.715673
    5 Atom    -18.351602
    6 Atom    -14.729367
    7 Atom    -14.720049
    8 Atom    -14.761809
    9 Atom    -14.759209
   10 Atom    -14.761628
   11 Atom    -14.758640
   12 Atom    -14.760854
   13 Atom    -14.771525
   14 Atom    -14.763090
   15 Atom    -14.771441
   16 Atom     -1.095885
   17 Atom     -1.108221
   18 Atom     -1.104536
   19 Atom     -1.097811
   20 Atom     -1.096858
   21 Atom     -1.098960
   22 Atom     -1.099818
   23 Atom     -1.098119
   24 Atom     -1.094501
   25 Atom     -1.105066
   26 Atom     -1.104144
   27 Atom     -1.103102
 -----------------------------------------------------------------
 Unable to Open any file for archive entry.
 1\1\GINC-NOTCH130\SP\RwB97XD\def2TZVP\C13H12Cl1N1\U1366379\17-Feb-2026
 \0\\#N Guess=Read Geom=Check Integral(Ultrafine) Density Pop=(ChelpG,R
 eadRadii) NMR wB97XD def2TZVP\\prod_5f_8\\0,1\Cl,0,-4.2574443454,0.251
 0678305,1.1765212658\C,0,-2.8016050025,0.3354951263,0.2160698881\C,0,-
 1.5724738976,0.3110955318,0.8718182689\C,0,-0.378949896,0.3755782143,0
 .1298819517\N,0,0.8554871573,0.3878409701,0.7670813919\C,0,0.921377091
 9,0.4963649768,2.2089766425\C,0,2.0386387515,0.0145198542,0.0754403238
 \C,0,2.1276083908,-1.2201840096,-0.5793750191\C,0,3.2990417784,-1.5821
 92978,-1.2389303437\C,0,4.401875445,-0.7276986588,-1.2361580349\C,0,4.
 3211826534,0.4980121649,-0.577214404\C,0,3.1432608589,0.8727062521,0.0
 662979334\C,0,-0.4740121572,0.4666308508,-1.2753247803\C,0,-1.71324828
 92,0.4807327672,-1.8985923633\C,0,-2.9008420351,0.4161036972,-1.167479
 2798\H,0,-1.5642042349,0.2325120876,1.9572001086\H,0,0.5359621284,-0.4
 067844834,2.7184893223\H,0,0.3473943241,1.3656489644,2.566772466\H,0,1
 .9667863522,0.6293550717,2.5119072\H,0,1.265464444,-1.8905053404,-0.57
 2007881\H,0,3.3550299277,-2.5465994269,-1.7486055455\H,0,5.3219962372,
 -1.0168733065,-1.7479581569\H,0,5.1769361243,1.1766679698,-0.575499658
 3\H,0,3.0673860235,1.842539055,0.5629944755\H,0,0.4336169153,0.5367045
 881,-1.8751335989\H,0,-1.7590412008,0.5552497346,-2.9874125757\H,0,-3.
 8755135451,0.4320424962,-1.6546595972\\Version=ES64L-G16RevC.01\State=
 1-A\HF=-1017.571799\RMSD=1.286e-09\Dipole=1.1994148,-0.0419291,-0.0702
 788\Quadrupole=-2.0853409,-0.9996373,3.0849782,0.9725029,1.7091422,2.0
 343234\PG=C01 [X(C13H12Cl1N1)]\\@
 The archive entry for this job was punched.


 Mondays are the potholes in the road of life.
                                -- Tom Wilson
 Job cpu time:       0 days  2 hours 13 minutes  0.6 seconds.
 Elapsed time:       0 days  0 hours 16 minutes 58.3 seconds.
 File lengths (MBytes):  RWF=    183 Int=      0 D2E=      0 Chk=     28 Scr=      2
 Normal termination of Gaussian 16 at Tue Feb 17 17:30:58 2026.
