 Entering Gaussian System, Link 0=g16
 Input=prod_5e_3.com
 Output=prod_5e_3.log
 Initial command:
 /uufs/chpc.utah.edu/sys/installdir/gaussian16/C01/AVX/g16/l1.exe "/scratch/general/vast/u1366379/GAUSSSCRDIR/11028648-notchpeak.peaks/Gau-1651766.inp" -scrdir="/scratch/general/vast/u1366379/GAUSSSCRDIR/11028648-notchpeak.peaks/"
 Entering Link 1 = /uufs/chpc.utah.edu/sys/installdir/gaussian16/C01/AVX/g16/l1.exe PID=   1651771.
  
 Copyright (c) 1988-2019, Gaussian, Inc.  All Rights Reserved.
  
 This is part of the Gaussian(R) 16 program.  It is based on
 the Gaussian(R) 09 system (copyright 2009, Gaussian, Inc.),
 the Gaussian(R) 03 system (copyright 2003, Gaussian, Inc.),
 the Gaussian(R) 98 system (copyright 1998, Gaussian, Inc.),
 the Gaussian(R) 94 system (copyright 1995, Gaussian, Inc.),
 the Gaussian 92(TM) system (copyright 1992, Gaussian, Inc.),
 the Gaussian 90(TM) system (copyright 1990, Gaussian, Inc.),
 the Gaussian 88(TM) system (copyright 1988, Gaussian, Inc.),
 the Gaussian 86(TM) system (copyright 1986, Carnegie Mellon
 University), and the Gaussian 82(TM) system (copyright 1983,
 Carnegie Mellon University). Gaussian is a federally registered
 trademark of Gaussian, Inc.
  
 This software contains proprietary and confidential information,
 including trade secrets, belonging to Gaussian, Inc.
  
 This software is provided under written license and may be
 used, copied, transmitted, or stored only in accord with that
 written license.
  
 The following legend is applicable only to US Government
 contracts under FAR:
  
                    RESTRICTED RIGHTS LEGEND
  
 Use, reproduction and disclosure by the US Government is
 subject to restrictions as set forth in subparagraphs (a)
 and (c) of the Commercial Computer Software - Restricted
 Rights clause in FAR 52.227-19.
  
 Gaussian, Inc.
 340 Quinnipiac St., Bldg. 40, Wallingford CT 06492
  
  
 ---------------------------------------------------------------
 Warning -- This program may not be used in any manner that
 competes with the business of Gaussian, Inc. or will provide
 assistance to any competitor of Gaussian, Inc.  The licensee
 of this program is prohibited from giving any competitor of
 Gaussian, Inc. access to this program.  By using this program,
 the user acknowledges that Gaussian, Inc. is engaged in the
 business of creating and licensing software in the field of
 computational chemistry and represents and warrants to the
 licensee that it is not a competitor of Gaussian, Inc. and that
 it will not use this program in any manner prohibited above.
 ---------------------------------------------------------------
  

 Cite this work as:
 Gaussian 16, Revision C.01,
 M. J. Frisch, G. W. Trucks, H. B. Schlegel, G. E. Scuseria, 
 M. A. Robb, J. R. Cheeseman, G. Scalmani, V. Barone, 
 G. A. Petersson, H. Nakatsuji, X. Li, M. Caricato, A. V. Marenich, 
 J. Bloino, B. G. Janesko, R. Gomperts, B. Mennucci, H. P. Hratchian, 
 J. V. Ortiz, A. F. Izmaylov, J. L. Sonnenberg, D. Williams-Young, 
 F. Ding, F. Lipparini, F. Egidi, J. Goings, B. Peng, A. Petrone, 
 T. Henderson, D. Ranasinghe, V. G. Zakrzewski, J. Gao, N. Rega, 
 G. Zheng, W. Liang, M. Hada, M. Ehara, K. Toyota, R. Fukuda, 
 J. Hasegawa, M. Ishida, T. Nakajima, Y. Honda, O. Kitao, H. Nakai, 
 T. Vreven, K. Throssell, J. A. Montgomery, Jr., J. E. Peralta, 
 F. Ogliaro, M. J. Bearpark, J. J. Heyd, E. N. Brothers, K. N. Kudin, 
 V. N. Staroverov, T. A. Keith, R. Kobayashi, J. Normand, 
 K. Raghavachari, A. P. Rendell, J. C. Burant, S. S. Iyengar, 
 J. Tomasi, M. Cossi, J. M. Millam, M. Klene, C. Adamo, R. Cammi, 
 J. W. Ochterski, R. L. Martin, K. Morokuma, O. Farkas, 
 J. B. Foresman, and D. J. Fox, Gaussian, Inc., Wallingford CT, 2019.
 
 ******************************************
 Gaussian 16:  ES64L-G16RevC.01  3-Jul-2019
                17-Feb-2026 
 ******************************************
 %NProcShared=8
 Will use up to    8 processors via shared memory.
 %Mem=8GB
 %chk=prod_5e_3.chk
 ------------------------------------------------------
 #N OPT FREQ=NORAMAN Integral(Ultrafine) wB97XD def2SVP
 ------------------------------------------------------
 1/18=20,19=15,26=4,38=1/1,3;
 2/9=110,12=2,17=6,18=5,40=1/2;
 3/5=43,7=101,11=2,25=1,30=1,71=1,74=-58,75=-5/1,2,3;
 4//1;
 5/5=2,38=5/2;
 6/7=2,8=2,9=2,10=2,28=1/1;
 7//1,2,3,16;
 1/18=20,19=15,26=4/3(2);
 2/9=110/2;
 99//99;
 2/9=110/2;
 3/5=43,7=101,11=2,25=1,30=1,71=1,74=-58,75=-5/1,2,3;
 4/5=5,16=3,69=1/1;
 5/5=2,38=5/2;
 7//1,2,3,16;
 1/18=20,19=15,26=4/3(-5);
 2/9=110/2;
 6/7=2,8=2,9=2,10=2,19=2,28=1/1;
 99/9=1/99;
 ---------
 prod_5e_3
 ---------
 Symbolic Z-matrix:
 Charge =  0 Multiplicity = 1
 C                     5.01506  -0.65577   1.16289 
 O                     4.34967  -0.73575  -0.07387 
 C                     3.03064  -0.24981  -0.0657 
 C                     2.32386  -0.28688  -1.26916 
 C                     1.02989   0.16773  -1.34895 
 C                     2.38239   0.26449   1.05921 
 C                     1.0876    0.71982   0.97975 
 C                     0.39043   0.67924  -0.22407 
 N                    -0.97518   1.14071  -0.29964 
 C                    -1.20289   2.55489  -0.58201 
 C                    -2.06915   0.2571   -0.10912 
 C                    -3.39111   0.69649  -0.18407 
 C                    -4.43581  -0.17993   0.00765 
 C                    -4.18601  -1.51144   0.27782 
 C                    -2.88357  -1.96442   0.3554 
 C                    -1.83744  -1.0908    0.16413 
 H                     6.02522  -1.04742   1.03935 
 H                     5.07637   0.38418   1.48561 
 H                     4.49135  -1.25754   1.90645 
 H                     2.82033  -0.68265  -2.13727 
 H                     0.49157   0.13259  -2.27991 
 H                     2.899     0.30474   2.00067 
 H                     0.59029   1.11141   1.84997 
 H                    -1.74749   3.01992   0.23749 
 H                    -0.25107   3.06986  -0.69898 
 H                    -1.77041   2.66825  -1.50372 
 H                    -3.59463   1.73136  -0.39385 
 H                    -5.45215   0.17382  -0.05317 
 H                    -5.00542  -2.19524   0.42754 
 H                    -2.68637  -3.00298   0.56563 
 H                    -0.82255  -1.44185   0.22417 
 

 GradGradGradGradGradGradGradGradGradGradGradGradGradGradGradGradGradGrad
 Berny optimization.
 Initialization pass.
                           ----------------------------
                           !    Initial Parameters    !
                           ! (Angstroms and Degrees)  !
 --------------------------                            --------------------------
 ! Name  Definition              Value          Derivative Info.                !
 --------------------------------------------------------------------------------
 ! R1    R(1,2)                  1.4067         estimate D2E/DX2                !
 ! R2    R(1,17)                 1.0904         estimate D2E/DX2                !
 ! R3    R(1,18)                 1.0906         estimate D2E/DX2                !
 ! R4    R(1,19)                 1.0905         estimate D2E/DX2                !
 ! R5    R(2,3)                  1.4057         estimate D2E/DX2                !
 ! R6    R(3,4)                  1.3961         estimate D2E/DX2                !
 ! R7    R(3,6)                  1.3965         estimate D2E/DX2                !
 ! R8    R(4,5)                  1.3738         estimate D2E/DX2                !
 ! R9    R(4,20)                 1.0755         estimate D2E/DX2                !
 ! R10   R(5,8)                  1.3914         estimate D2E/DX2                !
 ! R11   R(5,21)                 1.076          estimate D2E/DX2                !
 ! R12   R(6,7)                  1.3748         estimate D2E/DX2                !
 ! R13   R(6,22)                 1.0746         estimate D2E/DX2                !
 ! R14   R(7,8)                  1.3917         estimate D2E/DX2                !
 ! R15   R(7,23)                 1.0761         estimate D2E/DX2                !
 ! R16   R(8,9)                  1.4435         estimate D2E/DX2                !
 ! R17   R(9,10)                 1.46           estimate D2E/DX2                !
 ! R18   R(9,11)                 1.4191         estimate D2E/DX2                !
 ! R19   R(10,24)                1.0883         estimate D2E/DX2                !
 ! R20   R(10,25)                1.0885         estimate D2E/DX2                !
 ! R21   R(10,26)                1.0883         estimate D2E/DX2                !
 ! R22   R(11,12)                1.3951         estimate D2E/DX2                !
 ! R23   R(11,16)                1.3947         estimate D2E/DX2                !
 ! R24   R(12,13)                1.377          estimate D2E/DX2                !
 ! R25   R(12,27)                1.0754         estimate D2E/DX2                !
 ! R26   R(13,14)                1.3814         estimate D2E/DX2                !
 ! R27   R(13,28)                1.0779         estimate D2E/DX2                !
 ! R28   R(14,15)                1.3811         estimate D2E/DX2                !
 ! R29   R(14,29)                1.0777         estimate D2E/DX2                !
 ! R30   R(15,16)                1.3763         estimate D2E/DX2                !
 ! R31   R(15,30)                1.0778         estimate D2E/DX2                !
 ! R32   R(16,31)                1.0756         estimate D2E/DX2                !
 ! A1    A(2,1,17)             108.5522         estimate D2E/DX2                !
 ! A2    A(2,1,18)             109.9365         estimate D2E/DX2                !
 ! A3    A(2,1,19)             109.9338         estimate D2E/DX2                !
 ! A4    A(17,1,18)            108.9009         estimate D2E/DX2                !
 ! A5    A(17,1,19)            108.9006         estimate D2E/DX2                !
 ! A6    A(18,1,19)            110.5741         estimate D2E/DX2                !
 ! A7    A(1,2,3)              114.7771         estimate D2E/DX2                !
 ! A8    A(2,3,4)              117.4406         estimate D2E/DX2                !
 ! A9    A(2,3,6)              124.5809         estimate D2E/DX2                !
 ! A10   A(4,3,6)              117.9785         estimate D2E/DX2                !
 ! A11   A(3,4,5)              121.204          estimate D2E/DX2                !
 ! A12   A(3,4,20)             118.1541         estimate D2E/DX2                !
 ! A13   A(5,4,20)             120.6418         estimate D2E/DX2                !
 ! A14   A(4,5,8)              120.5023         estimate D2E/DX2                !
 ! A15   A(4,5,21)             120.7088         estimate D2E/DX2                !
 ! A16   A(8,5,21)             118.7886         estimate D2E/DX2                !
 ! A17   A(3,6,7)              120.837          estimate D2E/DX2                !
 ! A18   A(3,6,22)             119.7582         estimate D2E/DX2                !
 ! A19   A(7,6,22)             119.4047         estimate D2E/DX2                !
 ! A20   A(6,7,8)              120.8051         estimate D2E/DX2                !
 ! A21   A(6,7,23)             120.5994         estimate D2E/DX2                !
 ! A22   A(8,7,23)             118.5949         estimate D2E/DX2                !
 ! A23   A(5,8,7)              118.6729         estimate D2E/DX2                !
 ! A24   A(5,8,9)              120.6645         estimate D2E/DX2                !
 ! A25   A(7,8,9)              120.6566         estimate D2E/DX2                !
 ! A26   A(8,9,10)             117.8629         estimate D2E/DX2                !
 ! A27   A(8,9,11)             121.549          estimate D2E/DX2                !
 ! A28   A(10,9,11)            120.588          estimate D2E/DX2                !
 ! A29   A(9,10,24)            110.2616         estimate D2E/DX2                !
 ! A30   A(9,10,25)            110.0392         estimate D2E/DX2                !
 ! A31   A(9,10,26)            110.2442         estimate D2E/DX2                !
 ! A32   A(24,10,25)           108.4415         estimate D2E/DX2                !
 ! A33   A(24,10,26)           109.4064         estimate D2E/DX2                !
 ! A34   A(25,10,26)           108.4026         estimate D2E/DX2                !
 ! A35   A(9,11,12)            121.814          estimate D2E/DX2                !
 ! A36   A(9,11,16)            119.9995         estimate D2E/DX2                !
 ! A37   A(12,11,16)           118.1864         estimate D2E/DX2                !
 ! A38   A(11,12,13)           120.7273         estimate D2E/DX2                !
 ! A39   A(11,12,27)           119.5326         estimate D2E/DX2                !
 ! A40   A(13,12,27)           119.7401         estimate D2E/DX2                !
 ! A41   A(12,13,14)           120.2317         estimate D2E/DX2                !
 ! A42   A(12,13,28)           119.9083         estimate D2E/DX2                !
 ! A43   A(14,13,28)           119.86           estimate D2E/DX2                !
 ! A44   A(13,14,15)           119.8437         estimate D2E/DX2                !
 ! A45   A(13,14,29)           120.0833         estimate D2E/DX2                !
 ! A46   A(15,14,29)           120.073          estimate D2E/DX2                !
 ! A47   A(14,15,16)           120.0529         estimate D2E/DX2                !
 ! A48   A(14,15,30)           119.9683         estimate D2E/DX2                !
 ! A49   A(16,15,30)           119.9788         estimate D2E/DX2                !
 ! A50   A(11,16,15)           120.958          estimate D2E/DX2                !
 ! A51   A(11,16,31)           118.8903         estimate D2E/DX2                !
 ! A52   A(15,16,31)           120.1517         estimate D2E/DX2                !
 ! D1    D(17,1,2,3)          -179.4326         estimate D2E/DX2                !
 ! D2    D(18,1,2,3)           -60.4071         estimate D2E/DX2                !
 ! D3    D(19,1,2,3)            61.5437         estimate D2E/DX2                !
 ! D4    D(1,2,3,4)            179.1988         estimate D2E/DX2                !
 ! D5    D(1,2,3,6)             -0.8268         estimate D2E/DX2                !
 ! D6    D(2,3,4,5)            179.9789         estimate D2E/DX2                !
 ! D7    D(2,3,4,20)            -0.0091         estimate D2E/DX2                !
 ! D8    D(6,3,4,5)              0.0027         estimate D2E/DX2                !
 ! D9    D(6,3,4,20)          -179.9852         estimate D2E/DX2                !
 ! D10   D(2,3,6,7)           -179.992          estimate D2E/DX2                !
 ! D11   D(2,3,6,22)            -0.0896         estimate D2E/DX2                !
 ! D12   D(4,3,6,7)             -0.0177         estimate D2E/DX2                !
 ! D13   D(4,3,6,22)           179.8847         estimate D2E/DX2                !
 ! D14   D(3,4,5,8)              0.0164         estimate D2E/DX2                !
 ! D15   D(3,4,5,21)          -179.8087         estimate D2E/DX2                !
 ! D16   D(20,4,5,8)          -179.996          estimate D2E/DX2                !
 ! D17   D(20,4,5,21)            0.1789         estimate D2E/DX2                !
 ! D18   D(4,5,8,7)             -0.0204         estimate D2E/DX2                !
 ! D19   D(4,5,8,9)           -179.1372         estimate D2E/DX2                !
 ! D20   D(21,5,8,7)           179.808          estimate D2E/DX2                !
 ! D21   D(21,5,8,9)             0.6912         estimate D2E/DX2                !
 ! D22   D(3,6,7,8)              0.0138         estimate D2E/DX2                !
 ! D23   D(3,6,7,23)           179.7319         estimate D2E/DX2                !
 ! D24   D(22,6,7,8)          -179.889          estimate D2E/DX2                !
 ! D25   D(22,6,7,23)           -0.1709         estimate D2E/DX2                !
 ! D26   D(6,7,8,5)              0.0054         estimate D2E/DX2                !
 ! D27   D(6,7,8,9)            179.1224         estimate D2E/DX2                !
 ! D28   D(23,7,8,5)          -179.7182         estimate D2E/DX2                !
 ! D29   D(23,7,8,9)            -0.6013         estimate D2E/DX2                !
 ! D30   D(5,8,9,10)           -92.4918         estimate D2E/DX2                !
 ! D31   D(5,8,9,11)            87.4257         estimate D2E/DX2                !
 ! D32   D(7,8,9,10)            88.4089         estimate D2E/DX2                !
 ! D33   D(7,8,9,11)           -91.6736         estimate D2E/DX2                !
 ! D34   D(8,9,10,24)         -119.5284         estimate D2E/DX2                !
 ! D35   D(8,9,10,25)            0.0476         estimate D2E/DX2                !
 ! D36   D(8,9,10,26)          119.5645         estimate D2E/DX2                !
 ! D37   D(11,9,10,24)          60.5532         estimate D2E/DX2                !
 ! D38   D(11,9,10,25)        -179.8708         estimate D2E/DX2                !
 ! D39   D(11,9,10,26)         -60.3538         estimate D2E/DX2                !
 ! D40   D(8,9,11,12)         -179.8453         estimate D2E/DX2                !
 ! D41   D(8,9,11,16)            0.2838         estimate D2E/DX2                !
 ! D42   D(10,9,11,12)           0.0699         estimate D2E/DX2                !
 ! D43   D(10,9,11,16)        -179.8009         estimate D2E/DX2                !
 ! D44   D(9,11,12,13)        -179.8492         estimate D2E/DX2                !
 ! D45   D(9,11,12,27)           0.1436         estimate D2E/DX2                !
 ! D46   D(16,11,12,13)          0.0239         estimate D2E/DX2                !
 ! D47   D(16,11,12,27)       -179.9833         estimate D2E/DX2                !
 ! D48   D(9,11,16,15)         179.8465         estimate D2E/DX2                !
 ! D49   D(9,11,16,31)          -0.1429         estimate D2E/DX2                !
 ! D50   D(12,11,16,15)         -0.0291         estimate D2E/DX2                !
 ! D51   D(12,11,16,31)        179.9816         estimate D2E/DX2                !
 ! D52   D(11,12,13,14)         -0.0016         estimate D2E/DX2                !
 ! D53   D(11,12,13,28)        179.9957         estimate D2E/DX2                !
 ! D54   D(27,12,13,14)       -179.9944         estimate D2E/DX2                !
 ! D55   D(27,12,13,28)          0.0029         estimate D2E/DX2                !
 ! D56   D(12,13,14,15)         -0.0162         estimate D2E/DX2                !
 ! D57   D(12,13,14,29)        179.9948         estimate D2E/DX2                !
 ! D58   D(28,13,14,15)        179.9865         estimate D2E/DX2                !
 ! D59   D(28,13,14,29)         -0.0025         estimate D2E/DX2                !
 ! D60   D(13,14,15,16)          0.0111         estimate D2E/DX2                !
 ! D61   D(13,14,15,30)       -179.9717         estimate D2E/DX2                !
 ! D62   D(29,14,15,16)       -179.9999         estimate D2E/DX2                !
 ! D63   D(29,14,15,30)          0.0173         estimate D2E/DX2                !
 ! D64   D(14,15,16,11)          0.0119         estimate D2E/DX2                !
 ! D65   D(14,15,16,31)       -179.9989         estimate D2E/DX2                !
 ! D66   D(30,15,16,11)        179.9947         estimate D2E/DX2                !
 ! D67   D(30,15,16,31)         -0.0161         estimate D2E/DX2                !
 --------------------------------------------------------------------------------
 Trust Radius=3.00D-01 FncErr=1.00D-07 GrdErr=1.00D-06 EigMax=2.50D+02 EigMin=1.00D-04
 Number of steps in this run=    161 maximum allowed number of steps=    186.
 GradGradGradGradGradGradGradGradGradGradGradGradGradGradGradGradGradGrad

                          Input orientation:                          
 ---------------------------------------------------------------------
 Center     Atomic      Atomic             Coordinates (Angstroms)
 Number     Number       Type             X           Y           Z
 ---------------------------------------------------------------------
      1          6           0        5.015060   -0.655770    1.162890
      2          8           0        4.349670   -0.735750   -0.073870
      3          6           0        3.030640   -0.249810   -0.065700
      4          6           0        2.323860   -0.286880   -1.269160
      5          6           0        1.029890    0.167730   -1.348950
      6          6           0        2.382390    0.264490    1.059210
      7          6           0        1.087600    0.719820    0.979750
      8          6           0        0.390430    0.679240   -0.224070
      9          7           0       -0.975180    1.140710   -0.299640
     10          6           0       -1.202890    2.554890   -0.582010
     11          6           0       -2.069150    0.257100   -0.109120
     12          6           0       -3.391110    0.696490   -0.184070
     13          6           0       -4.435810   -0.179930    0.007650
     14          6           0       -4.186010   -1.511440    0.277820
     15          6           0       -2.883570   -1.964420    0.355400
     16          6           0       -1.837440   -1.090800    0.164130
     17          1           0        6.025220   -1.047420    1.039350
     18          1           0        5.076370    0.384180    1.485610
     19          1           0        4.491350   -1.257540    1.906450
     20          1           0        2.820330   -0.682650   -2.137270
     21          1           0        0.491570    0.132590   -2.279910
     22          1           0        2.899000    0.304740    2.000670
     23          1           0        0.590290    1.111410    1.849970
     24          1           0       -1.747490    3.019920    0.237490
     25          1           0       -0.251070    3.069860   -0.698980
     26          1           0       -1.770410    2.668250   -1.503720
     27          1           0       -3.594630    1.731360   -0.393850
     28          1           0       -5.452150    0.173820   -0.053170
     29          1           0       -5.005420   -2.195240    0.427540
     30          1           0       -2.686370   -3.002980    0.565630
     31          1           0       -0.822550   -1.441850    0.224170
 ---------------------------------------------------------------------
                    Distance matrix (angstroms):
                    1          2          3          4          5
     1  C    0.000000
     2  O    1.406668   0.000000
     3  C    2.369000   1.405719   0.000000
     4  C    3.646026   2.394600   1.396148   0.000000
     5  C    4.782162   3.669202   2.413311   1.373825   0.000000
     6  C    2.790803   2.480835   1.396480   2.393479   2.763667
     7  C    4.165421   3.724231   2.410094   2.756697   2.393946
     8  C    5.009303   4.207177   2.803377   2.400782   1.391369
     9  N    6.422563   5.650319   4.246748   3.723123   2.463341
    10  C    7.212206   6.474368   5.104478   4.581026   3.357385
    11  C    7.255162   6.495248   5.125105   4.576040   3.339044
    12  C    8.620128   7.872937   6.492177   5.899603   4.602366
    13  C    9.533097   8.803422   7.467137   6.880031   5.642261
    14  C    9.283060   8.578066   7.334150   6.802287   5.715908
    15  C    8.046922   7.349399   6.172122   5.707071   4.771377
    16  C    6.938554   6.201857   4.945532   4.474039   3.477771
    17  H    1.090447   2.035648   3.290110   4.428059   5.668676
    18  H    1.090598   2.052879   2.644526   3.951631   4.945258
    19  H    1.090542   2.052804   2.653030   3.965437   4.960920
    20  H    3.963410   2.568914   2.126731   1.075514   2.133136
    21  H    5.739020   4.528307   3.390550   2.134211   1.075969
    22  H    2.470256   2.736929   2.143534   3.372327   3.838268
    23  H    4.813896   4.609349   3.387923   3.832682   3.364055
    24  H    7.752364   7.167800   5.797722   5.457180   4.285513
    25  H    6.714090   6.003352   4.710719   4.268849   3.238160
    26  H    8.012648   7.147522   5.799401   5.054786   3.757424
    27  H    9.069101   8.324717   6.922927   6.314110   4.974268
    28  H   10.570218   9.843954   8.493371   7.883984   6.610289
    29  H   10.164680   9.481521   8.282889   7.761377   6.720455
    30  H    8.073298   7.419916   6.376733   5.987158   5.246866
    31  H    5.964630   5.228696   4.043768   3.669317   2.914959
                    6          7          8          9         10
     6  C    0.000000
     7  C    1.374817   0.000000
     8  C    2.405562   1.391717   0.000000
     9  N    3.726595   2.463544   1.443453   0.000000
    10  C    4.560018   3.324593   2.486936   1.459962   0.000000
    11  C    4.602310   3.371175   2.498189   1.419096   2.500774
    12  C    5.921627   4.627512   3.781791   2.459147   2.898329
    13  C    6.913114   5.680016   4.907592   3.716783   4.275361
    14  C    6.848969   5.769072   5.098507   4.204377   5.115990
    15  C    5.761399   4.833751   4.247799   3.703088   4.911984
    16  C    4.521609   3.535455   2.871784   2.436845   3.774975
    17  H    3.871913   5.244691   6.027308   7.455629   8.237173
    18  H    2.730141   4.034704   4.996809   6.354582   6.958171
    19  H    2.735343   4.044038   5.010766   6.364070   7.290502
    20  H    3.362492   3.832113   3.379274   4.594281   5.393218
    21  H    3.839573   3.365334   2.129679   2.662542   3.409046
    22  H    1.074641   2.120316   3.373817   4.582526   5.344054
    23  H    2.134057   1.076078   2.127994   2.659394   3.348680
    24  H    5.032249   3.725472   3.203517   2.101524   1.088312
    25  H    4.230419   3.183215   2.520342   2.098911   1.088502
    26  H    5.439892   4.258195   3.203575   2.101328   1.088338
    27  H    6.323595   4.983299   4.125104   2.686868   2.536538
    28  H    7.913636   6.643295   5.866890   4.586816   4.899528
    29  H    7.812107   6.776976   6.148368   5.282063   6.167833
    30  H    6.050811   5.317291   4.863031   4.565855   5.865809
    31  H    3.725658   2.982011   2.484203   2.639562   4.094938
                   11         12         13         14         15
    11  C    0.000000
    12  C    1.395084   0.000000
    13  C    2.409504   1.377050   0.000000
    14  C    2.785418   2.391686   1.381416   0.000000
    15  C    2.411267   2.762077   2.390561   1.381144   0.000000
    16  C    1.394701   2.393646   2.757843   2.388649   1.376294
    17  H    8.278864   9.654287  10.547516  10.250096   8.981938
    18  H    7.322416   8.636179   9.642829   9.531202   8.375795
    19  H    7.028287   8.385802   9.190260   8.832524   7.569338
    20  H    5.376201   6.655750   7.583204   7.457101   6.355377
    21  H    3.359333   4.448116   5.441477   5.578940   4.768006
    22  H    5.397777   6.670235   7.616198   7.514259   6.426050
    23  H    3.411818   4.490103   5.506667   5.671335   4.874646
    24  H    2.802994   2.877069   4.185562   5.145992   5.113534
    25  H    3.400731   3.969618   5.345326   6.117696   5.778040
    26  H    2.801392   2.873322   4.183387   5.145757   5.114400
    27  H    2.140468   1.075353   2.126456   3.364019   3.837417
    28  H    3.384487   2.130306   1.077861   2.133721   3.366987
    29  H    3.863115   3.367813   2.135940   1.077697   2.135586
    30  H    3.385908   3.839894   3.367713   2.134583   1.077818
    31  H    2.133430   3.366995   3.833402   3.364608   2.130283
                   16         17         18         19         20
    16  C    0.000000
    17  H    7.911341   0.000000
    18  H    7.191846   1.774526   0.000000
    19  H    6.566359   1.774477   1.792930   0.000000
    20  H    5.211319   4.527173   4.399216   4.412990   0.000000
    21  H    3.590864   6.559817   5.938251   5.954520   2.471454
    22  H    5.268233   3.539170   2.238870   2.232750   4.254841
    23  H    3.685873   5.903907   4.559225   4.564360   4.908137
    24  H    4.112358   8.809157   7.420916   7.746303   6.341411
    25  H    4.535705   7.704908   6.353497   6.928579   5.058014
    26  H    4.112988   9.002514   7.812264   8.139455   5.718812
    27  H    3.371001  10.115196   8.974046   8.922330   7.072388
    28  H    3.835702  11.593750  10.642454  10.235336   8.573852
    29  H    3.365304  11.107062  10.460182   9.656868   8.373084
    30  H    2.130333   8.940941   8.519351   7.507598   6.558456
    31  H    1.075566   6.907391   6.302608   5.576878   4.407194
                   21         22         23         24         25
    21  H    0.000000
    22  H    4.914135   0.000000
    23  H    4.245438   2.450218   0.000000
    24  H    4.437045   5.663115   3.421654   0.000000
    25  H    3.417369   4.985673   3.322734   1.765996   0.000000
    26  H    3.485484   6.298438   4.386786   1.776516   1.765585
    27  H    4.776015   7.066555   4.788802   2.338996   3.614427
    28  H    6.347273   8.600994   6.404069   4.680734   5.987934
    29  H    6.554844   8.438276   6.653511   6.152083   7.182908
    30  H    5.294167   6.648061   5.414262   6.104465   6.664031
    31  H    3.236694   4.478444   3.340431   4.556653   4.640509
                   26         27         28         29         30
    26  H    0.000000
    27  H    2.331813   0.000000
    28  H    4.677765   2.447933   0.000000
    29  H    6.152121   4.252434   2.458271   0.000000
    30  H    6.106066   4.915233   4.257289   2.459574   0.000000
    31  H    4.558176   4.258596   4.911263   4.255039   2.455106
                   31
    31  H    0.000000
 Stoichiometry    C14H15NO
 Framework group  C1[X(C14H15NO)]
 Deg. of freedom    87
 Full point group                 C1      NOp   1
 Largest Abelian subgroup         C1      NOp   1
 Largest concise Abelian subgroup C1      NOp   1
                         Standard orientation:                         
 ---------------------------------------------------------------------
 Center     Atomic      Atomic             Coordinates (Angstroms)
 Number     Number       Type             X           Y           Z
 ---------------------------------------------------------------------
      1          6           0       -5.064129   -0.848349   -0.713572
      2          8           0       -4.341690   -0.611346    0.469910
      3          6           0       -3.020699   -0.171675    0.275704
      4          6           0       -2.258151    0.097041    1.413923
      5          6           0       -0.958283    0.530310    1.313841
      6          6           0       -2.422268    0.013124   -0.972448
      7          6           0       -1.121591    0.446983   -1.073074
      8          6           0       -0.368653    0.712605    0.066840
      9          7           0        1.002628    1.149923   -0.042240
     10          6           0        1.254663    2.583488   -0.155638
     11          6           0        2.079313    0.225492   -0.038679
     12          6           0        3.406789    0.642241   -0.140597
     13          6           0        4.434261   -0.274580   -0.137960
     14          6           0        4.161395   -1.624767   -0.033800
     15          6           0        2.853185   -2.055709    0.068345
     16          6           0        1.824241   -1.141678    0.066080
     17          1           0       -6.070403   -1.172802   -0.446706
     18          1           0       -5.132353    0.070012   -1.297834
     19          1           0       -4.580944   -1.636014   -1.292708
     20          1           0       -2.716170   -0.044565    2.376678
     21          1           0       -0.376864    0.732119    2.196414
     22          1           0       -2.982458   -0.186978   -1.867434
     23          1           0       -0.662866    0.583984   -2.036788
     24          1           0        1.763604    2.803768   -1.092055
     25          1           0        0.313558    3.130169   -0.138342
     26          1           0        1.865991    2.925423    0.677331
     27          1           0        3.628216    1.691385   -0.222152
     28          1           0        5.455120    0.062037   -0.217469
     29          1           0        4.967353   -2.340212   -0.032061
     30          1           0        2.638020   -3.108657    0.150171
     31          1           0        0.804889   -1.475514    0.145560
 ---------------------------------------------------------------------
 Rotational constants (GHZ):           1.3070500           0.2561427           0.2350766
 Standard basis: def2SVP (5D, 7F)
 There are   315 symmetry adapted cartesian basis functions of A   symmetry.
 There are   299 symmetry adapted basis functions of A   symmetry.
   299 basis functions,   505 primitive gaussians,   315 cartesian basis functions
    57 alpha electrons       57 beta electrons
       nuclear repulsion energy      1019.7262202525 Hartrees.
 NAtoms=   31 NActive=   31 NUniq=   31 SFac= 1.00D+00 NAtFMM=   60 NAOKFM=F Big=F
 Integral buffers will be    131072 words long.
 Raffenetti 2 integral format.
 Two-electron integral symmetry is turned on.
 Nuclear repulsion after empirical dispersion term =     1019.7060609025 Hartrees.
 One-electron integrals computed using PRISM.
   1 Symmetry operations used in ECPInt.
 ECPInt:  NShTT=   10011 NPrTT=   36031 LenC2=    9197 LenP2D=   23990.
 LDataN:  DoStor=T MaxTD1= 4 Len=   56
 NBasis=   299 RedAO= T EigKep=  2.14D-04  NBF=   299
 NBsUse=   299 1.00D-06 EigRej= -1.00D+00 NBFU=   299
 ExpMin= 1.22D-01 ExpMax= 2.27D+03 ExpMxC= 3.41D+02 IAcc=3 IRadAn=         5 AccDes= 0.00D+00
 Harris functional with IExCor= 4639 and IRadAn=       5 diagonalized for initial guess.
 HarFok:  IExCor= 4639 AccDes= 0.00D+00 IRadAn=         5 IDoV= 1 UseB2=F ITyADJ=14
 ICtDFT=  3500011 ScaDFX=  1.000000  1.000000  1.000000  1.000000
 FoFCou: FMM=F IPFlag=           0 FMFlag=      100000 FMFlg1=           0
         NFxFlg=           0 DoJE=T BraDBF=F KetDBF=T FulRan=T
         wScrn=  0.000000 ICntrl=       500 IOpCl=  0 I1Cent=   200000004 NGrid=           0
         NMat0=    1 NMatS0=      1 NMatT0=    0 NMatD0=    1 NMtDS0=    0 NMtDT0=    0
 Petite list used in FoFCou.
 Requested convergence on RMS density matrix=1.00D-08 within 128 cycles.
 Requested convergence on MAX density matrix=1.00D-06.
 Requested convergence on             energy=1.00D-06.
 No special actions if energy rises.
 Integral accuracy reduced to 1.0D-05 until final iterations.
 Initial convergence to 1.0D-05 achieved.  Increase integral accuracy.
 SCF Done:  E(RwB97XD) =  -671.770601916     A.U. after   15 cycles
            NFock= 15  Conv=0.56D-08     -V/T= 2.0105

 **********************************************************************

            Population analysis using the SCF Density.

 **********************************************************************

 Orbital symmetries:
       Occupied  (A) (A) (A) (A) (A) (A) (A) (A) (A) (A) (A) (A)
                 (A) (A) (A) (A) (A) (A) (A) (A) (A) (A) (A) (A)
                 (A) (A) (A) (A) (A) (A) (A) (A) (A) (A) (A) (A)
                 (A) (A) (A) (A) (A) (A) (A) (A) (A) (A) (A) (A)
                 (A) (A) (A) (A) (A) (A) (A) (A) (A)
       Virtual   (A) (A) (A) (A) (A) (A) (A) (A) (A) (A) (A) (A)
                 (A) (A) (A) (A) (A) (A) (A) (A) (A) (A) (A) (A)
                 (A) (A) (A) (A) (A) (A) (A) (A) (A) (A) (A) (A)
                 (A) (A) (A) (A) (A) (A) (A) (A) (A) (A) (A) (A)
                 (A) (A) (A) (A) (A) (A) (A) (A) (A) (A) (A) (A)
                 (A) (A) (A) (A) (A) (A) (A) (A) (A) (A) (A) (A)
                 (A) (A) (A) (A) (A) (A) (A) (A) (A) (A) (A) (A)
                 (A) (A) (A) (A) (A) (A) (A) (A) (A) (A) (A) (A)
                 (A) (A) (A) (A) (A) (A) (A) (A) (A) (A) (A) (A)
                 (A) (A) (A) (A) (A) (A) (A) (A) (A) (A) (A) (A)
                 (A) (A) (A) (A) (A) (A) (A) (A) (A) (A) (A) (A)
                 (A) (A) (A) (A) (A) (A) (A) (A) (A) (A) (A) (A)
                 (A) (A) (A) (A) (A) (A) (A) (A) (A) (A) (A) (A)
                 (A) (A) (A) (A) (A) (A) (A) (A) (A) (A) (A) (A)
                 (A) (A) (A) (A) (A) (A) (A) (A) (A) (A) (A) (A)
                 (A) (A) (A) (A) (A) (A) (A) (A) (A) (A) (A) (A)
                 (A) (A) (A) (A) (A) (A) (A) (A) (A) (A) (A) (A)
                 (A) (A) (A) (A) (A) (A) (A) (A) (A) (A) (A) (A)
                 (A) (A) (A) (A) (A) (A) (A) (A) (A) (A) (A) (A)
                 (A) (A) (A) (A) (A) (A) (A) (A) (A) (A) (A) (A)
                 (A) (A)
 The electronic state is 1-A.
 Alpha  occ. eigenvalues --  -19.28947 -14.45531 -10.36689 -10.35222 -10.33320
 Alpha  occ. eigenvalues --  -10.33315 -10.32554 -10.30598 -10.30514 -10.30439
 Alpha  occ. eigenvalues --  -10.30105 -10.28802 -10.28685 -10.28252 -10.27922
 Alpha  occ. eigenvalues --  -10.27630  -1.15187  -1.03475  -0.95750  -0.93441
 Alpha  occ. eigenvalues --   -0.85616  -0.85040  -0.83454  -0.82616  -0.79491
 Alpha  occ. eigenvalues --   -0.75839  -0.71198  -0.70039  -0.68345  -0.66141
 Alpha  occ. eigenvalues --   -0.63319  -0.61508  -0.58635  -0.57937  -0.56399
 Alpha  occ. eigenvalues --   -0.55068  -0.54057  -0.52891  -0.52484  -0.52176
 Alpha  occ. eigenvalues --   -0.51739  -0.50514  -0.50111  -0.48741  -0.47314
 Alpha  occ. eigenvalues --   -0.46418  -0.45800  -0.44890  -0.43022  -0.41605
 Alpha  occ. eigenvalues --   -0.41554  -0.40353  -0.36807  -0.34412  -0.32373
 Alpha  occ. eigenvalues --   -0.30612  -0.26346
 Alpha virt. eigenvalues --    0.05356   0.06386   0.07717   0.09122   0.13824
 Alpha virt. eigenvalues --    0.14956   0.15695   0.17027   0.18423   0.19002
 Alpha virt. eigenvalues --    0.19785   0.20354   0.21021   0.21269   0.21444
 Alpha virt. eigenvalues --    0.22314   0.22749   0.23395   0.24125   0.25197
 Alpha virt. eigenvalues --    0.25363   0.25937   0.26151   0.30253   0.32244
 Alpha virt. eigenvalues --    0.34370   0.36412   0.37377   0.38411   0.38601
 Alpha virt. eigenvalues --    0.39623   0.40879   0.41936   0.43788   0.44393
 Alpha virt. eigenvalues --    0.45778   0.46694   0.47707   0.49921   0.50186
 Alpha virt. eigenvalues --    0.50865   0.52339   0.53601   0.53722   0.54357
 Alpha virt. eigenvalues --    0.54864   0.56587   0.57244   0.57751   0.58531
 Alpha virt. eigenvalues --    0.58633   0.58876   0.59883   0.60668   0.61808
 Alpha virt. eigenvalues --    0.63058   0.63908   0.64968   0.66279   0.66440
 Alpha virt. eigenvalues --    0.69073   0.70416   0.71587   0.71769   0.72160
 Alpha virt. eigenvalues --    0.72314   0.73231   0.73850   0.74631   0.75248
 Alpha virt. eigenvalues --    0.75380   0.75668   0.75986   0.76207   0.76487
 Alpha virt. eigenvalues --    0.77374   0.79066   0.79664   0.79860   0.81004
 Alpha virt. eigenvalues --    0.81698   0.82074   0.82512   0.83679   0.83889
 Alpha virt. eigenvalues --    0.85436   0.86201   0.88202   0.88522   0.90778
 Alpha virt. eigenvalues --    0.91840   0.92418   0.94058   0.95538   0.98801
 Alpha virt. eigenvalues --    1.01437   1.01788   1.03524   1.06057   1.09556
 Alpha virt. eigenvalues --    1.10284   1.12301   1.15570   1.18418   1.19152
 Alpha virt. eigenvalues --    1.20677   1.22482   1.26261   1.27106   1.28855
 Alpha virt. eigenvalues --    1.31670   1.32335   1.32604   1.34015   1.34711
 Alpha virt. eigenvalues --    1.34961   1.36406   1.36679   1.37902   1.38429
 Alpha virt. eigenvalues --    1.39628   1.40671   1.42102   1.43779   1.49637
 Alpha virt. eigenvalues --    1.52188   1.55055   1.59772   1.61015   1.61409
 Alpha virt. eigenvalues --    1.62130   1.66111   1.67329   1.72331   1.73385
 Alpha virt. eigenvalues --    1.76989   1.77206   1.77858   1.78754   1.78871
 Alpha virt. eigenvalues --    1.79388   1.81948   1.83343   1.83892   1.84508
 Alpha virt. eigenvalues --    1.84664   1.85671   1.86378   1.86858   1.87668
 Alpha virt. eigenvalues --    1.87926   1.88110   1.89401   1.90010   1.90806
 Alpha virt. eigenvalues --    1.91482   1.92343   1.93046   1.94642   1.96604
 Alpha virt. eigenvalues --    1.98020   1.99135   1.99830   2.00357   2.00631
 Alpha virt. eigenvalues --    2.04853   2.05307   2.06341   2.07401   2.09265
 Alpha virt. eigenvalues --    2.10545   2.12032   2.14956   2.16704   2.17329
 Alpha virt. eigenvalues --    2.18149   2.22437   2.23548   2.25291   2.25751
 Alpha virt. eigenvalues --    2.26238   2.27415   2.28853   2.28887   2.31029
 Alpha virt. eigenvalues --    2.31317   2.33081   2.35032   2.35870   2.38542
 Alpha virt. eigenvalues --    2.41003   2.41478   2.42009   2.42943   2.44423
 Alpha virt. eigenvalues --    2.45312   2.46138   2.46853   2.50333   2.51432
 Alpha virt. eigenvalues --    2.56529   2.56932   2.58630   2.65733   2.70209
 Alpha virt. eigenvalues --    2.70974   2.71343   2.72312   2.72572   2.75197
 Alpha virt. eigenvalues --    2.76146   2.76979   2.80195   2.83409   2.85384
 Alpha virt. eigenvalues --    2.85875   2.86487   2.89337   2.89622   2.91716
 Alpha virt. eigenvalues --    2.95628   2.97005   2.97189   3.01126   3.01754
 Alpha virt. eigenvalues --    3.02914   3.04449   3.06132   3.07145   3.08511
 Alpha virt. eigenvalues --    3.13915   3.17126   3.21383   3.23721   3.29190
 Alpha virt. eigenvalues --    3.30635   3.31916   3.43985   3.51774   3.54062
 Alpha virt. eigenvalues --    3.80633   3.81610
          Condensed to atoms (all electrons):
               1          2          3          4          5          6
     1  C    4.395420   0.300084  -0.057854   0.006211  -0.000219   0.000655
     2  O    0.300084   7.912535   0.387022  -0.067835   0.003101  -0.080199
     3  C   -0.057854   0.387022   5.064207   0.268376   0.123962   0.159495
     4  C    0.006211  -0.067835   0.268376   5.185921   0.223012   0.058260
     5  C   -0.000219   0.003101   0.123962   0.223012   5.114061  -0.141549
     6  C    0.000655  -0.080199   0.159495   0.058260  -0.141549   5.405189
     7  C    0.001154   0.004237   0.124186  -0.128146   0.054731   0.176023
     8  C    0.000045  -0.000005  -0.185595   0.122506   0.268687   0.118034
     9  N   -0.000000   0.000000  -0.000154   0.010545  -0.074499   0.011418
    10  C   -0.000000  -0.000000   0.000018  -0.000075  -0.004792  -0.000105
    11  C   -0.000000  -0.000000   0.000062  -0.000342  -0.001828  -0.000400
    12  C   -0.000000   0.000000   0.000001  -0.000007  -0.000414  -0.000005
    13  C    0.000000  -0.000000   0.000000   0.000000   0.000023   0.000000
    14  C   -0.000000  -0.000000  -0.000000   0.000000  -0.000034   0.000000
    15  C    0.000000   0.000000   0.000002   0.000011   0.000037   0.000014
    16  C   -0.000000   0.000000   0.000042  -0.000673  -0.002894  -0.000497
    17  H    0.398027  -0.020486   0.005110  -0.000079   0.000006   0.000270
    18  H    0.403232  -0.030721  -0.009605  -0.000132   0.000030   0.005999
    19  H    0.404003  -0.030588  -0.009642  -0.000223   0.000043   0.005627
    20  H   -0.000191   0.001427  -0.071395   0.443932  -0.067260   0.019843
    21  H    0.000007  -0.000055   0.016290  -0.078005   0.462865  -0.003630
    22  H    0.008559  -0.008058  -0.093865   0.013085  -0.002522   0.457900
    23  H   -0.000030  -0.000055   0.015485  -0.003376   0.017699  -0.073584
    24  H   -0.000000   0.000000  -0.000001   0.000068  -0.000433  -0.000187
    25  H   -0.000000   0.000000   0.000007  -0.000387  -0.000140  -0.000433
    26  H    0.000000   0.000000   0.000002  -0.000177   0.001790   0.000072
    27  H   -0.000000   0.000000  -0.000000   0.000001  -0.000031   0.000001
    28  H   -0.000000   0.000000  -0.000000   0.000000  -0.000000   0.000000
    29  H    0.000000   0.000000  -0.000000   0.000000   0.000000   0.000000
    30  H    0.000000   0.000000   0.000000  -0.000002   0.000016  -0.000002
    31  H   -0.000002  -0.000002   0.000243  -0.000369  -0.001933  -0.000302
               7          8          9         10         11         12
     1  C    0.001154   0.000045  -0.000000  -0.000000  -0.000000  -0.000000
     2  O    0.004237  -0.000005   0.000000  -0.000000  -0.000000   0.000000
     3  C    0.124186  -0.185595  -0.000154   0.000018   0.000062   0.000001
     4  C   -0.128146   0.122506   0.010545  -0.000075  -0.000342  -0.000007
     5  C    0.054731   0.268687  -0.074499  -0.004792  -0.001828  -0.000414
     6  C    0.176023   0.118034   0.011418  -0.000105  -0.000400  -0.000005
     7  C    5.113933   0.287187  -0.073607  -0.005746  -0.001548  -0.000383
     8  C    0.287187   5.255281   0.266217  -0.042092  -0.038501   0.009013
     9  N   -0.073607   0.266217   6.840955   0.339267   0.351442  -0.094248
    10  C   -0.005746  -0.042092   0.339267   4.431889  -0.052657   0.003346
    11  C   -0.001548  -0.038501   0.351442  -0.052657   5.030880   0.254123
    12  C   -0.000383   0.009013  -0.094248   0.003346   0.254123   5.226448
    13  C    0.000022  -0.000316   0.008057   0.000382   0.121953   0.270753
    14  C   -0.000030   0.000171  -0.000743   0.000079  -0.165716   0.089189
    15  C    0.000022  -0.002652   0.009244  -0.000284   0.122196  -0.157988
    16  C   -0.002302   0.000352  -0.090320   0.006340   0.277971   0.076552
    17  H   -0.000031   0.000005  -0.000000  -0.000000  -0.000000   0.000000
    18  H    0.000665  -0.000089   0.000000   0.000000  -0.000000   0.000000
    19  H    0.000683  -0.000106   0.000000  -0.000000   0.000000  -0.000000
    20  H   -0.003411   0.015686  -0.000158   0.000003  -0.000002  -0.000000
    21  H    0.017876  -0.067913  -0.006959   0.000014   0.001470  -0.000217
    22  H   -0.053853   0.016420  -0.000204   0.000003   0.000001  -0.000000
    23  H    0.456870  -0.066532  -0.006516   0.000149   0.001140  -0.000204
    24  H    0.001918   0.002372  -0.031710   0.399457  -0.009150   0.005138
    25  H   -0.000025   0.004612  -0.022751   0.396743   0.006019   0.000405
    26  H   -0.000378   0.002535  -0.031372   0.399319  -0.009296   0.005108
    27  H   -0.000025  -0.000176  -0.016462   0.012369  -0.078424   0.458772
    28  H   -0.000000   0.000007  -0.000089  -0.000037   0.015472  -0.070333
    29  H    0.000000  -0.000000   0.000012  -0.000000  -0.001403   0.014963
    30  H    0.000014  -0.000025  -0.000098   0.000007   0.015376  -0.001972
    31  H   -0.002107   0.013865  -0.019486  -0.000121  -0.066535   0.016835
              13         14         15         16         17         18
     1  C    0.000000  -0.000000   0.000000  -0.000000   0.398027   0.403232
     2  O   -0.000000  -0.000000   0.000000   0.000000  -0.020486  -0.030721
     3  C    0.000000  -0.000000   0.000002   0.000042   0.005110  -0.009605
     4  C    0.000000   0.000000   0.000011  -0.000673  -0.000079  -0.000132
     5  C    0.000023  -0.000034   0.000037  -0.002894   0.000006   0.000030
     6  C    0.000000   0.000000   0.000014  -0.000497   0.000270   0.005999
     7  C    0.000022  -0.000030   0.000022  -0.002302  -0.000031   0.000665
     8  C   -0.000316   0.000171  -0.002652   0.000352   0.000005  -0.000089
     9  N    0.008057  -0.000743   0.009244  -0.090320  -0.000000   0.000000
    10  C    0.000382   0.000079  -0.000284   0.006340  -0.000000   0.000000
    11  C    0.121953  -0.165716   0.122196   0.277971  -0.000000  -0.000000
    12  C    0.270753   0.089189  -0.157988   0.076552   0.000000   0.000000
    13  C    5.045547   0.280107   0.105172  -0.156314   0.000000  -0.000000
    14  C    0.280107   5.123109   0.268256   0.090741   0.000000  -0.000000
    15  C    0.105172   0.268256   5.063781   0.273042  -0.000000   0.000000
    16  C   -0.156314   0.090741   0.273042   5.177263  -0.000000   0.000000
    17  H    0.000000   0.000000  -0.000000  -0.000000   0.608369  -0.023079
    18  H   -0.000000  -0.000000   0.000000   0.000000  -0.023079   0.660284
    19  H    0.000000   0.000000  -0.000000  -0.000000  -0.023214  -0.043112
    20  H   -0.000000   0.000000  -0.000001   0.000003  -0.000097   0.000080
    21  H    0.000002   0.000005  -0.000068  -0.000701  -0.000000   0.000000
    22  H   -0.000000  -0.000000  -0.000001   0.000004  -0.000298   0.000461
    23  H    0.000002   0.000004  -0.000047  -0.000633  -0.000001   0.000032
    24  H    0.000867  -0.000073   0.000027  -0.000154  -0.000000  -0.000000
    25  H   -0.000050   0.000004   0.000004  -0.000172  -0.000000  -0.000000
    26  H    0.000871  -0.000073   0.000030  -0.000152  -0.000000  -0.000000
    27  H   -0.071931   0.015775  -0.002507   0.016736   0.000000  -0.000000
    28  H    0.453222  -0.071040   0.014354  -0.001933  -0.000000   0.000000
    29  H   -0.070953   0.452070  -0.070926   0.014906   0.000000   0.000000
    30  H    0.014420  -0.072833   0.454618  -0.070066  -0.000000   0.000000
    31  H   -0.002608   0.015607  -0.077603   0.458350  -0.000000  -0.000000
              19         20         21         22         23         24
     1  C    0.404003  -0.000191   0.000007   0.008559  -0.000030  -0.000000
     2  O   -0.030588   0.001427  -0.000055  -0.008058  -0.000055   0.000000
     3  C   -0.009642  -0.071395   0.016290  -0.093865   0.015485  -0.000001
     4  C   -0.000223   0.443932  -0.078005   0.013085  -0.003376   0.000068
     5  C    0.000043  -0.067260   0.462865  -0.002522   0.017699  -0.000433
     6  C    0.005627   0.019843  -0.003630   0.457900  -0.073584  -0.000187
     7  C    0.000683  -0.003411   0.017876  -0.053853   0.456870   0.001918
     8  C   -0.000106   0.015686  -0.067913   0.016420  -0.066532   0.002372
     9  N    0.000000  -0.000158  -0.006959  -0.000204  -0.006516  -0.031710
    10  C   -0.000000   0.000003   0.000014   0.000003   0.000149   0.399457
    11  C    0.000000  -0.000002   0.001470   0.000001   0.001140  -0.009150
    12  C   -0.000000  -0.000000  -0.000217  -0.000000  -0.000204   0.005138
    13  C    0.000000  -0.000000   0.000002  -0.000000   0.000002   0.000867
    14  C    0.000000   0.000000   0.000005  -0.000000   0.000004  -0.000073
    15  C   -0.000000  -0.000001  -0.000068  -0.000001  -0.000047   0.000027
    16  C   -0.000000   0.000003  -0.000701   0.000004  -0.000633  -0.000154
    17  H   -0.023214  -0.000097  -0.000000  -0.000298  -0.000001  -0.000000
    18  H   -0.043112   0.000080   0.000000   0.000461   0.000032  -0.000000
    19  H    0.658976   0.000079  -0.000000   0.000322   0.000030   0.000000
    20  H    0.000079   0.661083  -0.013085  -0.000212   0.000031  -0.000001
    21  H   -0.000000  -0.013085   0.668884   0.000025  -0.000250   0.000082
    22  H    0.000322  -0.000212   0.000025   0.677306  -0.013810   0.000004
    23  H    0.000030   0.000031  -0.000250  -0.013810   0.672963  -0.000573
    24  H    0.000000  -0.000001   0.000082   0.000004  -0.000573   0.657822
    25  H    0.000000   0.000004   0.000212   0.000005   0.000267  -0.019714
    26  H    0.000000   0.000002  -0.000467  -0.000001   0.000100  -0.041614
    27  H    0.000000  -0.000000  -0.000012  -0.000000  -0.000012  -0.001360
    28  H   -0.000000  -0.000000  -0.000000  -0.000000  -0.000000   0.000011
    29  H   -0.000000   0.000000   0.000000   0.000000   0.000000  -0.000000
    30  H   -0.000000  -0.000000   0.000000  -0.000000   0.000000  -0.000000
    31  H    0.000003   0.000010  -0.000129   0.000005  -0.000120  -0.000005
              25         26         27         28         29         30
     1  C   -0.000000   0.000000  -0.000000  -0.000000   0.000000   0.000000
     2  O    0.000000   0.000000   0.000000   0.000000   0.000000   0.000000
     3  C    0.000007   0.000002  -0.000000  -0.000000  -0.000000   0.000000
     4  C   -0.000387  -0.000177   0.000001   0.000000   0.000000  -0.000002
     5  C   -0.000140   0.001790  -0.000031  -0.000000   0.000000   0.000016
     6  C   -0.000433   0.000072   0.000001   0.000000   0.000000  -0.000002
     7  C   -0.000025  -0.000378  -0.000025  -0.000000   0.000000   0.000014
     8  C    0.004612   0.002535  -0.000176   0.000007  -0.000000  -0.000025
     9  N   -0.022751  -0.031372  -0.016462  -0.000089   0.000012  -0.000098
    10  C    0.396743   0.399319   0.012369  -0.000037  -0.000000   0.000007
    11  C    0.006019  -0.009296  -0.078424   0.015472  -0.001403   0.015376
    12  C    0.000405   0.005108   0.458772  -0.070333   0.014963  -0.001972
    13  C   -0.000050   0.000871  -0.071931   0.453222  -0.070953   0.014420
    14  C    0.000004  -0.000073   0.015775  -0.071040   0.452070  -0.072833
    15  C    0.000004   0.000030  -0.002507   0.014354  -0.070926   0.454618
    16  C   -0.000172  -0.000152   0.016736  -0.001933   0.014906  -0.070066
    17  H   -0.000000  -0.000000   0.000000  -0.000000   0.000000  -0.000000
    18  H   -0.000000  -0.000000  -0.000000   0.000000   0.000000   0.000000
    19  H    0.000000   0.000000   0.000000  -0.000000  -0.000000  -0.000000
    20  H    0.000004   0.000002  -0.000000  -0.000000   0.000000  -0.000000
    21  H    0.000212  -0.000467  -0.000012  -0.000000   0.000000   0.000000
    22  H    0.000005  -0.000001  -0.000000  -0.000000   0.000000  -0.000000
    23  H    0.000267   0.000100  -0.000012  -0.000000   0.000000   0.000000
    24  H   -0.019714  -0.041614  -0.001360   0.000011  -0.000000  -0.000000
    25  H    0.603624  -0.019134  -0.000028  -0.000001  -0.000000  -0.000000
    26  H   -0.019134   0.656248  -0.001362   0.000011  -0.000000  -0.000000
    27  H   -0.000028  -0.001362   0.700282  -0.013881  -0.000268   0.000024
    28  H   -0.000001   0.000011  -0.013881   0.681442  -0.012633  -0.000272
    29  H   -0.000000  -0.000000  -0.000268  -0.012633   0.686820  -0.012584
    30  H   -0.000000  -0.000000   0.000024  -0.000272  -0.012584   0.680844
    31  H   -0.000008  -0.000008  -0.000184   0.000020  -0.000261  -0.013432
              31
     1  C   -0.000002
     2  O   -0.000002
     3  C    0.000243
     4  C   -0.000369
     5  C   -0.001933
     6  C   -0.000302
     7  C   -0.002107
     8  C    0.013865
     9  N   -0.019486
    10  C   -0.000121
    11  C   -0.066535
    12  C    0.016835
    13  C   -0.002608
    14  C    0.015607
    15  C   -0.077603
    16  C    0.458350
    17  H   -0.000000
    18  H   -0.000000
    19  H    0.000003
    20  H    0.000010
    21  H   -0.000129
    22  H    0.000005
    23  H   -0.000120
    24  H   -0.000005
    25  H   -0.000008
    26  H   -0.000008
    27  H   -0.000184
    28  H    0.000020
    29  H   -0.000261
    30  H   -0.013432
    31  H    0.675809
 Mulliken charges:
               1
     1  C    0.140900
     2  O   -0.370404
     3  C    0.263604
     4  C   -0.052099
     5  C    0.028487
     6  C   -0.117909
     7  C    0.032072
     8  C    0.021004
     9  N   -0.367779
    10  C    0.116524
    11  C    0.227696
    12  C   -0.104874
    13  C    0.000771
    14  C   -0.024576
    15  C    0.001263
    16  C   -0.065491
    17  H    0.055498
    18  H    0.035953
    19  H    0.037119
    20  H    0.013629
    21  H    0.003757
    22  H   -0.001276
    23  H    0.000971
    24  H    0.037209
    25  H    0.050936
    26  H    0.037946
    27  H   -0.017300
    28  H    0.005679
    29  H    0.000256
    30  H    0.005967
    31  H    0.004466
 Sum of Mulliken charges =  -0.00000
 Mulliken charges with hydrogens summed into heavy atoms:
               1
     1  C    0.269470
     2  O   -0.370404
     3  C    0.263604
     4  C   -0.038470
     5  C    0.032244
     6  C   -0.119184
     7  C    0.033043
     8  C    0.021004
     9  N   -0.367779
    10  C    0.242615
    11  C    0.227696
    12  C   -0.122173
    13  C    0.006450
    14  C   -0.024320
    15  C    0.007230
    16  C   -0.061026
 Electronic spatial extent (au):  <R**2>=           4683.8169
 Charge=              0.0000 electrons
 Dipole moment (field-independent basis, Debye):
    X=             -1.7994    Y=              0.9500    Z=             -1.2500  Tot=              2.3880
 Quadrupole moment (field-independent basis, Debye-Ang):
   XX=            -87.5240   YY=            -89.6677   ZZ=            -93.0373
   XY=              4.5024   XZ=              6.3535   YZ=              0.6458
 Traceless Quadrupole moment (field-independent basis, Debye-Ang):
   XX=              2.5524   YY=              0.4086   ZZ=             -2.9610
   XY=              4.5024   XZ=              6.3535   YZ=              0.6458
 Octapole moment (field-independent basis, Debye-Ang**2):
  XXX=            -58.6675  YYY=              1.7746  ZZZ=              3.6324  XYY=              5.3528
  XXY=             -9.6396  XXZ=            -35.1712  XZZ=            -25.7651  YZZ=              4.8171
  YYZ=             -1.1961  XYZ=             -6.5846
 Hexadecapole moment (field-independent basis, Debye-Ang**3):
 XXXX=          -4545.8603 YYYY=           -843.7471 ZZZZ=           -376.4821 XXXY=            105.9721
 XXXZ=            143.0518 YYYX=             17.9910 YYYZ=             -4.1356 ZZZX=             -5.1676
 ZZZY=              0.7193 XXYY=           -948.3582 XXZZ=           -932.9087 YYZZ=           -226.9990
 XXYZ=             20.3431 YYXZ=              6.5283 ZZXY=             20.2850
 N-N= 1.019706060903D+03 E-N=-3.597353468413D+03  KE= 6.648147000756D+02
   1 Symmetry operations used in ECPInt.
 ECPInt:  NShTT=   10011 NPrTT=   36031 LenC2=    9197 LenP2D=   23990.
 LDataN:  DoStor=T MaxTD1= 5 Len=  102
 Calling FoFJK, ICntrl=      2127 FMM=F ISym2X=0 I1Cent= 0 IOpClX= 0 NMat=1 NMatS=1 NMatT=0.
 ***** Axes restored to original set *****
 -------------------------------------------------------------------
 Center     Atomic                   Forces (Hartrees/Bohr)
 Number     Number              X              Y              Z
 -------------------------------------------------------------------
      1        6          -0.003076176   -0.001985777   -0.011387765
      2        8          -0.036128008    0.013966379    0.001930956
      3        6           0.025571659   -0.010224399   -0.002706367
      4        6           0.013570777   -0.004190730    0.001639476
      5        6          -0.004682427    0.003515449    0.005259474
      6        6           0.018049215   -0.006104048   -0.001023900
      7        6          -0.011873884    0.002126939   -0.009981710
      8        6          -0.021188232    0.003605171    0.003276694
      9        7          -0.000999969   -0.005698289    0.001175466
     10        6           0.001887321   -0.020610424    0.004198266
     11        6           0.028165445    0.018211486   -0.003955096
     12        6           0.005368246    0.009095188   -0.001954359
     13        6          -0.000386287   -0.004367348    0.000900578
     14        6          -0.008614540   -0.004558978    0.001035297
     15        6          -0.000675144    0.001468342   -0.000360188
     16        6           0.005928862   -0.001099514    0.000219722
     17        1           0.003444879   -0.002189454   -0.003588705
     18        1           0.002158908    0.006832620    0.006462873
     19        1          -0.001397762   -0.003139524    0.009067952
     20        1           0.005699659   -0.004432779   -0.009619780
     21        1          -0.005220804   -0.001152194   -0.010113329
     22        1           0.003456522    0.001397008    0.010685676
     23        1          -0.004654124    0.003476931    0.009807856
     24        1          -0.005906549    0.007401925    0.006012413
     25        1           0.005762202    0.000716672   -0.000235085
     26        1          -0.006023111    0.004483002   -0.008251592
     27        1          -0.003565565    0.010410294   -0.002083117
     28        1          -0.009502612    0.004261960   -0.000765157
     29        1          -0.008083416   -0.006558084    0.001433453
     30        1           0.002787203   -0.009874772    0.001997858
     31        1           0.010127712   -0.004783052    0.000922140
 -------------------------------------------------------------------
 Cartesian Forces:  Max     0.036128008 RMS     0.008840249

 GradGradGradGradGradGradGradGradGradGradGradGradGradGradGradGradGradGrad
 Berny optimization.
 FormGI is forming the generalized inverse of G from B-inverse, IUseBI=4.
 Internal  Forces:  Max     0.037516049 RMS     0.006613587
 Search for a local minimum.
 Step number   1 out of a maximum of  161
 All quantities printed in internal units (Hartrees-Bohrs-Radians)
 Mixed Optimization -- RFO/linear search
 Second derivative matrix not updated -- first step.
 ITU=  0
     Eigenvalues ---    0.00899   0.01117   0.01122   0.01439   0.01604
     Eigenvalues ---    0.01616   0.01862   0.01941   0.02054   0.02163
     Eigenvalues ---    0.02184   0.02242   0.02252   0.02263   0.02285
     Eigenvalues ---    0.02299   0.02304   0.02334   0.02336   0.02339
     Eigenvalues ---    0.02347   0.02354   0.02366   0.02374   0.07434
     Eigenvalues ---    0.07511   0.10346   0.10571   0.16000   0.16000
     Eigenvalues ---    0.16000   0.16000   0.16000   0.16000   0.16000
     Eigenvalues ---    0.16000   0.16000   0.16000   0.16000   0.16000
     Eigenvalues ---    0.16000   0.16000   0.16000   0.22000   0.22000
     Eigenvalues ---    0.22000   0.22956   0.23467   0.23999   0.24997
     Eigenvalues ---    0.25000   0.25000   0.25000   0.25000   0.25000
     Eigenvalues ---    0.34744   0.34750   0.34761   0.34986   0.35005
     Eigenvalues ---    0.35008   0.36254   0.36259   0.36274   0.36472
     Eigenvalues ---    0.36486   0.36535   0.36542   0.36562   0.36650
     Eigenvalues ---    0.36969   0.39116   0.42597   0.42658   0.43060
     Eigenvalues ---    0.43465   0.43747   0.44533   0.44686   0.46645
     Eigenvalues ---    0.46677   0.47324   0.47918   0.48405   0.49074
     Eigenvalues ---    0.49719   0.50159
 RFO step:  Lambda=-1.70008842D-02 EMin= 8.98594948D-03
 Linear search not attempted -- first point.
 Iteration  1 RMS(Cart)=  0.04721359 RMS(Int)=  0.00185746
 Iteration  2 RMS(Cart)=  0.00267333 RMS(Int)=  0.00015225
 Iteration  3 RMS(Cart)=  0.00000817 RMS(Int)=  0.00015218
 Iteration  4 RMS(Cart)=  0.00000001 RMS(Int)=  0.00015218
 Variable       Old X    -DE/DX   Delta X   Delta X   Delta X     New X
                                 (Linear)    (Quad)   (Total)
    R1        2.65822   0.00099   0.00000   0.00215   0.00215   2.66037
    R2        2.06065   0.00438   0.00000   0.01202   0.01202   2.07267
    R3        2.06093   0.00855   0.00000   0.02346   0.02346   2.08439
    R4        2.06082   0.00859   0.00000   0.02355   0.02355   2.08438
    R5        2.65642  -0.03752   0.00000  -0.08088  -0.08088   2.57554
    R6        2.63834   0.00218   0.00000   0.00434   0.00437   2.64270
    R7        2.63896   0.00334   0.00000   0.00699   0.00703   2.64599
    R8        2.59615   0.01419   0.00000   0.02712   0.02712   2.62327
    R9        2.03243   0.01203   0.00000   0.03145   0.03145   2.06388
   R10        2.62931   0.00825   0.00000   0.01691   0.01687   2.64618
   R11        2.03329   0.01140   0.00000   0.02985   0.02985   2.06314
   R12        2.59803   0.01875   0.00000   0.03642   0.03643   2.63445
   R13        2.03078   0.01108   0.00000   0.02888   0.02888   2.05966
   R14        2.62996   0.00367   0.00000   0.00773   0.00771   2.63767
   R15        2.03349   0.01135   0.00000   0.02973   0.02973   2.06322
   R16        2.72773  -0.01589   0.00000  -0.03893  -0.03893   2.68880
   R17        2.75893  -0.00742   0.00000  -0.01920  -0.01920   2.73973
   R18        2.68170  -0.02456   0.00000  -0.05545  -0.05545   2.62626
   R19        2.05661   0.01065   0.00000   0.02900   0.02900   2.08561
   R20        2.05697   0.00540   0.00000   0.01473   0.01473   2.07170
   R21        2.05666   0.01060   0.00000   0.02887   0.02887   2.08553
   R22        2.63633   0.01132   0.00000   0.02335   0.02335   2.65967
   R23        2.63560   0.01370   0.00000   0.02830   0.02830   2.66390
   R24        2.60225   0.01683   0.00000   0.03274   0.03274   2.63499
   R25        2.03212   0.01110   0.00000   0.02901   0.02901   2.06113
   R26        2.61050   0.01208   0.00000   0.02400   0.02401   2.63451
   R27        2.03686   0.01040   0.00000   0.02741   0.02741   2.06427
   R28        2.60998   0.01480   0.00000   0.02939   0.02940   2.63938
   R29        2.03655   0.01051   0.00000   0.02767   0.02767   2.06422
   R30        2.60082   0.01483   0.00000   0.02884   0.02884   2.62966
   R31        2.03678   0.01042   0.00000   0.02744   0.02744   2.06422
   R32        2.03253   0.01117   0.00000   0.02921   0.02921   2.06174
    A1        1.89459  -0.00745   0.00000  -0.04495  -0.04470   1.84989
    A2        1.91875   0.00655   0.00000   0.03846   0.03809   1.95684
    A3        1.91871   0.00659   0.00000   0.03870   0.03832   1.95703
    A4        1.90068  -0.00082   0.00000  -0.00750  -0.00726   1.89342
    A5        1.90067  -0.00086   0.00000  -0.00777  -0.00752   1.89316
    A6        1.92988  -0.00423   0.00000  -0.01843  -0.01928   1.91060
    A7        2.00324   0.01723   0.00000   0.06454   0.06454   2.06778
    A8        2.04973  -0.00940   0.00000  -0.03533  -0.03536   2.01436
    A9        2.17435   0.00163   0.00000   0.00598   0.00594   2.18029
   A10        2.05911   0.00777   0.00000   0.02935   0.02942   2.08853
   A11        2.11541  -0.00405   0.00000  -0.01723  -0.01720   2.09821
   A12        2.06218   0.00185   0.00000   0.00764   0.00762   2.06980
   A13        2.10560   0.00220   0.00000   0.00959   0.00958   2.11518
   A14        2.10316   0.00040   0.00000   0.00193   0.00189   2.10505
   A15        2.10677  -0.00103   0.00000  -0.00562  -0.00560   2.10116
   A16        2.07325   0.00062   0.00000   0.00369   0.00371   2.07696
   A17        2.10900  -0.00527   0.00000  -0.02107  -0.02102   2.08798
   A18        2.09018   0.00500   0.00000   0.02388   0.02386   2.11403
   A19        2.08400   0.00027   0.00000  -0.00282  -0.00284   2.08116
   A20        2.10845   0.00038   0.00000   0.00316   0.00314   2.11159
   A21        2.10486  -0.00114   0.00000  -0.00696  -0.00695   2.09791
   A22        2.06987   0.00076   0.00000   0.00380   0.00381   2.07369
   A23        2.07123   0.00076   0.00000   0.00386   0.00376   2.07499
   A24        2.10599  -0.00018   0.00000  -0.00111  -0.00112   2.10488
   A25        2.10585  -0.00056   0.00000  -0.00254  -0.00254   2.10331
   A26        2.05710   0.00375   0.00000   0.01405   0.01405   2.07114
   A27        2.12143  -0.00279   0.00000  -0.01047  -0.01047   2.11096
   A28        2.10466  -0.00096   0.00000  -0.00358  -0.00358   2.10108
   A29        1.92443   0.00483   0.00000   0.02850   0.02830   1.95273
   A30        1.92055  -0.00490   0.00000  -0.03001  -0.02980   1.89075
   A31        1.92412   0.00475   0.00000   0.02799   0.02778   1.95191
   A32        1.89266  -0.00048   0.00000  -0.00491  -0.00470   1.88796
   A33        1.90950  -0.00391   0.00000  -0.01756  -0.01809   1.89141
   A34        1.89198  -0.00049   0.00000  -0.00518  -0.00498   1.88700
   A35        2.12605  -0.00524   0.00000  -0.01942  -0.01942   2.10664
   A36        2.09439   0.00394   0.00000   0.01495   0.01496   2.10935
   A37        2.06274   0.00130   0.00000   0.00447   0.00446   2.06720
   A38        2.10709  -0.00136   0.00000  -0.00606  -0.00606   2.10103
   A39        2.08624   0.00220   0.00000   0.01159   0.01160   2.09784
   A40        2.08986  -0.00083   0.00000  -0.00554  -0.00553   2.08432
   A41        2.09844   0.00293   0.00000   0.01259   0.01260   2.11104
   A42        2.09279  -0.00240   0.00000  -0.01158  -0.01158   2.08121
   A43        2.09195  -0.00053   0.00000  -0.00101  -0.00102   2.09094
   A44        2.09167  -0.00416   0.00000  -0.01693  -0.01691   2.07476
   A45        2.09585   0.00193   0.00000   0.00762   0.00762   2.10347
   A46        2.09567   0.00223   0.00000   0.00930   0.00929   2.10496
   A47        2.09532   0.00330   0.00000   0.01442   0.01442   2.10974
   A48        2.09384  -0.00074   0.00000  -0.00205  -0.00205   2.09179
   A49        2.09402  -0.00256   0.00000  -0.01237  -0.01237   2.08165
   A50        2.11112  -0.00200   0.00000  -0.00850  -0.00850   2.10261
   A51        2.07503   0.00227   0.00000   0.01139   0.01140   2.08643
   A52        2.09704  -0.00026   0.00000  -0.00290  -0.00289   2.09415
    D1       -3.13169  -0.00004   0.00000  -0.00105  -0.00105  -3.13274
    D2       -1.05430  -0.00168   0.00000  -0.01467  -0.01552  -1.06982
    D3        1.07414   0.00162   0.00000   0.01276   0.01361   1.08775
    D4        3.12761   0.00016   0.00000   0.00477   0.00475   3.13236
    D5       -0.01443   0.00009   0.00000   0.00289   0.00291  -0.01152
    D6        3.14122  -0.00007   0.00000  -0.00193  -0.00193   3.13929
    D7       -0.00016  -0.00004   0.00000  -0.00125  -0.00125  -0.00140
    D8        0.00005  -0.00000   0.00000  -0.00018  -0.00019  -0.00015
    D9       -3.14133   0.00003   0.00000   0.00051   0.00049  -3.14084
   D10       -3.14145   0.00014   0.00000   0.00366   0.00368  -3.13777
   D11       -0.00156   0.00004   0.00000   0.00118   0.00118  -0.00038
   D12       -0.00031   0.00007   0.00000   0.00176   0.00176   0.00145
   D13        3.13958  -0.00004   0.00000  -0.00073  -0.00074   3.13884
   D14        0.00029   0.00004   0.00000   0.00072   0.00071   0.00099
   D15       -3.13825   0.00005   0.00000   0.00101   0.00100  -3.13725
   D16       -3.14152   0.00001   0.00000   0.00001   0.00000  -3.14152
   D17        0.00312   0.00002   0.00000   0.00030   0.00030   0.00342
   D18       -0.00036  -0.00013   0.00000  -0.00276  -0.00275  -0.00310
   D19       -3.12653  -0.00066   0.00000  -0.01783  -0.01784   3.13881
   D20        3.13824  -0.00014   0.00000  -0.00306  -0.00306   3.13519
   D21        0.01206  -0.00067   0.00000  -0.01813  -0.01815  -0.00608
   D22        0.00024  -0.00017   0.00000  -0.00391  -0.00388  -0.00364
   D23        3.13691  -0.00011   0.00000  -0.00272  -0.00270   3.13421
   D24       -3.13966  -0.00007   0.00000  -0.00145  -0.00146  -3.14111
   D25       -0.00298  -0.00001   0.00000  -0.00027  -0.00028  -0.00326
   D26        0.00009   0.00020   0.00000   0.00435   0.00435   0.00445
   D27        3.12628   0.00073   0.00000   0.01943   0.01944  -3.13747
   D28       -3.13667   0.00015   0.00000   0.00321   0.00321  -3.13346
   D29       -0.01049   0.00068   0.00000   0.01830   0.01830   0.00781
   D30       -1.61429   0.00032   0.00000   0.00909   0.00907  -1.60521
   D31        1.52587   0.00030   0.00000   0.00856   0.00854   1.53440
   D32        1.54303  -0.00024   0.00000  -0.00634  -0.00632   1.53671
   D33       -1.60001  -0.00025   0.00000  -0.00687  -0.00685  -1.60686
   D34       -2.08616   0.00065   0.00000   0.00651   0.00680  -2.07936
   D35        0.00083  -0.00000   0.00000  -0.00058  -0.00059   0.00024
   D36        2.08679  -0.00071   0.00000  -0.00833  -0.00862   2.07818
   D37        1.05685   0.00066   0.00000   0.00705   0.00734   1.06419
   D38       -3.13934   0.00001   0.00000  -0.00005  -0.00005  -3.13938
   D39       -1.05337  -0.00069   0.00000  -0.00779  -0.00808  -1.06145
   D40       -3.13889   0.00009   0.00000   0.00289   0.00289  -3.13601
   D41        0.00495   0.00008   0.00000   0.00257   0.00257   0.00753
   D42        0.00122   0.00008   0.00000   0.00235   0.00235   0.00358
   D43       -3.13812   0.00006   0.00000   0.00204   0.00204  -3.13608
   D44       -3.13896  -0.00004   0.00000  -0.00092  -0.00092  -3.13988
   D45        0.00251  -0.00003   0.00000  -0.00060  -0.00060   0.00191
   D46        0.00042  -0.00002   0.00000  -0.00059  -0.00060  -0.00018
   D47       -3.14130  -0.00001   0.00000  -0.00028  -0.00028  -3.14158
   D48        3.13891   0.00004   0.00000   0.00113   0.00113   3.14005
   D49       -0.00249   0.00004   0.00000   0.00114   0.00114  -0.00135
   D50       -0.00051   0.00003   0.00000   0.00086   0.00086   0.00035
   D51        3.14127   0.00004   0.00000   0.00087   0.00087  -3.14105
   D52       -0.00003   0.00000   0.00000   0.00002   0.00001  -0.00001
   D53        3.14152   0.00001   0.00000   0.00021   0.00020  -3.14146
   D54       -3.14150  -0.00001   0.00000  -0.00030  -0.00030   3.14139
   D55        0.00005  -0.00001   0.00000  -0.00011  -0.00011  -0.00006
   D56       -0.00028   0.00001   0.00000   0.00032   0.00032   0.00004
   D57        3.14150   0.00001   0.00000   0.00013   0.00013  -3.14156
   D58        3.14136   0.00001   0.00000   0.00013   0.00013   3.14149
   D59       -0.00004  -0.00000   0.00000  -0.00006  -0.00006  -0.00011
   D60        0.00019  -0.00000   0.00000  -0.00006  -0.00006   0.00013
   D61       -3.14110  -0.00002   0.00000  -0.00046  -0.00046  -3.14156
   D62       -3.14159   0.00001   0.00000   0.00013   0.00013  -3.14146
   D63        0.00030  -0.00001   0.00000  -0.00027  -0.00027   0.00003
   D64        0.00021  -0.00002   0.00000  -0.00054  -0.00054  -0.00033
   D65       -3.14157  -0.00002   0.00000  -0.00055  -0.00055   3.14106
   D66        3.14150  -0.00001   0.00000  -0.00014  -0.00014   3.14136
   D67       -0.00028  -0.00001   0.00000  -0.00015  -0.00015  -0.00043
         Item               Value     Threshold  Converged?
 Maximum Force            0.037516     0.000450     NO 
 RMS     Force            0.006614     0.000300     NO 
 Maximum Displacement     0.311743     0.001800     NO 
 RMS     Displacement     0.048505     0.001200     NO 
 Predicted change in Energy=-8.933464D-03
 GradGradGradGradGradGradGradGradGradGradGradGradGradGradGradGradGradGrad

                          Input orientation:                          
 ---------------------------------------------------------------------
 Center     Atomic      Atomic             Coordinates (Angstroms)
 Number     Number       Type             X           Y           Z
 ---------------------------------------------------------------------
      1          6           0        5.050888   -0.653596    1.128522
      2          8           0        4.297284   -0.692118   -0.059970
      3          6           0        3.016205   -0.227762   -0.032424
      4          6           0        2.330650   -0.285337   -1.249956
      5          6           0        1.018339    0.159311   -1.334552
      6          6           0        2.372300    0.281113    1.102032
      7          6           0        1.053730    0.723428    1.005976
      8          6           0        0.364782    0.671062   -0.206810
      9          7           0       -0.979204    1.129881   -0.294539
     10          6           0       -1.218583    2.530501   -0.582443
     11          6           0       -2.045579    0.257697   -0.111339
     12          6           0       -3.373013    0.715803   -0.205896
     13          6           0       -4.437894   -0.164723   -0.018846
     14          6           0       -4.213674   -1.511215    0.264456
     15          6           0       -2.898060   -1.970499    0.359312
     16          6           0       -1.824321   -1.104625    0.175546
     17          1           0        6.036970   -1.061086    0.874383
     18          1           0        5.183621    0.375392    1.502958
     19          1           0        4.608113   -1.279206    1.921733
     20          1           0        2.849475   -0.686117   -2.123457
     21          1           0        0.479195    0.111883   -2.282725
     22          1           0        2.883123    0.334584    2.063350
     23          1           0        0.540452    1.115518    1.886236
     24          1           0       -1.773772    3.028621    0.231009
     25          1           0       -0.249153    3.030780   -0.691025
     26          1           0       -1.781844    2.666059   -1.521765
     27          1           0       -3.577125    1.764251   -0.426644
     28          1           0       -5.460769    0.210706   -0.096559
     29          1           0       -5.053203   -2.194816    0.409656
     30          1           0       -2.704037   -3.022446    0.580584
     31          1           0       -0.802476   -1.478927    0.253431
 ---------------------------------------------------------------------
                    Distance matrix (angstroms):
                    1          2          3          4          5
     1  C    0.000000
     2  O    1.407806   0.000000
     3  C    2.380980   1.362920   0.000000
     4  C    3.632144   2.334349   1.398458   0.000000
     5  C    4.794685   3.619526   2.415953   1.388175   0.000000
     6  C    2.837115   2.450101   1.400199   2.419597   2.790159
     7  C    4.229479   3.696033   2.415439   2.781612   2.407811
     8  C    5.049497   4.164660   2.805056   2.422291   1.400296
     9  N    6.447318   5.587131   4.227906   3.724353   2.452308
    10  C    7.236861   6.409606   5.083696   4.579474   3.345450
    11  C    7.261374   6.413790   5.085622   4.554417   3.300534
    12  C    8.638174   7.799808   6.460845   5.884227   4.568098
    13  C    9.570394   8.751181   7.454377   6.880652   5.621971
    14  C    9.344208   8.556435   7.348913   6.828206   5.720266
    15  C    8.093930   7.320044   6.178116   5.724415   4.769009
    16  C    6.955580   6.140007   4.923701   4.468454   3.458128
    17  H    1.096810   2.008895   3.262170   4.341821   5.617421
    18  H    1.103012   2.089956   2.723763   4.019271   5.044574
    19  H    1.103006   2.090080   2.731014   4.029172   5.055611
    20  H    3.927168   2.520747   2.147163   1.092157   2.165682
    21  H    5.755253   4.490530   3.408171   2.156915   1.091767
    22  H    2.559220   2.749992   2.173985   3.415776   3.879933
    23  H    4.903869   4.600984   3.408080   3.873359   3.393551
    24  H    7.806423   7.126450   5.798043   5.479220   4.298814
    25  H    6.706401   5.910016   4.659872   4.238446   3.204060
    26  H    8.045518   7.097182   5.797724   5.069243   3.762959
    27  H    9.094346   8.256786   6.898951   6.307175   4.951608
    28  H   10.618040   9.799797   8.488548   7.891932   6.596522
    29  H   10.246209   9.482102   8.317456   7.805236   6.741498
    30  H    8.127149   7.406702   6.395874   6.015872   5.258080
    31  H    5.975687   5.169608   4.028579   3.674413   2.919055
                    6          7          8          9         10
     6  C    0.000000
     7  C    1.394093   0.000000
     8  C    2.428015   1.395794   0.000000
     9  N    3.728726   2.447318   1.422853   0.000000
    10  C    4.559785   3.309380   2.470963   1.449803   0.000000
    11  C    4.581535   3.327313   2.447411   1.389756   2.464041
    12  C    5.908320   4.589635   3.738063   2.430975   2.841916
    13  C    6.916204   5.656589   4.878479   3.703315   4.236253
    14  C    6.876701   5.769664   5.093788   4.213034   5.101301
    15  C    5.779108   4.826185   4.236092   3.704306   4.895564
    16  C    4.515559   3.509212   2.844544   2.434794   3.762394
    17  H    3.909365   5.294761   6.028518   7.442675   8.225867
    18  H    2.841330   4.174221   5.121712   6.463796   7.069767
    19  H    2.846993   4.181243   5.132261   6.475622   7.398322
    20  H    3.401031   3.873612   3.418943   4.615363   5.410217
    21  H    3.881889   3.394058   2.152950   2.667608   3.409270
    22  H    1.089923   2.148469   3.407182   4.594531   5.352221
    23  H    2.160295   1.091809   2.146915   2.658071   3.345259
    24  H    5.049494   3.729511   3.212971   2.124324   1.103658
    25  H    4.200921   3.146616   2.485890   2.074510   1.096295
    26  H    5.461610   4.266588   3.212028   2.123713   1.103614
    27  H    6.319193   4.957875   4.096586   2.677512   2.484780
    28  H    7.924553   6.627002   5.844752   4.579137   4.859390
    29  H    7.857970   6.794584   6.160182   5.305371   6.165808
    30  H    6.079030   5.322907   4.866173   4.580689   5.864676
    31  H    3.727877   2.976944   2.489330   2.671588   4.116715
                   11         12         13         14         15
    11  C    0.000000
    12  C    1.407439   0.000000
    13  C    2.431083   1.394376   0.000000
    14  C    2.823279   2.426427   1.394121   0.000000
    15  C    2.431685   2.785903   2.403105   1.396702   0.000000
    16  C    1.409674   2.420311   2.784235   2.425330   1.391554
    17  H    8.248541   9.637018  10.551023  10.278634   8.995949
    18  H    7.408180   8.732242   9.756083   9.664487   8.492626
    19  H    7.125101   8.497367   9.318699   8.979104   7.698161
[...]
    16  C    0.003496   0.009537  -0.073969   0.012461   0.409138   0.024995
    17  H    0.000273  -0.000052   0.000000   0.000000   0.000000   0.000000
    18  H   -0.000938   0.000319   0.000002   0.000002  -0.000001  -0.000000
    19  H   -0.000439  -0.000081  -0.000003  -0.000001   0.000002   0.000000
    20  H   -0.007528   0.016512  -0.000178  -0.000006  -0.000016  -0.000001
    21  H    0.013936  -0.050184  -0.004295  -0.000051   0.002272   0.000830
    22  H   -0.016790   0.010974  -0.000388   0.000031  -0.000040  -0.000003
    23  H    0.420594  -0.043606   0.005501  -0.001152   0.001683   0.000022
    24  H   -0.001988   0.014305  -0.044425   0.412724  -0.010638  -0.000479
    25  H   -0.006002  -0.004358  -0.029171   0.407046   0.007862   0.000476
    26  H    0.004835  -0.005913  -0.053680   0.408716  -0.001928   0.007199
    27  H    0.000008  -0.000554  -0.004878   0.004354  -0.054685   0.426558
    28  H    0.000000   0.000026  -0.000111  -0.000012   0.013394  -0.055779
    29  H    0.000001  -0.000003   0.000025  -0.000001  -0.003604   0.013004
    30  H   -0.000019   0.000155  -0.000160   0.000019   0.013211  -0.003254
    31  H   -0.000869   0.001350  -0.006536  -0.000484  -0.044464   0.007319
              13         14         15         16         17         18
     1  C   -0.000000   0.000000  -0.000000  -0.000002   0.401408   0.412356
     2  O    0.000000  -0.000000   0.000001   0.000013  -0.030397  -0.041605
     3  C   -0.000004   0.000003  -0.000029   0.000243   0.006869  -0.017207
     4  C    0.000074  -0.000002  -0.000077  -0.004885  -0.000419   0.000624
     5  C    0.000348  -0.000015   0.002003  -0.005438   0.000111  -0.000334
     6  C   -0.000021   0.000012  -0.000181  -0.000890  -0.002520   0.013028
     7  C   -0.000141   0.000090   0.000455   0.003496   0.000273  -0.000938
     8  C   -0.000159  -0.000066  -0.001763   0.009537  -0.000052   0.000319
     9  N    0.002226   0.000321   0.003855  -0.073969   0.000000   0.000002
    10  C   -0.002038   0.000229  -0.000162   0.012461   0.000000   0.000002
    11  C   -0.006802  -0.068753  -0.014524   0.409138   0.000000  -0.000001
    12  C    0.459302   0.011336  -0.072227   0.024995   0.000000  -0.000000
    13  C    4.859814   0.476916  -0.000279  -0.056412  -0.000000   0.000000
    14  C    0.476916   4.947869   0.456469  -0.002688  -0.000000  -0.000000
    15  C   -0.000279   0.456469   4.912787   0.470455   0.000000   0.000000
    16  C   -0.056412  -0.002688   0.470455   5.072641   0.000000   0.000001
    17  H   -0.000000  -0.000000   0.000000   0.000000   0.522627  -0.019762
    18  H    0.000000  -0.000000   0.000000   0.000001  -0.019762   0.587312
    19  H   -0.000000   0.000000  -0.000000  -0.000005  -0.019591  -0.055925
    20  H    0.000000  -0.000000  -0.000013  -0.000089  -0.000202   0.000097
    21  H   -0.000022  -0.000010   0.000028   0.000518   0.000000  -0.000002
    22  H    0.000000  -0.000000   0.000000   0.000007  -0.000359   0.000885
    23  H   -0.000009   0.000007  -0.000021  -0.000284   0.000001  -0.000045
    24  H    0.001870  -0.000265   0.000048   0.000025  -0.000000  -0.000000
    25  H    0.000104  -0.000016   0.000051  -0.000444  -0.000000   0.000002
    26  H   -0.001266   0.000147  -0.000216   0.000481   0.000000  -0.000000
    27  H   -0.020364   0.005277  -0.000440   0.003362   0.000000  -0.000000
    28  H    0.436686  -0.055426   0.010200  -0.002808  -0.000000   0.000000
    29  H   -0.059766   0.447021  -0.060102   0.012189   0.000000  -0.000000
    30  H    0.010779  -0.057547   0.439401  -0.055493   0.000000   0.000000
    31  H   -0.001917   0.007438  -0.041729   0.431108  -0.000000  -0.000001
              19         20         21         22         23         24
     1  C    0.413599  -0.000159   0.000019   0.009498  -0.000118  -0.000000
     2  O   -0.041513   0.008552  -0.000105  -0.006100  -0.000069   0.000000
     3  C   -0.016261  -0.079492   0.013900  -0.069174   0.006980  -0.000050
     4  C    0.000584   0.453656  -0.057726   0.003976  -0.002086   0.000239
     5  C    0.000012  -0.060475   0.446212  -0.001466   0.009459  -0.000069
     6  C    0.011121   0.020979  -0.005574   0.428062  -0.035254  -0.000501
     7  C   -0.000439  -0.007528   0.013936  -0.016790   0.420594  -0.001988
     8  C   -0.000081   0.016512  -0.050184   0.010974  -0.043606   0.014305
     9  N   -0.000003  -0.000178  -0.004295  -0.000388   0.005501  -0.044425
    10  C   -0.000001  -0.000006  -0.000051   0.000031  -0.001152   0.412724
    11  C    0.000002  -0.000016   0.002272  -0.000040   0.001683  -0.010638
    12  C    0.000000  -0.000001   0.000830  -0.000003   0.000022  -0.000479
    13  C   -0.000000   0.000000  -0.000022   0.000000  -0.000009   0.001870
    14  C    0.000000  -0.000000  -0.000010  -0.000000   0.000007  -0.000265
    15  C   -0.000000  -0.000013   0.000028   0.000000  -0.000021   0.000048
    16  C   -0.000005  -0.000089   0.000518   0.000007  -0.000284   0.000025
    17  H   -0.019591  -0.000202   0.000000  -0.000359   0.000001  -0.000000
    18  H   -0.055925   0.000097  -0.000002   0.000885  -0.000045  -0.000000
    19  H    0.585062   0.000135  -0.000000   0.000725   0.000013   0.000000
    20  H    0.000135   0.531552  -0.008372  -0.000000   0.000027  -0.000000
    21  H   -0.000000  -0.008372   0.511411  -0.000002  -0.000151  -0.000034
    22  H    0.000725  -0.000000  -0.000002   0.511986  -0.005344   0.000009
    23  H    0.000013   0.000027  -0.000151  -0.005344   0.515655  -0.000723
    24  H    0.000000  -0.000000  -0.000034   0.000009  -0.000723   0.567063
    25  H   -0.000000   0.000006  -0.000162   0.000038  -0.001283  -0.014570
    26  H    0.000000   0.000001   0.000477  -0.000010   0.000415  -0.050525
    27  H    0.000000   0.000000  -0.000003  -0.000000   0.000008  -0.006353
    28  H   -0.000000  -0.000000  -0.000001  -0.000000  -0.000000  -0.000018
    29  H    0.000000   0.000000   0.000001  -0.000000   0.000000  -0.000001
    30  H   -0.000000   0.000000  -0.000001   0.000000  -0.000000  -0.000000
    31  H    0.000009   0.000010  -0.000156  -0.000006   0.000061  -0.000003
              25         26         27         28         29         30
     1  C   -0.000002   0.000000   0.000000  -0.000000   0.000000  -0.000000
     2  O   -0.000001   0.000000   0.000000   0.000000  -0.000000   0.000000
     3  C   -0.000309   0.000107   0.000000  -0.000000   0.000000  -0.000004
     4  C    0.000671  -0.001392  -0.000011  -0.000000  -0.000000   0.000006
     5  C    0.000263  -0.000078   0.000048  -0.000002   0.000001  -0.000036
     6  C   -0.000967   0.000477   0.000011   0.000000  -0.000000   0.000002
     7  C   -0.006002   0.004835   0.000008   0.000000   0.000001  -0.000019
     8  C   -0.004358  -0.005913  -0.000554   0.000026  -0.000003   0.000155
     9  N   -0.029171  -0.053680  -0.004878  -0.000111   0.000025  -0.000160
    10  C    0.407046   0.408716   0.004354  -0.000012  -0.000001   0.000019
    11  C    0.007862  -0.001928  -0.054685   0.013394  -0.003604   0.013211
    12  C    0.000476   0.007199   0.426558  -0.055779   0.013004  -0.003254
    13  C    0.000104  -0.001266  -0.020364   0.436686  -0.059766   0.010779
    14  C   -0.000016   0.000147   0.005277  -0.055426   0.447021  -0.057547
    15  C    0.000051  -0.000216  -0.000440   0.010200  -0.060102   0.439401
    16  C   -0.000444   0.000481   0.003362  -0.002808   0.012189  -0.055493
    17  H   -0.000000   0.000000   0.000000  -0.000000   0.000000   0.000000
    18  H    0.000002  -0.000000  -0.000000   0.000000  -0.000000   0.000000
    19  H   -0.000000   0.000000   0.000000  -0.000000   0.000000  -0.000000
    20  H    0.000006   0.000001   0.000000  -0.000000   0.000000   0.000000
    21  H   -0.000162   0.000477  -0.000003  -0.000001   0.000001  -0.000001
    22  H    0.000038  -0.000010  -0.000000  -0.000000  -0.000000   0.000000
    23  H   -0.001283   0.000415   0.000008  -0.000000   0.000000  -0.000000
    24  H   -0.014570  -0.050525  -0.006353  -0.000018  -0.000001  -0.000000
    25  H    0.517026  -0.024396   0.000491  -0.000000  -0.000000  -0.000000
    26  H   -0.024396   0.588930   0.001766  -0.000006   0.000001  -0.000001
    27  H    0.000491   0.001766   0.524641  -0.006850  -0.000155   0.000040
    28  H   -0.000000  -0.000006  -0.006850   0.555830  -0.007077  -0.000184
    29  H   -0.000000   0.000001  -0.000155  -0.007077   0.554557  -0.007008
    30  H   -0.000000  -0.000001   0.000040  -0.000184  -0.007008   0.553844
    31  H   -0.000012   0.000042  -0.000157   0.000030  -0.000108  -0.007176
              31
     1  C   -0.000001
     2  O   -0.000026
     3  C    0.000412
     4  C   -0.000334
     5  C   -0.000617
     6  C    0.000471
     7  C   -0.000869
     8  C    0.001350
     9  N   -0.006536
    10  C   -0.000484
    11  C   -0.044464
    12  C    0.007319
    13  C   -0.001917
    14  C    0.007438
    15  C   -0.041729
    16  C    0.431108
    17  H   -0.000000
    18  H   -0.000001
    19  H    0.000009
    20  H    0.000010
    21  H   -0.000156
    22  H   -0.000006
    23  H    0.000061
    24  H   -0.000003
    25  H   -0.000012
    26  H    0.000042
    27  H   -0.000157
    28  H    0.000030
    29  H   -0.000108
    30  H   -0.007176
    31  H    0.508775
 Mulliken charges:
               1
     1  C   -0.209137
     2  O   -0.284026
     3  C    0.346916
     4  C   -0.149569
     5  C   -0.252777
     6  C   -0.199435
     7  C   -0.261516
     8  C    0.133585
     9  N   -0.059194
    10  C   -0.308827
    11  C    0.239055
    12  C   -0.307621
    13  C   -0.098920
    14  C   -0.168346
    15  C   -0.103988
    16  C   -0.247266
    17  H    0.142014
    18  H    0.121192
    19  H    0.122558
    20  H    0.125005
    21  H    0.137248
    22  H    0.133489
    23  H    0.129719
    24  H    0.134356
    25  H    0.147658
    26  H    0.125815
    27  H    0.127884
    28  H    0.112108
    29  H    0.111024
    30  H    0.113426
    31  H    0.147572
 Sum of Mulliken charges =  -0.00000
 Mulliken charges with hydrogens summed into heavy atoms:
               1
     1  C    0.176626
     2  O   -0.284026
     3  C    0.346916
     4  C   -0.024564
     5  C   -0.115529
     6  C   -0.065947
     7  C   -0.131797
     8  C    0.133585
     9  N   -0.059194
    10  C    0.099002
    11  C    0.239055
    12  C   -0.179737
    13  C    0.013188
    14  C   -0.057321
    15  C    0.009439
    16  C   -0.099694
 Electronic spatial extent (au):  <R**2>=           4711.2041
 Charge=              0.0000 electrons
 Dipole moment (field-independent basis, Debye):
    X=             -2.2795    Y=              1.2066    Z=             -0.6768  Tot=              2.6665
 Quadrupole moment (field-independent basis, Debye-Ang):
   XX=            -84.3960   YY=            -90.3610   ZZ=            -95.1909
   XY=              1.9678   XZ=              7.1911   YZ=             -0.1337
 Traceless Quadrupole moment (field-independent basis, Debye-Ang):
   XX=              5.5866   YY=             -0.3783   ZZ=             -5.2083
   XY=              1.9678   XZ=              7.1911   YZ=             -0.1337
 Octapole moment (field-independent basis, Debye-Ang**2):
  XXX=            -85.5066  YYY=              3.3087  ZZZ=              4.6014  XYY=              6.7003
  XXY=             -1.1210  XXZ=            -19.8667  XZZ=            -23.5299  YZZ=              1.5224
  YYZ=             -4.1967  XYZ=              5.6026
 Hexadecapole moment (field-independent basis, Debye-Ang**3):
 XXXX=          -4534.4057 YYYY=           -855.1943 ZZZZ=           -363.5100 XXXY=             55.3941
 XXXZ=            154.0786 YYYX=             12.4259 YYYZ=              9.4239 ZZZX=              4.8977
 ZZZY=            -19.1876 XXYY=           -976.6956 XXZZ=           -963.2687 YYZZ=           -211.8129
 XXYZ=             20.0764 YYXZ=             -5.0210 ZZXY=             19.9570
 N-N= 1.019406799745D+03 E-N=-3.602182259247D+03  KE= 6.688039219607D+02
 Breneman (CHELPG) radii used.
 Read replacement radii for each type of atom:
 Atom Element Radius
    1     6    1.50
    2     8    1.70
    3     6    1.50
    4     6    1.50
    5     6    1.50
    6     6    1.50
    7     6    1.50
    8     6    1.50
    9     7    1.70
   10     6    1.50
   11     6    1.50
   12     6    1.50
   13     6    1.50
   14     6    1.50
   15     6    1.50
   16     6    1.50
   17     1    1.45
   18     1    1.45
   19     1    1.45
   20     1    1.45
   21     1    1.45
   22     1    1.45
   23     1    1.45
   24     1    1.45
   25     1    1.45
   26     1    1.45
   27     1    1.45
   28     1    1.45
   29     1    1.45
   30     1    1.45
   31     1    1.45
 Generate Potential Derived Charges using the Breneman model, NDens= 1.
 Grid spacing= 0.300 Box extension= 2.800
 NStep X,Y,Z=   59     40     34   Total possible points=       80240
 Number of Points to Fit=   19099

 **********************************************************************

            Electrostatic Properties Using The SCF Density.

 **********************************************************************

       Atomic Center    1 is at  -5.225207 -0.568990 -0.510656
       Atomic Center    2 is at  -4.243939 -0.786308  0.464878
       Atomic Center    3 is at  -3.001173 -0.299189  0.264739
       Atomic Center    4 is at  -2.064822 -0.557630  1.277737
       Atomic Center    5 is at  -0.765612 -0.089952  1.166373
       Atomic Center    6 is at  -2.606849  0.426369 -0.863504
       Atomic Center    7 is at  -1.288486  0.875176 -0.971667
       Atomic Center    8 is at  -0.357217  0.633246  0.035348
       Atomic Center    9 is at   0.969504  1.134045 -0.074742
       Atomic Center   10 is at   1.174828  2.542909  0.176645
       Atomic Center   11 is at   2.053523  0.263037 -0.090492
       Atomic Center   12 is at   3.356437  0.708861  0.203374
       Atomic Center   13 is at   4.437071 -0.170502  0.153543
       Atomic Center   14 is at   4.259662 -1.509917 -0.179260
       Atomic Center   15 is at   2.970210 -1.959565 -0.470143
       Atomic Center   16 is at   1.883548 -1.095597 -0.431754
       Atomic Center   17 is at  -6.143664 -1.044225 -0.145263
       Atomic Center   18 is at  -5.418798  0.507101 -0.665755
       Atomic Center   19 is at  -4.949894 -1.023793 -1.478506
       Atomic Center   20 is at  -2.390560 -1.124006  2.151807
       Atomic Center   21 is at  -0.041256 -0.291271  1.958718
       Atomic Center   22 is at  -3.307054  0.639451 -1.671236
       Atomic Center   23 is at  -0.974017  1.425164 -1.861374
       Atomic Center   24 is at   1.913521  2.967166 -0.522297
       Atomic Center   25 is at   0.225642  3.072821  0.029093
       Atomic Center   26 is at   1.520892  2.748252  1.208265
       Atomic Center   27 is at   3.536917  1.747314  0.480135
       Atomic Center   28 is at   5.435567  0.206898  0.387710
       Atomic Center   29 is at   5.109499 -2.193894 -0.213078
       Atomic Center   30 is at   2.804620 -3.005444 -0.740174
       Atomic Center   31 is at   0.888081 -1.468924 -0.675562
   19099 points will be used for fitting atomic charges
 Fitting point charges to electrostatic potential
 Charges from ESP fit, RMS=   0.00371 RRMS=   0.32262:
 ESP charges:
               1
     1  C    0.142368
     2  O   -0.365005
     3  C    0.402787
     4  C   -0.315820
     5  C   -0.053404
     6  C   -0.267057
     7  C   -0.160923
     8  C    0.252137
     9  N   -0.407718
    10  C    0.078985
    11  C    0.369632
    12  C   -0.257301
    13  C   -0.054705
    14  C   -0.186903
    15  C   -0.046474
    16  C   -0.238775
    17  H    0.052863
    18  H    0.005588
    19  H    0.011323
    20  H    0.150390
    21  H    0.086618
    22  H    0.137170
    23  H    0.125288
    24  H    0.028513
    25  H    0.018882
    26  H    0.011622
    27  H    0.116548
    28  H    0.089629
    29  H    0.100336
    30  H    0.094126
    31  H    0.079279
 Sum of ESP charges =   0.00000
 ESP charges with hydrogens summed into heavy atoms:
               1
     1  C    0.212142
     2  O   -0.365005
     3  C    0.402787
     4  C   -0.165430
     5  C    0.033214
     6  C   -0.129887
     7  C   -0.035636
     8  C    0.252137
     9  N   -0.407718
    10  C    0.138002
    11  C    0.369632
    12  C   -0.140752
    13  C    0.034924
    14  C   -0.086567
    15  C    0.047652
    16  C   -0.159496
 Charge=   0.00000 Dipole=    -2.1990     1.2211    -0.7134 Tot=     2.6145
 -----------------------------------------------------------------

              Electrostatic Properties (Atomic Units)

 -----------------------------------------------------------------
    Center     Electric         -------- Electric Field --------
               Potential          X             Y             Z
 -----------------------------------------------------------------
    1 Atom    -14.709109
    2 Atom    -22.320624
    3 Atom    -14.703079
    4 Atom    -14.769083
    5 Atom    -14.765654
    6 Atom    -14.764444
    7 Atom    -14.764420
    8 Atom    -14.735001
    9 Atom    -18.365357
   10 Atom    -14.738920
   11 Atom    -14.732317
   12 Atom    -14.782776
   13 Atom    -14.778560
   14 Atom    -14.788460
   15 Atom    -14.779233
   16 Atom    -14.784738
   17 Atom     -1.100003
   18 Atom     -1.101527
   19 Atom     -1.101602
   20 Atom     -1.101821
   21 Atom     -1.102197
   22 Atom     -1.093973
   23 Atom     -1.100157
   24 Atom     -1.113911
   25 Atom     -1.107672
   26 Atom     -1.117858
   27 Atom     -1.114139
   28 Atom     -1.117765
   29 Atom     -1.121586
   30 Atom     -1.118663
   31 Atom     -1.118040
 -----------------------------------------------------------------
 Unable to Open any file for archive entry.
 1\1\GINC-NOTCH445\SP\RwB97XD\def2TZVP\C14H15N1O1\U1366379\17-Feb-2026\
 0\\#N Guess=Read Geom=Check Integral(Ultrafine) Density Pop=(ChelpG,Re
 adRadii) NMR wB97XD def2TZVP\\prod_5e_3\\0,1\C,0,5.1670278962,-0.54574
 81694,0.8932439\O,0,4.2536320729,-0.7750999305,-0.1435227442\C,0,2.999
 0018797,-0.2902188518,-0.0312695538\C,0,2.1330312711,-0.5608864128,-1.
 1020369434\C,0,0.8280597889,-0.096434476,-1.0819414394\C,0,2.528348355
 8,0.444272587,1.0613725949\C,0,1.2045288809,0.8897627123,1.0771711752\
 C,0,0.3431866219,0.6356761633,0.0125586217\N,0,-0.9892372207,1.1331470
 525,0.0292403725\C,0,-1.1810325277,2.5389959821,-0.2483458995\C,0,-2.0
 695942794,0.2588042911,-0.0192840614\C,0,-3.3511583144,0.6977109263,-0
 .4035432737\C,0,-4.4303909534,-0.184665534,-0.4177604392\C,0,-4.272065
 1644,-1.5204198689,-0.0614496073\C,0,-3.0037232793,-1.9632208114,0.318
 9701906\C,0,-1.9191998869,-1.0961157049,0.345148382\H,0,6.1090721079,-
 1.021298432,0.5943653843\H,0,5.3470036067,0.5323299375,1.0509220322\H,
 0,4.8289315241,-0.992632915,1.8447484092\H,0,2.5178695347,-1.134117109
 3,-1.9471356629\H,0,0.1587335303,-0.3072914543,-1.9189444551\H,0,3.172
 5197942,0.6669524475,1.9120073028\H,0,0.8299346417,1.4467856183,1.9387
 754497\H,0,-1.9658414778,2.9671838033,0.3957903322\H,0,-0.2452088925,3
 .0733033237,-0.042720785\H,0,-1.4580124963,2.7338366884,-1.302615759\H
 ,0,-3.5154969937,1.7330162404,-0.7013508106\H,0,-5.4120216639,0.187350
 1868,-0.7215113122\H,0,-5.1204608227,-2.2068165465,-0.0780592914\H,0,-
 2.8537722701,-3.0060616043,0.6091387325\H,0,-0.9412452637,-1.463980139
 4,0.6582791585\\Version=ES64L-G16RevC.01\State=1-A\HF=-672.4928667\RMS
 D=1.280e-09\Dipole=0.8758148,0.4800055,0.3210866\Quadrupole=3.4133743,
 -0.2889124,-3.1244619,-1.4024493,5.846474,-0.0093864\PG=C01 [X(C14H15N
 1O1)]\\@
 The archive entry for this job was punched.


 SACRED COWS MAKE GREAT HAMBURGERS -- ROBERT REISNER
 Job cpu time:       0 days  0 hours 44 minutes 20.3 seconds.
 Elapsed time:       0 days  0 hours  5 minutes 43.2 seconds.
 File lengths (MBytes):  RWF=    209 Int=      0 D2E=      0 Chk=     32 Scr=      2
 Normal termination of Gaussian 16 at Tue Feb 17 16:24:50 2026.
