 Entering Gaussian System, Link 0=g16
 Input=prod_5l_3.com
 Output=prod_5l_3.log
 Initial command:
 /uufs/chpc.utah.edu/sys/installdir/gaussian16/C01/AVX/g16/l1.exe "/scratch/general/vast/u1366379/GAUSSSCRDIR/11028716-notchpeak.peaks/Gau-1294090.inp" -scrdir="/scratch/general/vast/u1366379/GAUSSSCRDIR/11028716-notchpeak.peaks/"
 Entering Link 1 = /uufs/chpc.utah.edu/sys/installdir/gaussian16/C01/AVX/g16/l1.exe PID=   1294092.
  
 Copyright (c) 1988-2019, Gaussian, Inc.  All Rights Reserved.
  
 This is part of the Gaussian(R) 16 program.  It is based on
 the Gaussian(R) 09 system (copyright 2009, Gaussian, Inc.),
 the Gaussian(R) 03 system (copyright 2003, Gaussian, Inc.),
 the Gaussian(R) 98 system (copyright 1998, Gaussian, Inc.),
 the Gaussian(R) 94 system (copyright 1995, Gaussian, Inc.),
 the Gaussian 92(TM) system (copyright 1992, Gaussian, Inc.),
 the Gaussian 90(TM) system (copyright 1990, Gaussian, Inc.),
 the Gaussian 88(TM) system (copyright 1988, Gaussian, Inc.),
 the Gaussian 86(TM) system (copyright 1986, Carnegie Mellon
 University), and the Gaussian 82(TM) system (copyright 1983,
 Carnegie Mellon University). Gaussian is a federally registered
 trademark of Gaussian, Inc.
  
 This software contains proprietary and confidential information,
 including trade secrets, belonging to Gaussian, Inc.
  
 This software is provided under written license and may be
 used, copied, transmitted, or stored only in accord with that
 written license.
  
 The following legend is applicable only to US Government
 contracts under FAR:
  
                    RESTRICTED RIGHTS LEGEND
  
 Use, reproduction and disclosure by the US Government is
 subject to restrictions as set forth in subparagraphs (a)
 and (c) of the Commercial Computer Software - Restricted
 Rights clause in FAR 52.227-19.
  
 Gaussian, Inc.
 340 Quinnipiac St., Bldg. 40, Wallingford CT 06492
  
  
 ---------------------------------------------------------------
 Warning -- This program may not be used in any manner that
 competes with the business of Gaussian, Inc. or will provide
 assistance to any competitor of Gaussian, Inc.  The licensee
 of this program is prohibited from giving any competitor of
 Gaussian, Inc. access to this program.  By using this program,
 the user acknowledges that Gaussian, Inc. is engaged in the
 business of creating and licensing software in the field of
 computational chemistry and represents and warrants to the
 licensee that it is not a competitor of Gaussian, Inc. and that
 it will not use this program in any manner prohibited above.
 ---------------------------------------------------------------
  

 Cite this work as:
 Gaussian 16, Revision C.01,
 M. J. Frisch, G. W. Trucks, H. B. Schlegel, G. E. Scuseria, 
 M. A. Robb, J. R. Cheeseman, G. Scalmani, V. Barone, 
 G. A. Petersson, H. Nakatsuji, X. Li, M. Caricato, A. V. Marenich, 
 J. Bloino, B. G. Janesko, R. Gomperts, B. Mennucci, H. P. Hratchian, 
 J. V. Ortiz, A. F. Izmaylov, J. L. Sonnenberg, D. Williams-Young, 
 F. Ding, F. Lipparini, F. Egidi, J. Goings, B. Peng, A. Petrone, 
 T. Henderson, D. Ranasinghe, V. G. Zakrzewski, J. Gao, N. Rega, 
 G. Zheng, W. Liang, M. Hada, M. Ehara, K. Toyota, R. Fukuda, 
 J. Hasegawa, M. Ishida, T. Nakajima, Y. Honda, O. Kitao, H. Nakai, 
 T. Vreven, K. Throssell, J. A. Montgomery, Jr., J. E. Peralta, 
 F. Ogliaro, M. J. Bearpark, J. J. Heyd, E. N. Brothers, K. N. Kudin, 
 V. N. Staroverov, T. A. Keith, R. Kobayashi, J. Normand, 
 K. Raghavachari, A. P. Rendell, J. C. Burant, S. S. Iyengar, 
 J. Tomasi, M. Cossi, J. M. Millam, M. Klene, C. Adamo, R. Cammi, 
 J. W. Ochterski, R. L. Martin, K. Morokuma, O. Farkas, 
 J. B. Foresman, and D. J. Fox, Gaussian, Inc., Wallingford CT, 2019.
 
 ******************************************
 Gaussian 16:  ES64L-G16RevC.01  3-Jul-2019
                17-Feb-2026 
 ******************************************
 %NProcShared=8
 Will use up to    8 processors via shared memory.
 %Mem=8GB
 %chk=prod_5l_3.chk
 ------------------------------------------------------
 #N OPT FREQ=NORAMAN Integral(Ultrafine) wB97XD def2SVP
 ------------------------------------------------------
 1/18=20,19=15,26=4,38=1/1,3;
 2/9=110,12=2,17=6,18=5,40=1/2;
 3/5=43,7=101,11=2,25=1,30=1,71=1,74=-58,75=-5/1,2,3;
 4//1;
 5/5=2,38=5/2;
 6/7=2,8=2,9=2,10=2,28=1/1;
 7//1,2,3,16;
 1/18=20,19=15,26=4/3(2);
 2/9=110/2;
 99//99;
 2/9=110/2;
 3/5=43,7=101,11=2,25=1,30=1,71=1,74=-58,75=-5/1,2,3;
 4/5=5,16=3,69=1/1;
 5/5=2,38=5/2;
 7//1,2,3,16;
 1/18=20,19=15,26=4/3(-5);
 2/9=110/2;
 6/7=2,8=2,9=2,10=2,19=2,28=1/1;
 99/9=1/99;
 ---------
 prod_5l_3
 ---------
 Symbolic Z-matrix:
 Charge =  0 Multiplicity = 1
 O                     0.36734   0.63598   1.92462 
 S                     0.04325   0.98282   0.49971 
 N                     0.86569   0.05777  -0.67509 
 C                     2.21101  -0.24146  -0.45397 
 C                     2.83142  -0.13618   0.79788 
 C                     4.15976  -0.44552   0.96355 
 C                     4.91093  -0.87362  -0.11237 
 C                     4.32399  -0.99355  -1.35623 
 C                     2.99495  -0.68482  -1.52719 
 C                    -1.58659   0.30022   0.17802 
 C                    -2.54074   1.06906  -0.44352 
 C                    -3.79298   0.54475  -0.69204 
 C                    -4.10159  -0.75373  -0.31262 
 C                    -5.44344  -1.32898  -0.59974 
 C                    -3.12286  -1.51743   0.30731 
 C                    -1.87145  -0.99005   0.55421 
 O                     0.04701   2.39876  -0.00231 
 H                     0.6903    0.58767  -1.50113 
 H                     2.24513   0.18921   1.63728 
 H                     4.61548  -0.35387   1.9358 
 H                     5.95282  -1.11512   0.01867 
 H                     4.90952  -1.33032  -2.19583 
 H                     2.53418  -0.78173  -2.49441 
 H                    -2.296     2.07982  -0.7265 
 H                    -4.54118   1.14314  -1.18254 
 H                    -5.72039  -2.07282   0.14804 
 H                    -6.21183  -0.55517  -0.59624 
 H                    -5.45603  -1.8123   -1.57715 
 H                    -3.34865  -2.52912   0.59712 
 H                    -1.11135  -1.57544   1.04502 
 

 GradGradGradGradGradGradGradGradGradGradGradGradGradGradGradGradGradGrad
 Berny optimization.
 Initialization pass.
                           ----------------------------
                           !    Initial Parameters    !
                           ! (Angstroms and Degrees)  !
 --------------------------                            --------------------------
 ! Name  Definition              Value          Derivative Info.                !
 --------------------------------------------------------------------------------
 ! R1    R(1,2)                  1.5019         estimate D2E/DX2                !
 ! R2    R(2,3)                  1.7065         estimate D2E/DX2                !
 ! R3    R(2,10)                 1.7961         estimate D2E/DX2                !
 ! R4    R(2,17)                 1.5023         estimate D2E/DX2                !
 ! R5    R(3,4)                  1.3958         estimate D2E/DX2                !
 ! R6    R(3,18)                 0.9969         estimate D2E/DX2                !
 ! R7    R(4,5)                  1.4011         estimate D2E/DX2                !
 ! R8    R(4,9)                  1.401          estimate D2E/DX2                !
 ! R9    R(5,6)                  1.3739         estimate D2E/DX2                !
 ! R10   R(5,19)                 1.0743         estimate D2E/DX2                !
 ! R11   R(6,7)                  1.3803         estimate D2E/DX2                !
 ! R12   R(6,20)                 1.0777         estimate D2E/DX2                !
 ! R13   R(7,8)                  1.3806         estimate D2E/DX2                !
 ! R14   R(7,21)                 1.0775         estimate D2E/DX2                !
 ! R15   R(8,9)                  1.3751         estimate D2E/DX2                !
 ! R16   R(8,22)                 1.0776         estimate D2E/DX2                !
 ! R17   R(9,23)                 1.0757         estimate D2E/DX2                !
 ! R18   R(10,11)                1.374          estimate D2E/DX2                !
 ! R19   R(10,16)                1.3738         estimate D2E/DX2                !
 ! R20   R(11,12)                1.3801         estimate D2E/DX2                !
 ! R21   R(11,24)                1.0778         estimate D2E/DX2                !
 ! R22   R(12,13)                1.3875         estimate D2E/DX2                !
 ! R23   R(12,25)                1.0763         estimate D2E/DX2                !
 ! R24   R(13,14)                1.4879         estimate D2E/DX2                !
 ! R25   R(13,15)                1.3876         estimate D2E/DX2                !
 ! R26   R(14,26)                1.0905         estimate D2E/DX2                !
 ! R27   R(14,27)                1.0905         estimate D2E/DX2                !
 ! R28   R(14,28)                1.0905         estimate D2E/DX2                !
 ! R29   R(15,16)                1.3803         estimate D2E/DX2                !
 ! R30   R(15,29)                1.0763         estimate D2E/DX2                !
 ! R31   R(16,30)                1.0776         estimate D2E/DX2                !
 ! A1    A(1,2,3)              115.084          estimate D2E/DX2                !
 ! A2    A(1,2,10)             106.1395         estimate D2E/DX2                !
 ! A3    A(1,2,17)             122.2866         estimate D2E/DX2                !
 ! A4    A(3,2,10)              96.2012         estimate D2E/DX2                !
 ! A5    A(3,2,17)             106.2393         estimate D2E/DX2                !
 ! A6    A(10,2,17)            107.4952         estimate D2E/DX2                !
 ! A7    A(2,3,4)              118.1413         estimate D2E/DX2                !
 ! A8    A(2,3,18)             101.3904         estimate D2E/DX2                !
 ! A9    A(4,3,18)             114.5046         estimate D2E/DX2                !
 ! A10   A(3,4,5)              123.5186         estimate D2E/DX2                !
 ! A11   A(3,4,9)              119.0639         estimate D2E/DX2                !
 ! A12   A(5,4,9)              117.4144         estimate D2E/DX2                !
 ! A13   A(4,5,6)              121.2605         estimate D2E/DX2                !
 ! A14   A(4,5,19)             118.6329         estimate D2E/DX2                !
 ! A15   A(6,5,19)             120.106          estimate D2E/DX2                !
 ! A16   A(5,6,7)              120.1331         estimate D2E/DX2                !
 ! A17   A(5,6,20)             119.9004         estimate D2E/DX2                !
 ! A18   A(7,6,20)             119.9665         estimate D2E/DX2                !
 ! A19   A(6,7,8)              119.8593         estimate D2E/DX2                !
 ! A20   A(6,7,21)             120.0627         estimate D2E/DX2                !
 ! A21   A(8,7,21)             120.0779         estimate D2E/DX2                !
 ! A22   A(7,8,9)              120.2253         estimate D2E/DX2                !
 ! A23   A(7,8,22)             119.8757         estimate D2E/DX2                !
 ! A24   A(9,8,22)             119.8989         estimate D2E/DX2                !
 ! A25   A(4,9,8)              121.1052         estimate D2E/DX2                !
 ! A26   A(4,9,23)             118.5275         estimate D2E/DX2                !
 ! A27   A(8,9,23)             120.3673         estimate D2E/DX2                !
 ! A28   A(2,10,11)            119.9028         estimate D2E/DX2                !
 ! A29   A(2,10,16)            119.7388         estimate D2E/DX2                !
 ! A30   A(11,10,16)           120.3584         estimate D2E/DX2                !
 ! A31   A(10,11,12)           119.9316         estimate D2E/DX2                !
 ! A32   A(10,11,24)           119.0684         estimate D2E/DX2                !
 ! A33   A(12,11,24)           120.9995         estimate D2E/DX2                !
 ! A34   A(11,12,13)           120.5361         estimate D2E/DX2                !
 ! A35   A(11,12,25)           120.1048         estimate D2E/DX2                !
 ! A36   A(13,12,25)           119.3591         estimate D2E/DX2                !
 ! A37   A(12,13,14)           120.6381         estimate D2E/DX2                !
 ! A38   A(12,13,15)           118.7073         estimate D2E/DX2                !
 ! A39   A(14,13,15)           120.6319         estimate D2E/DX2                !
 ! A40   A(13,14,26)           111.1264         estimate D2E/DX2                !
 ! A41   A(13,14,27)           111.1301         estimate D2E/DX2                !
 ! A42   A(13,14,28)           110.7771         estimate D2E/DX2                !
 ! A43   A(26,14,27)           107.6299         estimate D2E/DX2                !
 ! A44   A(26,14,28)           108.0216         estimate D2E/DX2                !
 ! A45   A(27,14,28)           108.014          estimate D2E/DX2                !
 ! A46   A(13,15,16)           120.605          estimate D2E/DX2                !
 ! A47   A(13,15,29)           119.3174         estimate D2E/DX2                !
 ! A48   A(16,15,29)           120.0775         estimate D2E/DX2                !
 ! A49   A(10,16,15)           119.8579         estimate D2E/DX2                !
 ! A50   A(10,16,30)           119.2504         estimate D2E/DX2                !
 ! A51   A(15,16,30)           120.8908         estimate D2E/DX2                !
 ! D1    D(1,2,3,4)            -40.4496         estimate D2E/DX2                !
 ! D2    D(1,2,3,18)          -166.4349         estimate D2E/DX2                !
 ! D3    D(10,2,3,4)          -151.5247         estimate D2E/DX2                !
 ! D4    D(10,2,3,18)           82.49           estimate D2E/DX2                !
 ! D5    D(17,2,3,4)            98.1952         estimate D2E/DX2                !
 ! D6    D(17,2,3,18)          -27.7901         estimate D2E/DX2                !
 ! D7    D(1,2,10,11)          133.1663         estimate D2E/DX2                !
 ! D8    D(1,2,10,16)          -46.9078         estimate D2E/DX2                !
 ! D9    D(3,2,10,11)         -108.4495         estimate D2E/DX2                !
 ! D10   D(3,2,10,16)           71.4764         estimate D2E/DX2                !
 ! D11   D(17,2,10,11)           0.7699         estimate D2E/DX2                !
 ! D12   D(17,2,10,16)        -179.3042         estimate D2E/DX2                !
 ! D13   D(2,3,4,5)             17.0475         estimate D2E/DX2                !
 ! D14   D(2,3,4,9)           -163.6041         estimate D2E/DX2                !
 ! D15   D(18,3,4,5)           136.3847         estimate D2E/DX2                !
 ! D16   D(18,3,4,9)           -44.2669         estimate D2E/DX2                !
 ! D17   D(3,4,5,6)            179.8729         estimate D2E/DX2                !
 ! D18   D(3,4,5,19)             0.1723         estimate D2E/DX2                !
 ! D19   D(9,4,5,6)              0.5145         estimate D2E/DX2                !
 ! D20   D(9,4,5,19)          -179.1861         estimate D2E/DX2                !
 ! D21   D(3,4,9,8)           -179.8851         estimate D2E/DX2                !
 ! D22   D(3,4,9,23)             0.0056         estimate D2E/DX2                !
 ! D23   D(5,4,9,8)             -0.4971         estimate D2E/DX2                !
 ! D24   D(5,4,9,23)           179.3936         estimate D2E/DX2                !
 ! D25   D(4,5,6,7)             -0.2023         estimate D2E/DX2                !
 ! D26   D(4,5,6,20)           179.8193         estimate D2E/DX2                !
 ! D27   D(19,5,6,7)           179.4939         estimate D2E/DX2                !
 ! D28   D(19,5,6,20)           -0.4845         estimate D2E/DX2                !
 ! D29   D(5,6,7,8)             -0.1459         estimate D2E/DX2                !
 ! D30   D(5,6,7,21)           179.9479         estimate D2E/DX2                !
 ! D31   D(20,6,7,8)           179.8326         estimate D2E/DX2                !
 ! D32   D(20,6,7,21)           -0.0737         estimate D2E/DX2                !
 ! D33   D(6,7,8,9)              0.1624         estimate D2E/DX2                !
 ! D34   D(6,7,8,22)          -179.8334         estimate D2E/DX2                !
 ! D35   D(21,7,8,9)          -179.9313         estimate D2E/DX2                !
 ! D36   D(21,7,8,22)            0.0728         estimate D2E/DX2                !
 ! D37   D(7,8,9,4)              0.1686         estimate D2E/DX2                !
 ! D38   D(7,8,9,23)          -179.72           estimate D2E/DX2                !
 ! D39   D(22,8,9,4)          -179.8355         estimate D2E/DX2                !
 ! D40   D(22,8,9,23)            0.2758         estimate D2E/DX2                !
 ! D41   D(2,10,11,12)         179.9444         estimate D2E/DX2                !
 ! D42   D(2,10,11,24)          -0.2956         estimate D2E/DX2                !
 ! D43   D(16,10,11,12)          0.0189         estimate D2E/DX2                !
 ! D44   D(16,10,11,24)        179.7789         estimate D2E/DX2                !
 ! D45   D(2,10,16,15)        -179.9526         estimate D2E/DX2                !
 ! D46   D(2,10,16,30)           0.383          estimate D2E/DX2                !
 ! D47   D(11,10,16,15)         -0.0271         estimate D2E/DX2                !
 ! D48   D(11,10,16,30)       -179.6914         estimate D2E/DX2                !
 ! D49   D(10,11,12,13)          0.3477         estimate D2E/DX2                !
 ! D50   D(10,11,12,25)       -179.7381         estimate D2E/DX2                !
 ! D51   D(24,11,12,13)       -179.4076         estimate D2E/DX2                !
 ! D52   D(24,11,12,25)          0.5067         estimate D2E/DX2                !
 ! D53   D(11,12,13,14)       -178.972          estimate D2E/DX2                !
 ! D54   D(11,12,13,15)         -0.6925         estimate D2E/DX2                !
 ! D55   D(25,12,13,14)          1.1131         estimate D2E/DX2                !
 ! D56   D(25,12,13,15)        179.3927         estimate D2E/DX2                !
 ! D57   D(12,13,14,26)       -150.5189         estimate D2E/DX2                !
 ! D58   D(12,13,14,27)        -30.689          estimate D2E/DX2                !
 ! D59   D(12,13,14,28)         89.3925         estimate D2E/DX2                !
 ! D60   D(15,13,14,26)         31.2349         estimate D2E/DX2                !
 ! D61   D(15,13,14,27)        151.0647         estimate D2E/DX2                !
 ! D62   D(15,13,14,28)        -88.8538         estimate D2E/DX2                !
 ! D63   D(12,13,15,16)          0.6847         estimate D2E/DX2                !
 ! D64   D(12,13,15,29)       -179.4106         estimate D2E/DX2                !
 ! D65   D(14,13,15,16)        178.9644         estimate D2E/DX2                !
 ! D66   D(14,13,15,29)         -1.1309         estimate D2E/DX2                !
 ! D67   D(13,15,16,10)         -0.3315         estimate D2E/DX2                !
 ! D68   D(13,15,16,30)        179.3273         estimate D2E/DX2                !
 ! D69   D(29,15,16,10)        179.7645         estimate D2E/DX2                !
 ! D70   D(29,15,16,30)         -0.5767         estimate D2E/DX2                !
 --------------------------------------------------------------------------------
 Trust Radius=3.00D-01 FncErr=1.00D-07 GrdErr=1.00D-06 EigMax=2.50D+02 EigMin=1.00D-04
 Number of steps in this run=    162 maximum allowed number of steps=    180.
 GradGradGradGradGradGradGradGradGradGradGradGradGradGradGradGradGradGrad

                          Input orientation:                          
 ---------------------------------------------------------------------
 Center     Atomic      Atomic             Coordinates (Angstroms)
 Number     Number       Type             X           Y           Z
 ---------------------------------------------------------------------
      1          8           0        0.367340    0.635980    1.924620
      2         16           0        0.043250    0.982820    0.499710
      3          7           0        0.865690    0.057770   -0.675090
      4          6           0        2.211010   -0.241460   -0.453970
      5          6           0        2.831420   -0.136180    0.797880
      6          6           0        4.159760   -0.445520    0.963550
      7          6           0        4.910930   -0.873620   -0.112370
      8          6           0        4.323990   -0.993550   -1.356230
      9          6           0        2.994950   -0.684820   -1.527190
     10          6           0       -1.586590    0.300220    0.178020
     11          6           0       -2.540740    1.069060   -0.443520
     12          6           0       -3.792980    0.544750   -0.692040
     13          6           0       -4.101590   -0.753730   -0.312620
     14          6           0       -5.443440   -1.328980   -0.599740
     15          6           0       -3.122860   -1.517430    0.307310
     16          6           0       -1.871450   -0.990050    0.554210
     17          8           0        0.047010    2.398760   -0.002310
     18          1           0        0.690300    0.587670   -1.501130
     19          1           0        2.245130    0.189210    1.637280
     20          1           0        4.615480   -0.353870    1.935800
     21          1           0        5.952820   -1.115120    0.018670
     22          1           0        4.909520   -1.330320   -2.195830
     23          1           0        2.534180   -0.781730   -2.494410
     24          1           0       -2.296000    2.079820   -0.726500
     25          1           0       -4.541180    1.143140   -1.182540
     26          1           0       -5.720390   -2.072820    0.148040
     27          1           0       -6.211830   -0.555170   -0.596240
     28          1           0       -5.456030   -1.812300   -1.577150
     29          1           0       -3.348650   -2.529120    0.597120
     30          1           0       -1.111350   -1.575440    1.045020
 ---------------------------------------------------------------------
                    Distance matrix (angstroms):
                    1          2          3          4          5
     1  O    0.000000
     2  S    1.501899   0.000000
     3  N    2.709460   1.706540   0.000000
     4  C    3.134758   2.665999   1.395822   0.000000
     5  C    2.817351   3.019099   2.464011   1.401114   0.000000
     6  C    4.059033   4.381890   3.713400   2.418394   1.373909
     7  C    5.203117   5.245505   4.189046   2.793901   2.386783
     8  C    5.392070   5.067079   3.678188   2.417519   2.757361
     9  C    4.534737   3.949921   2.410656   1.401046   2.394514
    10  C    2.642194   1.796053   2.607730   3.887749   4.482576
    11  C    3.775258   2.752113   3.560912   4.929168   5.643915
    12  C    4.915638   4.040895   4.684084   6.059926   6.823943
    13  C    5.187280   4.566748   5.046166   6.334929   7.048490
    14  C    6.633146   6.054501   6.460176   7.732694   8.476404
    15  C    4.408442   4.038876   4.399420   5.536950   6.132044
    16  C    3.087746   2.749775   3.178213   4.271217   4.785964
    17  O    2.631172   1.502306   2.569651   3.443495   3.849567
    18  H    3.441279   2.139668   0.996944   2.023996   3.223942
    19  H    1.951477   2.602337   2.695772   2.135408   1.074340
    20  H    4.361952   4.975378   4.587714   3.391919   2.127233
    21  H    6.156020   6.289338   5.266485   3.871410   3.362831
    22  H    6.440174   6.024710   4.537841   3.391408   3.834941
    23  H    5.121809   4.275877   2.607402   2.135351   3.368124
    24  H    4.025729   2.859911   3.753347   5.076983   5.790063
    25  H    5.831400   4.885966   5.538030   6.931089   7.740410
    26  H    6.895962   6.533005   6.970897   8.162316   8.792401
    27  H    7.145562   6.533953   7.104449   8.429881   9.159667
    28  H    7.222749   6.509080   6.653948   7.906489   8.782481
    29  H    5.058527   4.883462   5.105994   6.103114   6.630214
    30  H    2.801892   2.859223   3.087854   3.881308   4.204519
                    6          7          8          9         10
     6  C    0.000000
     7  C    1.380264   0.000000
     8  C    2.389286   1.380605   0.000000
     9  C    2.760042   2.389213   1.375096   0.000000
    10  C    5.847540   6.609084   6.242012   4.986838   0.000000
    11  C    7.012168   7.707856   7.225781   5.907140   1.373983
    12  C    8.183379   8.837751   8.288107   6.948763   2.384315
    13  C    8.365017   9.015542   8.493352   7.200056   2.770697
    14  C    9.769638  10.375831   9.802422   8.513609   4.258462
    15  C    7.390277   8.070465   7.648359   6.440980   2.383420
    16  C    6.069561   6.816052   6.483307   5.301626   1.373849
    17  O    5.092890   5.863301   5.624360   4.530350   2.665528
    18  H    4.379416   4.677365   3.965470   2.632740   2.843660
    19  H    2.126641   3.361156   3.831668   3.367496   4.101688
    20  H    1.077660   2.133643   3.366247   3.837700   6.479452
    21  H    2.134532   1.077510   2.134998   3.365091   7.672762
    22  H    3.365515   2.132928   1.077584   2.128222   7.105862
    23  H    3.835757   3.366229   2.131605   1.075739   5.029239
    24  H    7.135156   7.812797   7.325738   6.023163   2.118583
    25  H    9.101423   9.723938   9.120683   7.762311   3.360244
    26  H   10.046419  10.701909  10.213580   8.982766   4.766605
    27  H   10.488796  11.137833  10.572288   9.254635   4.766971
    28  H   10.039256  10.511925   9.816718   8.526006   4.745095
    29  H    7.800762   8.453681   8.064921   6.939409   3.359414
    30  H    5.391471   6.172516   5.970554   4.926578   2.120293
                   11         12         13         14         15
    11  C    0.000000
    12  C    1.380133   0.000000
    13  C    2.403321   1.387534   0.000000
    14  C    3.768377   2.498680   1.487922   0.000000
    15  C    2.755456   2.387540   1.387611   2.498669   0.000000
    16  C    2.383977   2.756996   2.404322   3.769030   1.380259
    17  O    2.942655   4.319561   5.219710   6.663183   5.047820
    18  H    3.433642   4.555905   5.116065   6.489131   4.716152
    19  H    5.292298   6.481583   6.706124   8.150047   5.787638
    20  H    7.674463   8.855239   9.011248  10.419293   7.992982
    21  H    8.782074   9.911654  10.066356  11.415030   9.089177
    22  H    8.020847   9.028332   9.223830  10.475270   8.415453
    23  H    5.778095   6.711262   6.985301   8.217766   6.355548
    24  H    1.077781   2.144429   3.385330   4.641375   3.833102
    25  H    2.133869   1.076320   2.132631   2.695386   3.363022
    26  H    4.509049   3.357427   2.138392   1.090493   2.661012
    27  H    4.017256   2.658917   2.138453   1.090512   3.359179
    28  H    4.252795   3.017423   2.134037   1.090453   3.013606
    29  H    3.831782   3.362743   2.132265   2.694616   1.076331
    30  H    3.354443   3.834543   3.385252   4.640364   2.143304
                   16         17         18         19         20
    16  C    0.000000
    17  O    3.933731   0.000000
    18  H    3.643650   2.437279   0.000000
    19  H    4.417004   3.521661   3.525037   0.000000
    20  H    6.662866   5.674871   5.301511   2.450022   0.000000
    21  H    7.843574   6.872146   5.736149   4.250664   2.458326
    22  H    7.325303   6.508577   4.686482   4.909244   4.255618
    23  H    5.361628   4.744691   2.502350   4.254073   4.913414
    24  H    3.353291   2.473028   3.427032   5.457447   7.796104
    25  H    3.833309   4.901124   5.270525   7.410491   9.788233
    26  H    4.018918   7.299352   7.134067   8.413330  10.629256
    27  H    4.511270   6.946332   7.054382   8.778547  11.121258
    28  H    4.250648   7.106096   6.598713   8.581752  10.765833
    29  H    2.133705   6.014468   5.516353   6.305682   8.363680
    30  H    1.077649   4.270007   3.795770   3.838062   5.923032
                   21         22         23         24         25
    21  H    0.000000
    22  H    2.457396   0.000000
    23  H    4.256033   2.456082   0.000000
    24  H    8.877272   8.106017   5.885967   0.000000
    25  H   10.801235   9.821430   7.448949   2.475111   0.000000
    26  H   11.713145  10.910546   8.762841   5.453044   3.674694
    27  H   12.193046  11.262503   8.952490   4.721638   2.453381
    28  H   11.540995  10.395177   8.108446   5.085076   3.118861
    29  H    9.426099   8.799719   6.871580   4.909416   4.251448
    30  H    7.153166   6.842081   5.142706   4.231147   4.910849
                   26         27         28         29         30
    26  H    0.000000
    27  H    1.760320   0.000000
    28  H    1.764664   1.764595   0.000000
    29  H    2.456630   3.676736   3.111644   0.000000
    30  H    4.721780   5.454318   5.080170   2.472980   0.000000
 Stoichiometry    C13H13NO2S
 Framework group  C1[X(C13H13NO2S)]
 Deg. of freedom    84
 Full point group                 C1      NOp   1
 Largest Abelian subgroup         C1      NOp   1
 Largest concise Abelian subgroup C1      NOp   1
                         Standard orientation:                         
 ---------------------------------------------------------------------
 Center     Atomic      Atomic             Coordinates (Angstroms)
 Number     Number       Type             X           Y           Z
 ---------------------------------------------------------------------
      1          8           0        0.422212    1.433792    1.464438
      2         16           0        0.081834    1.137562    0.031926
      3          7           0        0.887424   -0.208662   -0.639628
      4          6           0        2.234496   -0.394271   -0.324563
      5          6           0        2.870320    0.233646    0.754589
      6          6           0        4.199713    0.015225    1.024090
      7          6           0        4.936606   -0.839213    0.229072
      8          6           0        4.334306   -1.477186   -0.836899
      9          6           0        3.004148   -1.261582   -1.110909
     10          6           0       -1.553659    0.395523    0.050536
     11          6           0       -2.513150    0.830243   -0.831634
     12          6           0       -3.769750    0.259667   -0.818625
     13          6           0       -4.077314   -0.747613    0.084725
     14          6           0       -5.424125   -1.380078    0.085633
     15          6           0       -3.093251   -1.178571    0.962994
     16          6           0       -1.837492   -0.605912    0.947212
     17          8           0        0.083410    2.200608   -1.029609
     18          1           0        0.703497   -0.083533   -1.611436
     19          1           0        2.295144    0.892488    1.378534
     20          1           0        4.667433    0.512024    1.858224
     21          1           0        5.979339   -1.009040    0.440960
     22          1           0        4.908688   -2.146384   -1.456130
     23          1           0        2.531424   -1.760932   -1.938192
     24          1           0       -2.269075    1.619603   -1.523695
     25          1           0       -4.522188    0.595152   -1.511265
     26          1           0       -5.694040   -1.728535    1.083078
     27          1           0       -6.190282   -0.673871   -0.236071
     28          1           0       -5.449891   -2.236201   -0.589257
     29          1           0       -3.318298   -1.965984    1.661437
     30          1           0       -1.073115   -0.929616    1.634432
 ---------------------------------------------------------------------
 Rotational constants (GHZ):           1.0944603           0.2111494           0.2002614
 Standard basis: def2SVP (5D, 7F)
 There are   324 symmetry adapted cartesian basis functions of A   symmetry.
 There are   307 symmetry adapted basis functions of A   symmetry.
   307 basis functions,   528 primitive gaussians,   324 cartesian basis functions
    65 alpha electrons       65 beta electrons
       nuclear repulsion energy      1293.8834329228 Hartrees.
 NAtoms=   30 NActive=   30 NUniq=   30 SFac= 1.00D+00 NAtFMM=   60 NAOKFM=F Big=F
 Integral buffers will be    131072 words long.
 Raffenetti 2 integral format.
 Two-electron integral symmetry is turned on.
 Nuclear repulsion after empirical dispersion term =     1293.8653348408 Hartrees.
 One-electron integrals computed using PRISM.
   1 Symmetry operations used in ECPInt.
 ECPInt:  NShTT=   10296 NPrTT=   38220 LenC2=    9196 LenP2D=   24118.
 LDataN:  DoStor=T MaxTD1= 4 Len=   56
 NBasis=   307 RedAO= T EigKep=  2.45D-04  NBF=   307
 NBsUse=   307 1.00D-06 EigRej= -1.00D+00 NBFU=   307
 ExpMin= 1.22D-01 ExpMax= 9.18D+03 ExpMxC= 1.38D+03 IAcc=3 IRadAn=         5 AccDes= 0.00D+00
 Harris functional with IExCor= 4639 and IRadAn=       5 diagonalized for initial guess.
 HarFok:  IExCor= 4639 AccDes= 0.00D+00 IRadAn=         5 IDoV= 1 UseB2=F ITyADJ=14
 ICtDFT=  3500011 ScaDFX=  1.000000  1.000000  1.000000  1.000000
 FoFCou: FMM=F IPFlag=           0 FMFlag=      100000 FMFlg1=           0
         NFxFlg=           0 DoJE=T BraDBF=F KetDBF=T FulRan=T
         wScrn=  0.000000 ICntrl=       500 IOpCl=  0 I1Cent=   200000004 NGrid=           0
         NMat0=    1 NMatS0=      1 NMatT0=    0 NMatD0=    1 NMtDS0=    0 NMtDT0=    0
 Petite list used in FoFCou.
 Requested convergence on RMS density matrix=1.00D-08 within 128 cycles.
 Requested convergence on MAX density matrix=1.00D-06.
 Requested convergence on             energy=1.00D-06.
 No special actions if energy rises.
 Integral accuracy reduced to 1.0D-05 until final iterations.
 Initial convergence to 1.0D-05 achieved.  Increase integral accuracy.
 SCF Done:  E(RwB97XD) =  -1105.63899811     A.U. after   15 cycles
            NFock= 15  Conv=0.96D-08     -V/T= 2.0070

 **********************************************************************

            Population analysis using the SCF Density.

 **********************************************************************

 Orbital symmetries:
       Occupied  (A) (A) (A) (A) (A) (A) (A) (A) (A) (A) (A) (A)
                 (A) (A) (A) (A) (A) (A) (A) (A) (A) (A) (A) (A)
                 (A) (A) (A) (A) (A) (A) (A) (A) (A) (A) (A) (A)
                 (A) (A) (A) (A) (A) (A) (A) (A) (A) (A) (A) (A)
                 (A) (A) (A) (A) (A) (A) (A) (A) (A) (A) (A) (A)
                 (A) (A) (A) (A) (A)
       Virtual   (A) (A) (A) (A) (A) (A) (A) (A) (A) (A) (A) (A)
                 (A) (A) (A) (A) (A) (A) (A) (A) (A) (A) (A) (A)
                 (A) (A) (A) (A) (A) (A) (A) (A) (A) (A) (A) (A)
                 (A) (A) (A) (A) (A) (A) (A) (A) (A) (A) (A) (A)
                 (A) (A) (A) (A) (A) (A) (A) (A) (A) (A) (A) (A)
                 (A) (A) (A) (A) (A) (A) (A) (A) (A) (A) (A) (A)
                 (A) (A) (A) (A) (A) (A) (A) (A) (A) (A) (A) (A)
                 (A) (A) (A) (A) (A) (A) (A) (A) (A) (A) (A) (A)
                 (A) (A) (A) (A) (A) (A) (A) (A) (A) (A) (A) (A)
                 (A) (A) (A) (A) (A) (A) (A) (A) (A) (A) (A) (A)
                 (A) (A) (A) (A) (A) (A) (A) (A) (A) (A) (A) (A)
                 (A) (A) (A) (A) (A) (A) (A) (A) (A) (A) (A) (A)
                 (A) (A) (A) (A) (A) (A) (A) (A) (A) (A) (A) (A)
                 (A) (A) (A) (A) (A) (A) (A) (A) (A) (A) (A) (A)
                 (A) (A) (A) (A) (A) (A) (A) (A) (A) (A) (A) (A)
                 (A) (A) (A) (A) (A) (A) (A) (A) (A) (A) (A) (A)
                 (A) (A) (A) (A) (A) (A) (A) (A) (A) (A) (A) (A)
                 (A) (A) (A) (A) (A) (A) (A) (A) (A) (A) (A) (A)
                 (A) (A) (A) (A) (A) (A) (A) (A) (A) (A) (A) (A)
                 (A) (A) (A) (A) (A) (A) (A) (A) (A) (A) (A) (A)
                 (A) (A)
 The electronic state is 1-A.
 Alpha  occ. eigenvalues --  -89.25764 -19.26597 -19.25709 -14.49785 -10.35298
 Alpha  occ. eigenvalues --  -10.33573 -10.32775 -10.32459 -10.32339 -10.31621
 Alpha  occ. eigenvalues --  -10.31554 -10.30901 -10.30300 -10.30170 -10.29812
 Alpha  occ. eigenvalues --  -10.29350 -10.29074  -8.27595  -6.23012  -6.22924
 Alpha  occ. eigenvalues --   -6.22792  -1.20540  -1.09143  -1.05547  -0.98827
 Alpha  occ. eigenvalues --   -0.95200  -0.90425  -0.86547  -0.84998  -0.84585
 Alpha  occ. eigenvalues --   -0.81227  -0.75837  -0.72719  -0.71665  -0.70380
 Alpha  occ. eigenvalues --   -0.68174  -0.64528  -0.63648  -0.60299  -0.58942
 Alpha  occ. eigenvalues --   -0.58253  -0.56446  -0.54963  -0.53918  -0.53465
 Alpha  occ. eigenvalues --   -0.53065  -0.52975  -0.52700  -0.51104  -0.49655
 Alpha  occ. eigenvalues --   -0.48676  -0.47644  -0.46409  -0.45710  -0.44386
 Alpha  occ. eigenvalues --   -0.44164  -0.43884  -0.41466  -0.40233  -0.39392
 Alpha  occ. eigenvalues --   -0.38207  -0.35534  -0.34737  -0.33722  -0.30457
 Alpha virt. eigenvalues --    0.02665   0.04205   0.06011   0.06546   0.10149
 Alpha virt. eigenvalues --    0.12774   0.14145   0.15085   0.15523   0.15601
 Alpha virt. eigenvalues --    0.16855   0.17401   0.18715   0.19335   0.20201
 Alpha virt. eigenvalues --    0.21124   0.21327   0.23254   0.23758   0.24212
 Alpha virt. eigenvalues --    0.24514   0.25646   0.28909   0.29507   0.32714
 Alpha virt. eigenvalues --    0.35343   0.36302   0.36612   0.37149   0.37628
 Alpha virt. eigenvalues --    0.38190   0.39488   0.40171   0.40804   0.43542
 Alpha virt. eigenvalues --    0.46463   0.47359   0.47671   0.48605   0.49053
 Alpha virt. eigenvalues --    0.49453   0.51168   0.51918   0.52587   0.54204
 Alpha virt. eigenvalues --    0.54277   0.54805   0.55438   0.56382   0.57129
 Alpha virt. eigenvalues --    0.58125   0.58593   0.59144   0.60097   0.61948
 Alpha virt. eigenvalues --    0.62680   0.63926   0.64502   0.64932   0.65887
 Alpha virt. eigenvalues --    0.67525   0.69570   0.70379   0.70594   0.71396
 Alpha virt. eigenvalues --    0.72529   0.72658   0.73101   0.73433   0.74052
 Alpha virt. eigenvalues --    0.74722   0.75387   0.75580   0.76450   0.76865
 Alpha virt. eigenvalues --    0.77335   0.78035   0.78575   0.79377   0.79959
 Alpha virt. eigenvalues --    0.81620   0.82094   0.82596   0.83143   0.83477
 Alpha virt. eigenvalues --    0.84571   0.84829   0.86121   0.88151   0.89826
 Alpha virt. eigenvalues --    0.90431   0.92599   0.92885   0.95481   0.97004
 Alpha virt. eigenvalues --    0.98000   0.99633   1.00193   1.02873   1.06313
 Alpha virt. eigenvalues --    1.09064   1.10608   1.11100   1.12543   1.14241
 Alpha virt. eigenvalues --    1.15123   1.15358   1.20450   1.21515   1.22734
 Alpha virt. eigenvalues --    1.24860   1.26006   1.26540   1.28025   1.29986
 Alpha virt. eigenvalues --    1.30426   1.31022   1.31936   1.32876   1.33231
 Alpha virt. eigenvalues --    1.34570   1.35609   1.36548   1.37039   1.38454
 Alpha virt. eigenvalues --    1.39381   1.39944   1.41676   1.44372   1.50453
 Alpha virt. eigenvalues --    1.54900   1.55983   1.58095   1.59939   1.60754
 Alpha virt. eigenvalues --    1.62464   1.64090   1.69353   1.75356   1.75745
 Alpha virt. eigenvalues --    1.76831   1.77880   1.78430   1.80405   1.81184
 Alpha virt. eigenvalues --    1.81786   1.82600   1.83732   1.84052   1.84485
 Alpha virt. eigenvalues --    1.84795   1.86393   1.86555   1.87312   1.87746
 Alpha virt. eigenvalues --    1.88150   1.88430   1.90538   1.91845   1.92536
 Alpha virt. eigenvalues --    1.93783   1.97623   1.97686   1.99098   2.02644
 Alpha virt. eigenvalues --    2.04246   2.04497   2.05239   2.06013   2.08224
 Alpha virt. eigenvalues --    2.10421   2.10841   2.13311   2.14002   2.16910
 Alpha virt. eigenvalues --    2.17342   2.20134   2.20848   2.21192   2.23166
 Alpha virt. eigenvalues --    2.24745   2.25508   2.29400   2.30285   2.31557
 Alpha virt. eigenvalues --    2.33653   2.34807   2.35588   2.38194   2.38828
 Alpha virt. eigenvalues --    2.40787   2.42451   2.43504   2.44707   2.45340
 Alpha virt. eigenvalues --    2.45724   2.51200   2.55520   2.56311   2.56928
 Alpha virt. eigenvalues --    2.59440   2.61760   2.68463   2.68818   2.71368
 Alpha virt. eigenvalues --    2.71784   2.73132   2.73264   2.73676   2.74025
 Alpha virt. eigenvalues --    2.74845   2.75372   2.76368   2.78761   2.81962
 Alpha virt. eigenvalues --    2.82898   2.83042   2.84449   2.85486   2.86442
 Alpha virt. eigenvalues --    2.91641   2.94684   2.95204   2.96802   2.99090
 Alpha virt. eigenvalues --    3.00485   3.00791   3.02171   3.02927   3.04729
 Alpha virt. eigenvalues --    3.06869   3.08502   3.22540   3.23514   3.26017
 Alpha virt. eigenvalues --    3.32364   3.33694   3.34642   3.45490   3.47158
 Alpha virt. eigenvalues --    3.69539   3.78771
          Condensed to atoms (all electrons):
               1          2          3          4          5          6
     1  O    8.155512   0.392133  -0.033619  -0.006668  -0.019805   0.002457
     2  S    0.392133  13.951456   0.208907  -0.040394   0.001879  -0.001260
     3  N   -0.033619   0.208907   6.826882   0.264139  -0.089914   0.008046
     4  C   -0.006668  -0.040394   0.264139   5.207843   0.256047   0.106607
     5  C   -0.019805   0.001879  -0.089914   0.256047   5.232292   0.251971
     6  C    0.002457  -0.001260   0.008046   0.106607   0.251971   5.063645
     7  C   -0.000037   0.000027  -0.000522  -0.162251   0.088630   0.272446
     8  C    0.000005  -0.000163   0.006664   0.107473  -0.145558   0.096008
     9  C   -0.000106  -0.000622  -0.066863   0.263822   0.075523  -0.145997
    10  C   -0.058634   0.221522  -0.086528   0.008296  -0.000378  -0.000033
    11  C    0.000051  -0.024143  -0.005213  -0.000302  -0.000046   0.000000
    12  C   -0.000021   0.003024  -0.000117  -0.000024   0.000000   0.000000
    13  C   -0.000027   0.000827   0.000004   0.000004  -0.000000  -0.000000
    14  C   -0.000000   0.000007  -0.000000  -0.000000   0.000000   0.000000
    15  C    0.000802  -0.000849  -0.000444   0.000029   0.000001  -0.000000
    16  C    0.006734  -0.040560   0.008337   0.000084   0.000019   0.000000
    17  O   -0.027816   0.428846  -0.060170   0.006372  -0.000546  -0.000123
    18  H    0.002599  -0.005759   0.325140  -0.005750   0.003926  -0.000063
    19  H    0.035533  -0.008206  -0.014468  -0.071534   0.448550  -0.050133
    20  H    0.000010  -0.000003  -0.000104   0.015205  -0.066943   0.457228
    21  H    0.000000   0.000000   0.000011  -0.001418   0.014779  -0.067870
    22  H   -0.000000   0.000004  -0.000114   0.015542  -0.001888   0.013806
    23  H    0.000003  -0.000134  -0.009442  -0.080784   0.016907  -0.002314
    24  H    0.000208  -0.012186   0.000656  -0.000100   0.000001   0.000000
    25  H    0.000001  -0.000159   0.000004  -0.000000   0.000000  -0.000000
    26  H    0.000000  -0.000000   0.000000  -0.000000  -0.000000   0.000000
    27  H   -0.000000  -0.000000   0.000000  -0.000000  -0.000000   0.000000
    28  H    0.000000   0.000000  -0.000000   0.000000   0.000000  -0.000000
    29  H   -0.000006  -0.000156  -0.000000  -0.000001   0.000000   0.000000
    30  H    0.007448  -0.005630   0.001345   0.000075  -0.000064  -0.000008
               7          8          9         10         11         12
     1  O   -0.000037   0.000005  -0.000106  -0.058634   0.000051  -0.000021
     2  S    0.000027  -0.000163  -0.000622   0.221522  -0.024143   0.003024
     3  N   -0.000522   0.006664  -0.066863  -0.086528  -0.005213  -0.000117
     4  C   -0.162251   0.107473   0.263822   0.008296  -0.000302  -0.000024
     5  C    0.088630  -0.145558   0.075523  -0.000378  -0.000046   0.000000
     6  C    0.272446   0.096008  -0.145997  -0.000033   0.000000   0.000000
     7  C    5.104190   0.286558   0.084876   0.000001  -0.000000  -0.000000
     8  C    0.286558   5.006248   0.313656  -0.000002   0.000000   0.000000
     9  C    0.084876   0.313656   5.130854  -0.000678  -0.000014   0.000001
    10  C    0.000001  -0.000002  -0.000678   5.768721   0.283545   0.086387
    11  C   -0.000000   0.000000  -0.000014   0.283545   5.059007   0.264334
    12  C   -0.000000   0.000000   0.000001   0.086387   0.264334   5.117153
    13  C    0.000000  -0.000000  -0.000000  -0.184226   0.098611   0.282324
    14  C    0.000000   0.000000   0.000000   0.000580   0.009638  -0.076969
    15  C   -0.000000  -0.000000   0.000001   0.086395  -0.122647   0.051812
    16  C    0.000000  -0.000000   0.000071   0.166164   0.038675  -0.122339
    17  O    0.000001  -0.000002  -0.000292  -0.070732   0.005055   0.001602
    18  H   -0.000041   0.000332  -0.013272   0.001079   0.002436   0.000015
    19  H    0.013606  -0.002145   0.012778   0.001614  -0.000067  -0.000002
    20  H   -0.073996   0.014117  -0.001947  -0.000001   0.000000   0.000000
    21  H    0.451533  -0.070423   0.014389   0.000000   0.000000  -0.000000
    22  H   -0.069169   0.453831  -0.069564  -0.000000   0.000000  -0.000000
    23  H    0.014932  -0.059854   0.450901   0.000007  -0.000010  -0.000000
    24  H   -0.000000   0.000000   0.000003  -0.068898   0.446872  -0.052224
    25  H    0.000000   0.000000   0.000000   0.016717  -0.066450   0.460930
    26  H   -0.000000  -0.000000   0.000000   0.000004  -0.000541   0.007410
    27  H   -0.000000   0.000000   0.000000   0.000000   0.000776  -0.008816
    28  H    0.000000  -0.000000  -0.000000   0.000125  -0.000253  -0.003484
    29  H   -0.000000   0.000000   0.000000   0.016314  -0.002042   0.014594
    30  H    0.000000  -0.000000   0.000010  -0.080760   0.011571  -0.001431
              13         14         15         16         17         18
     1  O   -0.000027  -0.000000   0.000802   0.006734  -0.027816   0.002599
     2  S    0.000827   0.000007  -0.000849  -0.040560   0.428846  -0.005759
     3  N    0.000004  -0.000000  -0.000444   0.008337  -0.060170   0.325140
     4  C    0.000004  -0.000000   0.000029   0.000084   0.006372  -0.005750
     5  C   -0.000000   0.000000   0.000001   0.000019  -0.000546   0.003926
     6  C   -0.000000   0.000000  -0.000000   0.000000  -0.000123  -0.000063
     7  C    0.000000   0.000000  -0.000000   0.000000   0.000001  -0.000041
     8  C   -0.000000   0.000000  -0.000000  -0.000000  -0.000002   0.000332
     9  C   -0.000000   0.000000   0.000001   0.000071  -0.000292  -0.013272
    10  C   -0.184226   0.000580   0.086395   0.166164  -0.070732   0.001079
    11  C    0.098611   0.009638  -0.122647   0.038675   0.005055   0.002436
    12  C    0.282324  -0.076969   0.051812  -0.122339   0.001602   0.000015
    13  C    5.263627   0.407555   0.292532   0.088589  -0.000037   0.000002
    14  C    0.407555   4.549674  -0.077155   0.010114   0.000000  -0.000000
    15  C    0.292532  -0.077155   5.052873   0.328142   0.000017  -0.000037
    16  C    0.088589   0.010114   0.328142   5.069085   0.004839  -0.001651
    17  O   -0.000037   0.000000   0.000017   0.004839   8.162383   0.012290
    18  H    0.000002  -0.000000  -0.000037  -0.001651   0.012290   0.515899
    19  H    0.000001   0.000000   0.000001  -0.000098   0.000565  -0.000712
    20  H    0.000000  -0.000000  -0.000000   0.000000  -0.000000   0.000013
    21  H    0.000000   0.000000   0.000000   0.000000   0.000000  -0.000001
    22  H   -0.000000  -0.000000   0.000000  -0.000000  -0.000000  -0.000023
    23  H    0.000000  -0.000000   0.000000   0.000017  -0.000013   0.003080
    24  H    0.013743  -0.000208  -0.001901   0.013301   0.018235   0.000196
    25  H   -0.076891  -0.013707   0.014477  -0.001993  -0.000009  -0.000002
    26  H   -0.018579   0.392268  -0.008843   0.000826   0.000000  -0.000000
    27  H   -0.018630   0.392502   0.007302  -0.000500   0.000000  -0.000000
    28  H   -0.012127   0.389647  -0.003073  -0.000360  -0.000000   0.000000
    29  H   -0.075763  -0.013569   0.460270  -0.066156   0.000000   0.000000
    30  H    0.014100  -0.000238  -0.047848   0.452007   0.000228   0.000008
              19         20         21         22         23         24
     1  O    0.035533   0.000010   0.000000  -0.000000   0.000003   0.000208
     2  S   -0.008206  -0.000003   0.000000   0.000004  -0.000134  -0.012186
     3  N   -0.014468  -0.000104   0.000011  -0.000114  -0.009442   0.000656
     4  C   -0.071534   0.015205  -0.001418   0.015542  -0.080784  -0.000100
     5  C    0.448550  -0.066943   0.014779  -0.001888   0.016907   0.000001
     6  C   -0.050133   0.457228  -0.067870   0.013806  -0.002314   0.000000
     7  C    0.013606  -0.073996   0.451533  -0.069169   0.014932  -0.000000
     8  C   -0.002145   0.014117  -0.070423   0.453831  -0.059854   0.000000
     9  C    0.012778  -0.001947   0.014389  -0.069564   0.450901   0.000003
    10  C    0.001614  -0.000001   0.000000  -0.000000   0.000007  -0.068898
    11  C   -0.000067   0.000000   0.000000   0.000000  -0.000010   0.446872
    12  C   -0.000002   0.000000  -0.000000  -0.000000  -0.000000  -0.052224
    13  C    0.000001   0.000000   0.000000  -0.000000   0.000000   0.013743
    14  C    0.000000  -0.000000   0.000000  -0.000000  -0.000000  -0.000208
    15  C    0.000001  -0.000000   0.000000   0.000000   0.000000  -0.001901
    16  C   -0.000098   0.000000   0.000000  -0.000000   0.000017   0.013301
    17  O    0.000565  -0.000000   0.000000  -0.000000  -0.000013   0.018235
    18  H   -0.000712   0.000013  -0.000001  -0.000023   0.003080   0.000196
    19  H    0.606677  -0.012687  -0.000187   0.000011  -0.000083  -0.000010
    20  H   -0.012687   0.665059  -0.012036  -0.000258   0.000022   0.000000
    21  H   -0.000187  -0.012036   0.673468  -0.012396  -0.000233  -0.000000
    22  H    0.000011  -0.000258  -0.012396   0.669069  -0.013189   0.000000
    23  H   -0.000083   0.000022  -0.000233  -0.013189   0.687589  -0.000001
    24  H   -0.000010   0.000000  -0.000000   0.000000  -0.000001   0.618700
    25  H   -0.000000  -0.000000  -0.000000   0.000000  -0.000000  -0.011212
    26  H    0.000000   0.000000   0.000000   0.000000   0.000000   0.000007
    27  H   -0.000000   0.000000   0.000000   0.000000   0.000000  -0.000002
    28  H   -0.000000  -0.000000  -0.000000  -0.000000  -0.000000   0.000003
    29  H   -0.000000  -0.000000  -0.000000   0.000000  -0.000000   0.000022
    30  H   -0.000120   0.000000  -0.000000  -0.000000  -0.000000  -0.000245
              25         26         27         28         29         30
     1  O    0.000001   0.000000  -0.000000   0.000000  -0.000006   0.007448
     2  S   -0.000159  -0.000000  -0.000000   0.000000  -0.000156  -0.005630
     3  N    0.000004   0.000000   0.000000  -0.000000  -0.000000   0.001345
     4  C   -0.000000  -0.000000  -0.000000   0.000000  -0.000001   0.000075
     5  C    0.000000  -0.000000  -0.000000   0.000000   0.000000  -0.000064
     6  C   -0.000000   0.000000   0.000000  -0.000000   0.000000  -0.000008
     7  C    0.000000  -0.000000  -0.000000   0.000000  -0.000000   0.000000
     8  C    0.000000  -0.000000   0.000000  -0.000000   0.000000  -0.000000
     9  C    0.000000   0.000000   0.000000  -0.000000   0.000000   0.000010
    10  C    0.016717   0.000004   0.000000   0.000125   0.016314  -0.080760
    11  C   -0.066450  -0.000541   0.000776  -0.000253  -0.002042   0.011571
    12  C    0.460930   0.007410  -0.008816  -0.003484   0.014594  -0.001431
    13  C   -0.076891  -0.018579  -0.018630  -0.012127  -0.075763   0.014100
    14  C   -0.013707   0.392268   0.392502   0.389647  -0.013569  -0.000238
    15  C    0.014477  -0.008843   0.007302  -0.003073   0.460270  -0.047848
    16  C   -0.001993   0.000826  -0.000500  -0.000360  -0.066156   0.452007
    17  O   -0.000009   0.000000   0.000000  -0.000000   0.000000   0.000228
    18  H   -0.000002  -0.000000  -0.000000   0.000000   0.000000   0.000008
    19  H   -0.000000   0.000000  -0.000000  -0.000000  -0.000000  -0.000120
    20  H   -0.000000   0.000000   0.000000  -0.000000  -0.000000   0.000000
    21  H   -0.000000   0.000000   0.000000  -0.000000  -0.000000  -0.000000
    22  H    0.000000   0.000000   0.000000  -0.000000   0.000000  -0.000000
    23  H   -0.000000   0.000000   0.000000  -0.000000  -0.000000  -0.000000
    24  H   -0.011212   0.000007  -0.000002   0.000003   0.000022  -0.000245
    25  H    0.665394   0.000165   0.004479   0.000723  -0.000222   0.000024
    26  H    0.000165   0.618324  -0.022141  -0.017161   0.004430   0.000000
    27  H    0.004479  -0.022141   0.618257  -0.017115   0.000151   0.000008
    28  H    0.000723  -0.017161  -0.017115   0.598363   0.000747   0.000003
    29  H   -0.000222   0.004430   0.000151   0.000747   0.664120  -0.011670
    30  H    0.000024   0.000000   0.000008   0.000003  -0.011670   0.633243
 Mulliken charges:
               1
     1  O   -0.456759
     2  S    0.931591
     3  N   -0.282615
     4  C    0.117689
     5  C   -0.065382
     6  C   -0.004415
     7  C   -0.010784
     8  C   -0.006743
     9  C   -0.047528
    10  C   -0.106602
    11  C    0.001158
    12  C   -0.024157
    13  C   -0.075639
    14  C    0.029862
    15  C   -0.031857
    16  C    0.046651
    17  O   -0.480693
    18  H    0.160294
    19  H    0.041117
    20  H    0.016319
    21  H    0.010385
    22  H    0.014337
    23  H   -0.007401
    24  H    0.035041
    25  H    0.007732
    26  H    0.043831
    27  H    0.043729
    28  H    0.063960
    29  H    0.008937
    30  H    0.027943
 Sum of Mulliken charges =  -0.00000
 Mulliken charges with hydrogens summed into heavy atoms:
               1
     1  O   -0.456759
     2  S    0.931591
     3  N   -0.122322
     4  C    0.117689
     5  C   -0.024265
     6  C    0.011904
     7  C   -0.000399
     8  C    0.007594
     9  C   -0.054929
    10  C   -0.106602
    11  C    0.036199
    12  C   -0.016425
    13  C   -0.075639
    14  C    0.181383
    15  C   -0.022920
    16  C    0.074594
    17  O   -0.480693
 Electronic spatial extent (au):  <R**2>=           5529.9568
 Charge=             -0.0000 electrons
 Dipole moment (field-independent basis, Debye):
    X=             -2.6132    Y=             -3.5696    Z=             -1.3641  Tot=              4.6294
 Quadrupole moment (field-independent basis, Debye-Ang):
   XX=            -85.4302   YY=           -112.4094   ZZ=           -104.0285
   XY=              0.8812   XZ=              1.1423   YZ=              0.5750
 Traceless Quadrupole moment (field-independent basis, Debye-Ang):
   XX=             15.1925   YY=            -11.7867   ZZ=             -3.4058
   XY=              0.8812   XZ=              1.1423   YZ=              0.5750
 Octapole moment (field-independent basis, Debye-Ang**2):
  XXX=            -39.2159  YYY=             -3.7883  ZZZ=             -8.0692  XYY=            -10.5049
  XXY=            -21.3556  XXZ=              0.0966  XZZ=             -0.8447  YZZ=             -6.9573
  YYZ=              2.3237  XYZ=             20.7999
 Hexadecapole moment (field-independent basis, Debye-Ang**3):
 XXXX=          -5551.2743 YYYY=           -886.9350 ZZZZ=           -536.0279 XXXY=             14.1659
 XXXZ=             95.5388 YYYX=             19.1543 YYYZ=             18.2270 ZZZX=              3.1420
 ZZZY=             -3.5220 XXYY=          -1133.4485 XXZZ=          -1083.9258 YYZZ=           -231.5332
 XXYZ=             14.7168 YYXZ=            -20.5456 ZZXY=              1.9823
 N-N= 1.293865334841D+03 E-N=-5.176487587575D+03  KE= 1.097921237591D+03
   1 Symmetry operations used in ECPInt.
 ECPInt:  NShTT=   10296 NPrTT=   38220 LenC2=    9196 LenP2D=   24118.
 LDataN:  DoStor=T MaxTD1= 5 Len=  102
 Calling FoFJK, ICntrl=      2127 FMM=F ISym2X=0 I1Cent= 0 IOpClX= 0 NMat=1 NMatS=1 NMatT=0.
 ***** Axes restored to original set *****
 -------------------------------------------------------------------
 Center     Atomic                   Forces (Hartrees/Bohr)
 Number     Number              X              Y              Z
 -------------------------------------------------------------------
      1        8          -0.007863962    0.012538019   -0.054001992
      2       16          -0.029443478    0.031569455    0.017860729
      3        7          -0.002669521    0.001026645    0.037185537
      4        6           0.032742390   -0.007568059   -0.000736039
      5        6          -0.013499097    0.001811645   -0.001921816
      6        6           0.004966382   -0.003367924   -0.004653435
      7        6           0.007641046   -0.001745156    0.001481730
      8        6           0.003526994   -0.000628414    0.000566603
      9        6          -0.015485670    0.004993722    0.003005165
     10        6           0.010791282    0.010845614    0.002723358
     11        6           0.000173984    0.011758499   -0.004169412
     12        6           0.000829561   -0.002698468    0.001623389
     13        6          -0.004123304   -0.000469496   -0.003146028
     14        6          -0.004540399   -0.000012779    0.003024735
     15        6           0.003350221    0.002351626    0.000559315
     16        6           0.003763092   -0.010800985    0.006425702
     17        8           0.004496336   -0.046269135    0.022713984
     18        1          -0.001261413    0.005536599   -0.022618092
     19        1           0.000381579    0.002009335    0.007994109
     20        1           0.003132446    0.001374752    0.009615163
     21        1           0.010321564   -0.002417619    0.000922643
     22        1           0.004854269   -0.003154542   -0.008712010
     23        1          -0.004660421   -0.001528748   -0.012188071
     24        1           0.001928727    0.009993380   -0.002831827
     25        1          -0.007459658    0.007645263   -0.004889540
     26        1          -0.001773478   -0.005009017    0.003052927
     27        1          -0.004560085    0.003797304   -0.001262639
     28        1          -0.000688840   -0.003560106   -0.006665004
     29        1          -0.001334946   -0.010942066    0.004057915
     30        1           0.006464396   -0.007079344    0.004982902
 -------------------------------------------------------------------
 Cartesian Forces:  Max     0.054001992 RMS     0.012254001

 GradGradGradGradGradGradGradGradGradGradGradGradGradGradGradGradGradGrad
 Berny optimization.
 FormGI is forming the generalized inverse of G from B-inverse, IUseBI=4.
 Internal  Forces:  Max     0.058700616 RMS     0.010718415
 Search for a local minimum.
 Step number   1 out of a maximum of  162
 All quantities printed in internal units (Hartrees-Bohrs-Radians)
 Mixed Optimization -- RFO/linear search
 Second derivative matrix not updated -- first step.
 ITU=  0
     Eigenvalues ---    0.00423   0.00926   0.01210   0.01608   0.01743
     Eigenvalues ---    0.01747   0.01984   0.02121   0.02233   0.02264
     Eigenvalues ---    0.02268   0.02299   0.02308   0.02336   0.02348
     Eigenvalues ---    0.02348   0.02370   0.02385   0.02387   0.02394
     Eigenvalues ---    0.02397   0.02422   0.03344   0.07316   0.07337
     Eigenvalues ---    0.10165   0.11523   0.12051   0.12475   0.16000
     Eigenvalues ---    0.16000   0.16000   0.16000   0.16000   0.16000
     Eigenvalues ---    0.16000   0.16000   0.16000   0.16000   0.16000
     Eigenvalues ---    0.16000   0.17340   0.22000   0.22000   0.22000
     Eigenvalues ---    0.22977   0.23362   0.23458   0.23997   0.24988
     Eigenvalues ---    0.24998   0.25000   0.25000   0.26430   0.33678
     Eigenvalues ---    0.34753   0.34756   0.34760   0.35114   0.36264
     Eigenvalues ---    0.36279   0.36280   0.36288   0.36297   0.36441
     Eigenvalues ---    0.36443   0.36514   0.36687   0.42437   0.43332
     Eigenvalues ---    0.44019   0.44265   0.46320   0.47002   0.47762
     Eigenvalues ---    0.48053   0.48230   0.49066   0.49246   0.49297
     Eigenvalues ---    0.50051   0.50128   0.75918   0.76051
 RFO step:  Lambda=-4.32853534D-02 EMin= 4.22515450D-03
 Linear search not attempted -- first point.
 Maximum step size (   0.300) exceeded in Quadratic search.
    -- Step size scaled by   0.889
 Iteration  1 RMS(Cart)=  0.17889454 RMS(Int)=  0.00628171
 Iteration  2 RMS(Cart)=  0.02341403 RMS(Int)=  0.00067987
 Iteration  3 RMS(Cart)=  0.00036122 RMS(Int)=  0.00067009
 Iteration  4 RMS(Cart)=  0.00000020 RMS(Int)=  0.00067009
 Variable       Old X    -DE/DX   Delta X   Delta X   Delta X     New X
                                 (Linear)    (Quad)   (Total)
    R1        2.83818  -0.05583   0.00000  -0.06177  -0.06177   2.77641
    R2        3.22489   0.00959   0.00000   0.02162   0.02162   3.24651
    R3        3.39405  -0.00539   0.00000  -0.01559  -0.01559   3.37845
    R4        2.83895  -0.05119   0.00000  -0.05673  -0.05673   2.78222
    R5        2.63772   0.03415   0.00000   0.05997   0.05997   2.69769
    R6        1.88395   0.02191   0.00000   0.03707   0.03707   1.92102
    R7        2.64772   0.00681   0.00000   0.01184   0.01183   2.65956
    R8        2.64759   0.00409   0.00000   0.00658   0.00657   2.65416
    R9        2.59631   0.01973   0.00000   0.03250   0.03250   2.62881
   R10        2.03021   0.00665   0.00000   0.01441   0.01441   2.04462
   R11        2.60832   0.01212   0.00000   0.02086   0.02087   2.62919
   R12        2.03648   0.01012   0.00000   0.02216   0.02216   2.05864
   R13        2.60896   0.01069   0.00000   0.01816   0.01817   2.62713
   R14        2.03620   0.01063   0.00000   0.02328   0.02328   2.05948
   R15        2.59855   0.01571   0.00000   0.02537   0.02537   2.62392
   R16        2.03634   0.01041   0.00000   0.02280   0.02280   2.05913
   R17        2.03285   0.01309   0.00000   0.02851   0.02851   2.06136
   R18        2.59645   0.01672   0.00000   0.02773   0.02774   2.62419
   R19        2.59620   0.01952   0.00000   0.03226   0.03226   2.62846
   R20        2.60807   0.01275   0.00000   0.02126   0.02126   2.62933
   R21        2.03671   0.01055   0.00000   0.02312   0.02312   2.05983
   R22        2.62206   0.01402   0.00000   0.02349   0.02348   2.64554
   R23        2.03395   0.01166   0.00000   0.02544   0.02544   2.05939
   R24        2.81177   0.01264   0.00000   0.02956   0.02956   2.84133
   R25        2.62220   0.01623   0.00000   0.02723   0.02723   2.64943
   R26        2.06073   0.00596   0.00000   0.01356   0.01356   2.07430
   R27        2.06077   0.00590   0.00000   0.01343   0.01343   2.07420
   R28        2.06066   0.00756   0.00000   0.01720   0.01720   2.07786
   R29        2.60831   0.00970   0.00000   0.01613   0.01613   2.62444
   R30        2.03397   0.01166   0.00000   0.02543   0.02543   2.05940
   R31        2.03646   0.01067   0.00000   0.02338   0.02338   2.05984
    A1        2.00859  -0.00923   0.00000  -0.03921  -0.04015   1.96844
    A2        1.85248   0.00009   0.00000   0.01148   0.01227   1.86476
    A3        2.13430  -0.00189   0.00000  -0.02388  -0.02463   2.10968
    A4        1.67903   0.01624   0.00000   0.06190   0.06170   1.74073
    A5        1.85423   0.00020   0.00000   0.00358   0.00232   1.85655
    A6        1.87614  -0.00035   0.00000   0.01117   0.01069   1.88684
    A7        2.06195   0.05870   0.00000   0.19451   0.19342   2.25537
    A8        1.76960  -0.01176   0.00000  -0.00915  -0.00944   1.76016
    A9        1.99848  -0.02101   0.00000  -0.07068  -0.07493   1.92356
   A10        2.15581   0.02370   0.00000   0.07276   0.07274   2.22855
   A11        2.07806  -0.02551   0.00000  -0.07647  -0.07647   2.00158
   A12        2.04927   0.00180   0.00000   0.00362   0.00360   2.05286
   A13        2.11640  -0.00433   0.00000  -0.01450  -0.01449   2.10190
   A14        2.07053   0.00711   0.00000   0.02889   0.02888   2.09942
   A15        2.09624  -0.00278   0.00000  -0.01440  -0.01440   2.08184
   A16        2.09672   0.00480   0.00000   0.01837   0.01839   2.11511
   A17        2.09266  -0.00377   0.00000  -0.01517  -0.01518   2.07748
   A18        2.09381  -0.00103   0.00000  -0.00320  -0.00321   2.09060
   A19        2.09194  -0.00545   0.00000  -0.01628  -0.01626   2.07567
   A20        2.09549   0.00310   0.00000   0.00979   0.00978   2.10527
   A21        2.09576   0.00235   0.00000   0.00649   0.00649   2.10224
   A22        2.09833   0.00030   0.00000   0.00104   0.00104   2.09937
   A23        2.09223   0.00088   0.00000   0.00396   0.00396   2.09619
   A24        2.09263  -0.00117   0.00000  -0.00500  -0.00500   2.08763
   A25        2.11368   0.00288   0.00000   0.00774   0.00773   2.12141
   A26        2.06869  -0.00033   0.00000   0.00099   0.00099   2.06969
   A27        2.10081  -0.00255   0.00000  -0.00873  -0.00872   2.09208
   A28        2.09270  -0.00254   0.00000  -0.00867  -0.00868   2.08402
   A29        2.08984  -0.00154   0.00000  -0.00562  -0.00563   2.08420
   A30        2.10065   0.00409   0.00000   0.01430   0.01430   2.11495
   A31        2.09320  -0.00426   0.00000  -0.01311  -0.01311   2.08009
   A32        2.07814   0.00260   0.00000   0.00863   0.00863   2.08676
   A33        2.11184   0.00166   0.00000   0.00448   0.00448   2.11632
   A34        2.10375   0.00226   0.00000   0.00700   0.00699   2.11074
   A35        2.09622  -0.00243   0.00000  -0.00918  -0.00918   2.08704
   A36        2.08321   0.00017   0.00000   0.00218   0.00219   2.08539
   A37        2.10553   0.00032   0.00000   0.00175   0.00175   2.10728
   A38        2.07183  -0.00032   0.00000  -0.00245  -0.00246   2.06937
   A39        2.10542   0.00001   0.00000   0.00082   0.00082   2.10624
   A40        1.93952   0.00110   0.00000   0.00550   0.00548   1.94500
   A41        1.93959   0.00105   0.00000   0.00533   0.00531   1.94489
   A42        1.93343   0.00011   0.00000  -0.00095  -0.00095   1.93248
   A43        1.87850  -0.00008   0.00000   0.00235   0.00231   1.88080
   A44        1.88533  -0.00118   0.00000  -0.00657  -0.00657   1.87877
   A45        1.88520  -0.00112   0.00000  -0.00621  -0.00620   1.87900
   A46        2.10496   0.00234   0.00000   0.00708   0.00707   2.11203
   A47        2.08248   0.00022   0.00000   0.00251   0.00251   2.08500
   A48        2.09575  -0.00255   0.00000  -0.00959  -0.00959   2.08616
   A49        2.09191  -0.00410   0.00000  -0.01275  -0.01275   2.07916
   A50        2.08131   0.00375   0.00000   0.01381   0.01381   2.09512
   A51        2.10994   0.00035   0.00000  -0.00106  -0.00106   2.10888
    D1       -0.70598   0.00345   0.00000   0.00305   0.00433  -0.70164
    D2       -2.90484   0.00287   0.00000  -0.02159  -0.02434  -2.92917
    D3       -2.64461  -0.00273   0.00000  -0.03208  -0.02948  -2.67408
    D4        1.43972  -0.00332   0.00000  -0.05672  -0.05815   1.38157
    D5        1.71383  -0.00810   0.00000  -0.06649  -0.06433   1.64950
    D6       -0.48503  -0.00868   0.00000  -0.09113  -0.09300  -0.57803
    D7        2.32419   0.00034   0.00000   0.00064   0.00029   2.32448
    D8       -0.81870   0.00081   0.00000   0.00767   0.00728  -0.81142
    D9       -1.89280  -0.00329   0.00000  -0.01442  -0.01434  -1.90714
   D10        1.24750  -0.00282   0.00000  -0.00739  -0.00735   1.24015
   D11        0.01344   0.00288   0.00000   0.01494   0.01528   0.02872
   D12       -3.12945   0.00335   0.00000   0.02198   0.02227  -3.10718
   D13        0.29753  -0.00545   0.00000  -0.02341  -0.02130   0.27623
   D14       -2.85543  -0.00618   0.00000  -0.03386  -0.03176  -2.88720
   D15        2.38036   0.00814   0.00000   0.06247   0.06037   2.44073
   D16       -0.77260   0.00740   0.00000   0.05202   0.04991  -0.72269
   D17        3.13937  -0.00099   0.00000  -0.01201  -0.01239   3.12698
   D18        0.00301  -0.00083   0.00000  -0.01041  -0.01069  -0.00769
   D19        0.00898  -0.00010   0.00000  -0.00122  -0.00120   0.00778
   D20       -3.12739   0.00006   0.00000   0.00038   0.00050  -3.12689
   D21       -3.13959   0.00041   0.00000   0.00759   0.00717  -3.13242
   D22        0.00010   0.00040   0.00000   0.00709   0.00673   0.00683
   D23       -0.00868  -0.00012   0.00000  -0.00173  -0.00165  -0.01033
   D24        3.13101  -0.00014   0.00000  -0.00223  -0.00209   3.12892
   D25       -0.00353   0.00020   0.00000   0.00289   0.00283  -0.00070
   D26        3.13844   0.00003   0.00000   0.00031   0.00032   3.13876
   D27        3.13276   0.00007   0.00000   0.00140   0.00128   3.13404
   D28       -0.00846  -0.00010   0.00000  -0.00118  -0.00123  -0.00969
   D29       -0.00255  -0.00010   0.00000  -0.00166  -0.00162  -0.00416
   D30        3.14068  -0.00013   0.00000  -0.00188  -0.00185   3.13884
   D31        3.13867   0.00007   0.00000   0.00092   0.00091   3.13958
   D32       -0.00129   0.00005   0.00000   0.00070   0.00068  -0.00061
   D33        0.00284  -0.00008   0.00000  -0.00117  -0.00114   0.00169
   D34       -3.13869   0.00004   0.00000   0.00079   0.00075  -3.13793
   D35       -3.14039  -0.00005   0.00000  -0.00095  -0.00091  -3.14130
   D36        0.00127   0.00006   0.00000   0.00102   0.00098   0.00226
   D37        0.00294   0.00018   0.00000   0.00285   0.00277   0.00571
   D38       -3.13671   0.00019   0.00000   0.00335   0.00320  -3.13351
   D39       -3.13872   0.00006   0.00000   0.00088   0.00088  -3.13784
   D40        0.00481   0.00008   0.00000   0.00138   0.00131   0.00613
   D41        3.14062   0.00015   0.00000   0.00234   0.00235  -3.14021
   D42       -0.00516   0.00007   0.00000   0.00143   0.00144  -0.00372
   D43        0.00033  -0.00032   0.00000  -0.00472  -0.00475  -0.00442
   D44        3.13773  -0.00039   0.00000  -0.00563  -0.00566   3.13207
   D45       -3.14077  -0.00011   0.00000  -0.00182  -0.00185   3.14057
   D46        0.00668  -0.00013   0.00000  -0.00225  -0.00227   0.00441
   D47       -0.00047   0.00036   0.00000   0.00523   0.00525   0.00478
   D48       -3.13621   0.00034   0.00000   0.00480   0.00483  -3.13138
   D49        0.00607  -0.00007   0.00000  -0.00090  -0.00092   0.00515
   D50       -3.13702  -0.00016   0.00000  -0.00216  -0.00217  -3.13919
   D51       -3.13125   0.00000   0.00000   0.00002   0.00000  -3.13125
   D52        0.00884  -0.00009   0.00000  -0.00124  -0.00125   0.00759
   D53       -3.12365   0.00012   0.00000   0.00148   0.00148  -3.12217
   D54       -0.01209   0.00042   0.00000   0.00592   0.00591  -0.00618
   D55        0.01943   0.00022   0.00000   0.00274   0.00274   0.02217
   D56        3.13099   0.00052   0.00000   0.00718   0.00717   3.13816
   D57       -2.62705  -0.00051   0.00000  -0.00260  -0.00261  -2.62966
   D58       -0.53562   0.00083   0.00000   0.00760   0.00761  -0.52801
   D59        1.56019   0.00018   0.00000   0.00267   0.00267   1.56286
   D60        0.54515  -0.00081   0.00000  -0.00706  -0.00708   0.53807
   D61        2.63658   0.00053   0.00000   0.00313   0.00315   2.63973
   D62       -1.55079  -0.00012   0.00000  -0.00180  -0.00179  -1.55259
   D63        0.01195  -0.00038   0.00000  -0.00541  -0.00540   0.00655
   D64       -3.13130  -0.00047   0.00000  -0.00660  -0.00659  -3.13789
   D65        3.12352  -0.00008   0.00000  -0.00096  -0.00096   3.12256
   D66       -0.01974  -0.00017   0.00000  -0.00215  -0.00215  -0.02189
   D67       -0.00579  -0.00000   0.00000  -0.00011  -0.00009  -0.00587
   D68        3.12985   0.00003   0.00000   0.00038   0.00039   3.13024
   D69        3.13748   0.00008   0.00000   0.00108   0.00109   3.13858
   D70       -0.01007   0.00012   0.00000   0.00156   0.00157  -0.00850
         Item               Value     Threshold  Converged?
 Maximum Force            0.058701     0.000450     NO 
 RMS     Force            0.010718     0.000300     NO 
 Maximum Displacement     0.790387     0.001800     NO 
 RMS     Displacement     0.194400     0.001200     NO 
 Predicted change in Energy=-2.388689D-02
 GradGradGradGradGradGradGradGradGradGradGradGradGradGradGradGradGradGrad

                          Input orientation:                          
 ---------------------------------------------------------------------
 Center     Atomic      Atomic             Coordinates (Angstroms)
 Number     Number       Type             X           Y           Z
 ---------------------------------------------------------------------
      1          8           0        0.153278    0.797741    2.057098
      2         16           0       -0.089026    1.067796    0.633389
      3          7           0        0.922815    0.141722   -0.401029
      4          6           0        2.304650   -0.185753   -0.255411
      5          6           0        3.093740   -0.090245    0.906020
      6          6           0        4.431965   -0.469385    0.881772
      7          6           0        5.023431   -0.950744   -0.281929
      8          6           0        4.252856   -1.055290   -1.434313
      9          6           0        2.915569   -0.681919   -1.418718
     10          6           0       -1.674263    0.345425    0.231598
     11          6           0       -2.598196    1.087945   -0.491857
     12          6           0       -3.831115    0.521754   -0.800544
     13          6           0       -4.150320   -0.777149   -0.387204
     14          6           0       -5.474259   -1.393785   -0.744498
     15          6           0       -3.196508   -1.502496    0.340650
     16          6           0       -1.962779   -0.947678    0.655040
     17          8           0       -0.067803    2.444191    0.111168
     18          1           0        0.764026    0.607076   -1.290761
     19          1           0        2.663385    0.273307    1.829749
     20          1           0        5.022358   -0.383493    1.793263
     21          1           0        6.073363   -1.242781   -0.291214
     22          1           0        4.695690   -1.433064   -2.355463
     23          1           0        2.315286   -0.773888   -2.324864
     24          1           0       -2.347864    2.102229   -0.802816
     25          1           0       -4.560188    1.097836   -1.369937
     26          1           0       -5.796343   -2.119682    0.013272
     27          1           0       -6.260009   -0.632680   -0.834427
     28          1           0       -5.410284   -1.922420   -1.706513
     29          1           0       -3.428338   -2.516192    0.666706
     30          1           0       -1.227418   -1.510411    1.230122
 ---------------------------------------------------------------------
                    Distance matrix (angstroms):
                    1          2          3          4          5
     1  O    0.000000
     2  S    1.469214   0.000000
     3  N    2.657995   1.717980   0.000000
     4  C    3.308075   2.844475   1.427555   0.000000
     5  C    3.280216   3.397850   2.544622   1.407376   0.000000
     6  C    4.614559   4.781629   3.785916   2.428807   1.391108
     7  C    5.678613   5.572211   4.245318   2.824480   2.423921
     8  C    5.694753   5.256884   3.686419   2.437501   2.784245
     9  C    4.679844   4.037355   2.384353   1.404523   2.405458
    10  C    2.622393   1.787801   2.680770   4.043647   4.835132
    11  C    3.761915   2.750003   3.647068   5.071106   5.978321
    12  C    4.910974   4.044447   4.785800   6.200431   7.158248
    13  C    5.193828   4.575974   5.155698   6.483345   7.390580
    14  C    6.657395   6.079366   6.587740   7.887330   8.822360
    15  C    4.411163   4.043333   4.496929   5.687868   6.471578
    16  C    3.080577   2.752009   3.260173   4.429493   5.134839
    17  O    2.558577   1.472287   2.558327   3.560831   4.129226
    18  H    3.408449   2.154603   1.016558   2.018427   3.277144
    19  H    2.574364   3.104554   2.832537   2.165022   1.081966
    20  H    5.017256   5.438547   4.679426   3.409121   2.143073
    21  H    6.687728   6.645953   5.334515   3.914305   3.411724
    22  H    6.714215   6.170984   4.531484   3.418051   3.873845
    23  H    5.132824   4.233648   2.545281   2.151430   3.392929
    24  H    4.017027   2.869684   3.834366   5.213483   6.110492
    25  H    5.835357   4.899541   5.649448   7.072183   8.073049
    26  H    6.934449   6.566432   7.101597   8.332969   9.162379
    27  H    7.178946   6.567124   7.237437   8.595835   9.529743
    28  H    7.246880   6.536995   6.787718   8.040019   9.082984
    29  H    5.073787   4.898682   5.209328   6.256868   6.962757
    30  H    2.813855   2.880829   3.164443   4.054261   4.560078
                    6          7          8          9         10
     6  C    0.000000
     7  C    1.391309   0.000000
     8  C    2.395750   1.390218   0.000000
     9  C    2.763491   2.409904   1.388519   0.000000
    10  C    6.194567   6.841263   6.314111   4.984530   0.000000
    11  C    7.330436   7.892372   7.240068   5.864562   1.388660
    12  C    8.490643   8.991118   8.260709   6.881040   2.397586
    13  C    8.681051   9.175998   8.472731   7.141420   2.788180
    14  C   10.081297  10.517213   9.757417   8.446925   4.291571
    15  C    7.717107   8.261927   7.670952   6.412972   2.396651
    16  C    6.416613   7.048763   6.558284   5.307483   1.390920
    17  O    5.415779   6.131948   5.770873   4.584062   2.645759
    18  H    4.396867   4.646190   3.867299   2.511377   2.886398
    19  H    2.139656   3.395189   3.865966   3.395378   4.623254
    20  H    1.089384   2.151325   3.385365   3.852848   6.914829
    21  H    2.160608   1.089829   2.157794   3.399632   7.925998
    22  H    3.387908   2.153970   1.089647   2.147217   7.101564
    23  H    3.854292   3.396897   2.150917   1.090825   4.868764
    24  H    7.444267   7.995497   7.344264   5.986196   2.147117
    25  H    9.401340   9.860335   9.072477   7.684845   3.385203
    26  H   10.396926  10.886739  10.208567   8.945120   4.807906
    27  H   10.830065  11.301435  10.538443   9.194294   4.808551
    28  H   10.280097  10.575254   9.705785   8.422677   4.780925
    29  H    8.125272   8.647713   8.096250   6.925223   3.384516
    30  H    5.764867   6.455435   6.110626   4.986691   2.154262
                   11         12         13         14         15
    11  C    0.000000
    12  C    1.391384   0.000000
    13  C    2.428707   1.399961   0.000000
    14  C    3.807171   2.524352   1.503567   0.000000
    15  C    2.785935   2.408866   1.402019   2.525374   0.000000
    16  C    2.421341   2.787226   2.429133   3.806338   1.388795
    17  O    2.933587   4.323135   5.224208   6.685207   5.041607
    18  H    3.489129   4.622003   5.184911   6.574044   4.774687
    19  H    5.808418   7.011325   7.241886   8.696389   6.301527
    20  H    8.090720   9.269913   9.436495  10.846193   8.420927
    21  H    8.981563  10.073315  10.234732  11.557502   9.295010
    22  H    7.939098   8.885127   9.086042  10.296825   8.340302
    23  H    5.564947   6.463782   6.749711   7.972380   6.165688
    24  H    1.090015   2.167473   3.422338   4.690401   3.875791
    25  H    2.149543   1.089783   2.156229   2.726697   3.398155
    26  H    4.557650   3.391401   2.161520   1.097670   2.692069
    27  H    4.060391   2.689496   2.161403   1.097620   3.394469
    28  H    4.294825   3.047711   2.154003   1.099555   3.044341
    29  H    3.875720   3.397670   2.157836   2.727102   1.089787
    30  H    3.405246   3.877181   3.420055   4.684910   2.160680
                   16         17         18         19         20
    16  C    0.000000
    17  O    3.923201   0.000000
    18  H    3.693084   2.456082   0.000000
    19  H    4.926676   3.889170   3.668317   0.000000
    20  H    7.099718   6.060939   5.350311   2.448974   0.000000
    21  H    8.097040   7.174231   5.710527   4.292431   2.487576
    22  H    7.323519   6.618779   4.555627   4.955599   4.291881
    23  H    5.216500   4.687153   2.320094   4.298674   4.943644
    24  H    3.402289   2.480117   3.486751   5.948778   8.199916
    25  H    3.877008   4.918116   5.347370   7.943415  10.199282
    26  H    4.059763   7.324937   7.223169   8.977359  11.100767
    27  H    4.558938   6.978875   7.147188   9.356580  11.587003
    28  H    4.290960   7.135360   6.685305   9.083528  11.111109
    29  H    2.146680   6.017243   5.582329   6.800225   8.788163
[...]
     2  S    0.000428  -0.000200   0.005112   0.308074  -0.052446   0.006866
     3  N    0.002744   0.006486  -0.051753  -0.039299  -0.003283   0.001171
     4  C   -0.089965  -0.014171   0.414839  -0.006292  -0.002363   0.000206
     5  C    0.038926  -0.075748   0.017741   0.002381  -0.000404   0.000017
     6  C    0.427555   0.012525  -0.077063  -0.000347   0.000011   0.000000
     7  C    4.951029   0.453086   0.019853   0.000062  -0.000003  -0.000000
     8  C    0.453086   4.884349   0.456841  -0.000042   0.000026  -0.000001
     9  C    0.019853   0.456841   5.058149  -0.000096   0.000585  -0.000039
    10  C    0.000062  -0.000042  -0.000096   5.340678   0.267108   0.046400
    11  C   -0.000003   0.000026   0.000585   0.267108   5.204913   0.336994
    12  C   -0.000000  -0.000001  -0.000039   0.046400   0.336994   5.095632
    13  C    0.000000   0.000000   0.000012  -0.102542   0.046344   0.439605
    14  C    0.000000   0.000000   0.000000  -0.005371   0.018097  -0.074429
    15  C    0.000000  -0.000001  -0.000007   0.033391  -0.074452  -0.002950
    16  C   -0.000008   0.000006  -0.000284   0.396551  -0.042821  -0.050460
    17  O    0.000160  -0.000956   0.001245  -0.102480   0.029821   0.002819
    18  H    0.000073   0.002190   0.014737   0.003973   0.000698  -0.000267
    19  H    0.006880  -0.002166   0.007390  -0.001051  -0.000111   0.000000
    20  H   -0.057743   0.010541  -0.003089  -0.000002   0.000000  -0.000000
    21  H    0.443334  -0.056672   0.012092   0.000000  -0.000000   0.000000
    22  H   -0.057634   0.438652  -0.054264  -0.000002  -0.000000   0.000000
    23  H    0.007697  -0.024139   0.425293  -0.000017   0.000013  -0.000002
    24  H   -0.000000   0.000005   0.000086  -0.046535   0.437928  -0.052231
    25  H   -0.000000  -0.000000  -0.000000   0.011038  -0.046610   0.436707
    26  H    0.000000  -0.000000  -0.000000   0.000227  -0.000894  -0.003707
    27  H   -0.000000   0.000000   0.000000  -0.000225   0.002914  -0.005727
    28  H   -0.000000   0.000000  -0.000000   0.000237  -0.000890   0.003046
    29  H   -0.000000   0.000000   0.000000   0.010995  -0.003502   0.011940
    30  H   -0.000000  -0.000001  -0.000007  -0.052414   0.013517  -0.003995
              13         14         15         16         17         18
     1  O    0.000195   0.000001   0.002034   0.021757  -0.049054   0.002776
     2  S   -0.001256  -0.000002   0.006896  -0.014331   0.567622  -0.010554
     3  N   -0.000954  -0.000013  -0.000811   0.002994  -0.062761   0.361718
     4  C   -0.000082  -0.000001   0.000172   0.002075   0.010060  -0.065871
     5  C    0.000003  -0.000000  -0.000042  -0.000581   0.003336   0.001480
     6  C   -0.000000  -0.000000   0.000002   0.000055  -0.000350  -0.000512
     7  C    0.000000   0.000000   0.000000  -0.000008   0.000160   0.000073
     8  C    0.000000   0.000000  -0.000001   0.000006  -0.000956   0.002190
     9  C    0.000012   0.000000  -0.000007  -0.000284   0.001245   0.014737
    10  C   -0.102542  -0.005371   0.033391   0.396551  -0.102480   0.003973
    11  C    0.046344   0.018097  -0.074452  -0.042821   0.029821   0.000698
    12  C    0.439605  -0.074429  -0.002950  -0.050460   0.002819  -0.000267
    13  C    4.969411   0.296994   0.394073   0.017721   0.000156   0.000113
    14  C    0.296994   4.957736  -0.070096   0.008915   0.000000   0.000001
    15  C    0.394073  -0.070096   5.098904   0.399086  -0.000630  -0.000106
    16  C    0.017721   0.008915   0.399086   5.028270   0.007778  -0.000739
    17  O    0.000156   0.000000  -0.000630   0.007778   8.034354   0.000920
    18  H    0.000113   0.000001  -0.000106  -0.000739   0.000920   0.448886
    19  H    0.000003   0.000000   0.000023   0.000589   0.000537  -0.000236
    20  H   -0.000000  -0.000000  -0.000000  -0.000000  -0.000002   0.000017
    21  H   -0.000000   0.000000   0.000000  -0.000000   0.000000  -0.000003
    22  H   -0.000000  -0.000000  -0.000000   0.000000  -0.000005  -0.000070
    23  H    0.000001   0.000000   0.000000  -0.000004   0.000224   0.004368
    24  H    0.009675   0.000028  -0.002980   0.008469   0.015541   0.000290
    25  H   -0.056639  -0.009182   0.013233  -0.003158  -0.000023  -0.000006
    26  H   -0.024843   0.398415  -0.003390  -0.000277  -0.000000   0.000000
    27  H   -0.059770   0.429751   0.008812  -0.000185   0.000000  -0.000000
    28  H   -0.041594   0.417279  -0.006154   0.000694   0.000000  -0.000000
    29  H   -0.061132  -0.003375   0.446488  -0.052874   0.000003   0.000002
    30  H    0.010602   0.000008  -0.056422   0.438594   0.000394   0.000021
              19         20         21         22         23         24
     1  O    0.007248  -0.000087   0.000001  -0.000001  -0.000006   0.000712
     2  S   -0.001864  -0.000003   0.000002  -0.000015   0.000190  -0.006221
     3  N    0.000578  -0.000199   0.000017  -0.000320   0.000677   0.000678
     4  C   -0.033042   0.013408  -0.003892   0.014397  -0.066951  -0.000547
     5  C    0.416488  -0.056779   0.011737  -0.004228   0.008101  -0.000021
     6  C   -0.038086   0.443112  -0.056909   0.011372  -0.002175   0.000001
     7  C    0.006880  -0.057743   0.443334  -0.057634   0.007697  -0.000000
     8  C   -0.002166   0.010541  -0.056672   0.438652  -0.024139   0.000005
     9  C    0.007390  -0.003089   0.012092  -0.054264   0.425293   0.000086
    10  C   -0.001051  -0.000002   0.000000  -0.000002  -0.000017  -0.046535
    11  C   -0.000111   0.000000  -0.000000  -0.000000   0.000013   0.437928
    12  C    0.000000  -0.000000   0.000000   0.000000  -0.000002  -0.052231
    13  C    0.000003  -0.000000  -0.000000  -0.000000   0.000001   0.009675
    14  C    0.000000  -0.000000   0.000000  -0.000000   0.000000   0.000028
    15  C    0.000023  -0.000000   0.000000  -0.000000   0.000000  -0.002980
    16  C    0.000589  -0.000000  -0.000000   0.000000  -0.000004   0.008469
    17  O    0.000537  -0.000002   0.000000  -0.000005   0.000224   0.015541
    18  H   -0.000236   0.000017  -0.000003  -0.000070   0.004368   0.000290
    19  H    0.485324  -0.006035  -0.000055   0.000024  -0.000113  -0.000005
    20  H   -0.006035   0.540712  -0.006924  -0.000121   0.000034   0.000000
    21  H   -0.000055  -0.006924   0.543124  -0.006760  -0.000130  -0.000000
    22  H    0.000024  -0.000121  -0.006760   0.544869  -0.007249  -0.000000
    23  H   -0.000113   0.000034  -0.000130  -0.007249   0.540325   0.000000
    24  H   -0.000005   0.000000  -0.000000  -0.000000   0.000000   0.470815
    25  H    0.000000   0.000000  -0.000000   0.000000  -0.000000  -0.005224
    26  H    0.000000  -0.000000   0.000000   0.000000   0.000000   0.000005
    27  H   -0.000000  -0.000000  -0.000000  -0.000000   0.000000  -0.000017
    28  H   -0.000000   0.000000  -0.000000   0.000000  -0.000000   0.000002
    29  H   -0.000002   0.000000  -0.000000   0.000000  -0.000000   0.000027
    30  H    0.000463  -0.000000  -0.000000   0.000000   0.000001   0.000001
              25         26         27         28         29         30
     1  O    0.000003  -0.000000   0.000000   0.000000  -0.000022   0.008845
     2  S   -0.000157  -0.000001  -0.000000   0.000001  -0.000111  -0.004435
     3  N    0.000015   0.000000  -0.000000   0.000000   0.000016   0.000288
     4  C    0.000003  -0.000000  -0.000000   0.000000   0.000001  -0.000283
     5  C   -0.000000   0.000000  -0.000000  -0.000000  -0.000001   0.000247
     6  C    0.000000  -0.000000   0.000000   0.000000   0.000000   0.000014
     7  C   -0.000000   0.000000  -0.000000  -0.000000  -0.000000  -0.000000
     8  C   -0.000000  -0.000000   0.000000   0.000000   0.000000  -0.000001
     9  C   -0.000000  -0.000000   0.000000  -0.000000   0.000000  -0.000007
    10  C    0.011038   0.000227  -0.000225   0.000237   0.010995  -0.052414
    11  C   -0.046610  -0.000894   0.002914  -0.000890  -0.003502   0.013517
    12  C    0.436707  -0.003707  -0.005727   0.003046   0.011940  -0.003995
    13  C   -0.056639  -0.024843  -0.059770  -0.041594  -0.061132   0.010602
    14  C   -0.009182   0.398415   0.429751   0.417279  -0.003375   0.000008
    15  C    0.013233  -0.003390   0.008812  -0.006154   0.446488  -0.056422
    16  C   -0.003158  -0.000277  -0.000185   0.000694  -0.052874   0.438594
    17  O   -0.000023  -0.000000   0.000000   0.000000   0.000003   0.000394
    18  H   -0.000006   0.000000  -0.000000  -0.000000   0.000002   0.000021
    19  H    0.000000   0.000000  -0.000000  -0.000000  -0.000002   0.000463
    20  H    0.000000  -0.000000  -0.000000   0.000000   0.000000  -0.000000
    21  H   -0.000000   0.000000  -0.000000  -0.000000  -0.000000  -0.000000
    22  H    0.000000   0.000000  -0.000000   0.000000   0.000000   0.000000
    23  H   -0.000000   0.000000   0.000000  -0.000000  -0.000000   0.000001
    24  H   -0.005224   0.000005  -0.000017   0.000002   0.000027   0.000001
    25  H    0.531477   0.000146   0.002137   0.000077  -0.000062   0.000027
    26  H    0.000146   0.542229  -0.019571  -0.028265   0.000015  -0.000004
    27  H    0.002137  -0.019571   0.536735  -0.021669   0.000090   0.000006
    28  H    0.000077  -0.028265  -0.021669   0.542327   0.000092  -0.000015
    29  H   -0.000062   0.000015   0.000090   0.000092   0.529189  -0.006217
    30  H    0.000027  -0.000004   0.000006  -0.000015  -0.006217   0.495720
 Mulliken charges:
               1
     1  O   -0.465890
     2  S    0.839140
     3  N   -0.331290
     4  C    0.256016
     5  C   -0.249328
     6  C   -0.077589
     7  C   -0.146665
     8  C   -0.090627
     9  C   -0.249156
    10  C   -0.000292
    11  C   -0.138378
    12  C   -0.186878
    13  C    0.163904
    14  C   -0.364759
    15  C   -0.185073
    16  C   -0.167829
    17  O   -0.458708
    18  H    0.236099
    19  H    0.157218
    20  H    0.123160
    21  H    0.121036
    22  H    0.121355
    23  H    0.113862
    24  H    0.169518
    25  H    0.126200
    26  H    0.139917
    27  H    0.126719
    28  H    0.134831
    29  H    0.128441
    30  H    0.155044
 Sum of Mulliken charges =  -0.00000
 Mulliken charges with hydrogens summed into heavy atoms:
               1
     1  O   -0.465890
     2  S    0.839140
     3  N   -0.095191
     4  C    0.256016
     5  C   -0.092110
     6  C    0.045571
     7  C   -0.025629
     8  C    0.030728
     9  C   -0.135294
    10  C   -0.000292
    11  C    0.031141
    12  C   -0.060678
    13  C    0.163904
    14  C    0.036709
    15  C   -0.056631
    16  C   -0.012785
    17  O   -0.458708
 Electronic spatial extent (au):  <R**2>=           5712.2135
 Charge=             -0.0000 electrons
 Dipole moment (field-independent basis, Debye):
    X=             -3.0410    Y=             -0.1527    Z=             -3.9276  Tot=              4.9696
 Quadrupole moment (field-independent basis, Debye-Ang):
   XX=            -81.5821   YY=           -101.8487   ZZ=           -114.0587
   XY=              0.0224   XZ=              0.7053   YZ=             -4.7229
 Traceless Quadrupole moment (field-independent basis, Debye-Ang):
   XX=             17.5811   YY=             -2.6855   ZZ=            -14.8956
   XY=              0.0224   XZ=              0.7053   YZ=             -4.7229
 Octapole moment (field-independent basis, Debye-Ang**2):
  XXX=            -32.2986  YYY=             -4.3018  ZZZ=              3.2151  XYY=            -10.3146
  XXY=             -3.4830  XXZ=            -17.1124  XZZ=             -5.7171  YZZ=              5.9391
  YYZ=             -6.2695  XYZ=            -18.8727
 Hexadecapole moment (field-independent basis, Debye-Ang**3):
 XXXX=          -5809.8254 YYYY=           -658.3211 ZZZZ=           -612.9566 XXXY=            -12.0106
 XXXZ=             61.4144 YYYX=             -7.9703 YYYZ=            -16.9632 ZZZX=             16.4383
 ZZZY=             -2.9108 XXYY=          -1127.6274 XXZZ=          -1235.1611 YYZZ=           -221.1100
 XXYZ=            -47.2845 YYXZ=              7.1449 ZZXY=             23.9564
 N-N= 1.287200945765D+03 E-N=-5.169934471264D+03  KE= 1.102021233630D+03
 Breneman (CHELPG) radii used.
 Read replacement radii for each type of atom:
 Atom Element Radius
    1     8    1.70
    2    16    2.00
    3     7    1.70
    4     6    1.50
    5     6    1.50
    6     6    1.50
    7     6    1.50
    8     6    1.50
    9     6    1.50
   10     6    1.50
   11     6    1.50
   12     6    1.50
   13     6    1.50
   14     6    1.50
   15     6    1.50
   16     6    1.50
   17     8    1.70
   18     1    1.45
   19     1    1.45
   20     1    1.45
   21     1    1.45
   22     1    1.45
   23     1    1.45
   24     1    1.45
   25     1    1.45
   26     1    1.45
   27     1    1.45
   28     1    1.45
   29     1    1.45
   30     1    1.45
 Generate Potential Derived Charges using the Breneman model, NDens= 1.
 Grid spacing= 0.300 Box extension= 2.800
 NStep X,Y,Z=   62     35     32   Total possible points=       69440
 Number of Points to Fit=   19062

 **********************************************************************

            Electrostatic Properties Using The SCF Density.

 **********************************************************************

       Atomic Center    1 is at   0.417100 -0.879820  1.756041
       Atomic Center    2 is at   0.067125  0.265452  0.936029
       Atomic Center    3 is at   0.900490  0.094255 -0.533077
       Atomic Center    4 is at   2.319092 -0.016062 -0.507786
       Atomic Center    5 is at   2.934336 -1.112476  0.106918
       Atomic Center    6 is at   4.321835 -1.221501  0.089704
       Atomic Center    7 is at   5.105084 -0.264646 -0.555668
       Atomic Center    8 is at   4.489074  0.818779 -1.178576
       Atomic Center    9 is at   3.102960  0.951050 -1.144856
       Atomic Center   10 is at  -1.598373  0.087717  0.345080
       Atomic Center   11 is at  -2.417529  1.208591  0.266899
       Atomic Center   12 is at  -3.725316  1.057663 -0.191669
       Atomic Center   13 is at  -4.218941 -0.195757 -0.566577
       Atomic Center   14 is at  -5.635886 -0.365272 -1.044869
       Atomic Center   15 is at  -3.368251 -1.308691 -0.469956
       Atomic Center   16 is at  -2.063799 -1.177987 -0.013824
       Atomic Center   17 is at   0.224784  1.615171  1.452268
       Atomic Center   18 is at   0.581520  0.830480 -1.160302
       Atomic Center   19 is at   2.319289 -1.863701  0.600601
       Atomic Center   20 is at   4.795404 -2.075648  0.578451
       Atomic Center   21 is at   6.192175 -0.363772 -0.573124
       Atomic Center   22 is at   5.089718  1.576880 -1.685631
       Atomic Center   23 is at   2.623574  1.814115 -1.614179
       Atomic Center   24 is at  -2.030783  2.182264  0.572842
       Atomic Center   25 is at  -4.374689  1.934136 -0.254649
       Atomic Center   26 is at  -6.234543 -0.909264 -0.297381
       Atomic Center   27 is at  -6.121527  0.603378 -1.224421
       Atomic Center   28 is at  -5.672132 -0.946722 -1.978075
       Atomic Center   29 is at  -3.740643 -2.295974 -0.754774
       Atomic Center   30 is at  -1.405574 -2.044432  0.070328
   19062 points will be used for fitting atomic charges
 Fitting point charges to electrostatic potential
 Charges from ESP fit, RMS=   0.00374 RRMS=   0.22270:
 ESP charges:
               1
     1  O   -0.498820
     2  S    1.000108
     3  N   -0.781138
     4  C    0.549251
     5  C   -0.297519
     6  C   -0.033889
     7  C   -0.152701
     8  C   -0.043841
     9  C   -0.310262
    10  C   -0.034760
    11  C   -0.057141
    12  C   -0.227800
    13  C    0.259005
    14  C   -0.314267
    15  C   -0.217913
    16  C   -0.057316
    17  O   -0.512077
    18  H    0.336186
    19  H    0.189986
    20  H    0.088590
    21  H    0.103818
    22  H    0.094609
    23  H    0.146130
    24  H    0.120106
    25  H    0.125601
    26  H    0.097072
    27  H    0.094704
    28  H    0.087056
    29  H    0.129121
    30  H    0.118102
 Sum of ESP charges =   0.00000
 ESP charges with hydrogens summed into heavy atoms:
               1
     1  O   -0.498820
     2  S    1.000108
     3  N   -0.444953
     4  C    0.549251
     5  C   -0.107533
     6  C    0.054702
     7  C   -0.048883
     8  C    0.050768
     9  C   -0.164132
    10  C   -0.034760
    11  C    0.062965
    12  C   -0.102199
    13  C    0.259005
    14  C   -0.035435
    15  C   -0.088792
    16  C    0.060786
    17  O   -0.512077
 Charge=   0.00000 Dipole=    -2.9951    -0.2319    -4.0194 Tot=     5.0180
 -----------------------------------------------------------------

              Electrostatic Properties (Atomic Units)

 -----------------------------------------------------------------
    Center     Electric         -------- Electric Field --------
               Potential          X             Y             Z
 -----------------------------------------------------------------
    1 Atom    -22.374570
    2 Atom    -59.026932
    3 Atom    -18.348212
    4 Atom    -14.717767
    5 Atom    -14.770058
    6 Atom    -14.766657
    7 Atom    -14.769313
    8 Atom    -14.764196
    9 Atom    -14.762859
   10 Atom    -14.728571
   11 Atom    -14.741277
   12 Atom    -14.749273
   13 Atom    -14.732811
   14 Atom    -14.752670
   15 Atom    -14.749119
   16 Atom    -14.741047
   17 Atom    -22.374980
   18 Atom     -1.004604
   19 Atom     -1.108737
   20 Atom     -1.107200
   21 Atom     -1.106799
   22 Atom     -1.103247
   23 Atom     -1.094145
   24 Atom     -1.083642
   25 Atom     -1.087868
   26 Atom     -1.095401
   27 Atom     -1.098952
   28 Atom     -1.096440
   29 Atom     -1.087443
   30 Atom     -1.083553
 -----------------------------------------------------------------
 Unable to Open any file for archive entry.
 1\1\GINC-NOTCH072\SP\RwB97XD\def2TZVP\C13H13N1O2S1\U1366379\17-Feb-202
 6\0\\#N Guess=Read Geom=Check Integral(Ultrafine) Density Pop=(ChelpG,
 ReadRadii) NMR wB97XD def2TZVP\\prod_5l_3\\0,1\O,0,0.3831113113,0.5678
 898565,1.8292915316\S,0,0.0357319118,0.7812977598,0.4363320319\N,0,0.8
 918240357,-0.3721029416,-0.4685723\C,0,2.3107649426,-0.4085290537,-0.3
 660036401\C,0,2.9259696485,-0.7296662362,0.8492755731\C,0,4.3144221666
 ,-0.7959744151,0.9209701193\C,0,5.0991093697,-0.5719738498,-0.21024405
 89\C,0,4.4833655092,-0.2658063559,-1.4220245285\C,0,3.0958663898,-0.17
 14077901,-1.498701379\C,0,-1.6194482538,0.2086273015,0.1411685321\C,0,
 -2.4465660781,0.9259160142,-0.7160711343\C,0,-3.7462375312,0.472158621
 3,-0.9359103888\C,0,-4.2240153952,-0.6821697447,-0.3077884113\C,0,-5.6
 323884917,-1.1647844131,-0.5286957995\C,0,-3.3657017977,-1.380240217,0
 .5568662075\C,0,-2.06916282,-0.9424583272,0.7893949223\O,0,0.174737375
 8,2.0984470515,-0.1627482693\H,0,0.5759962446,-0.3077532809,-1.4346423
 586\H,0,2.3099840407,-0.9147913803,1.7282718338\H,0,4.7878175529,-1.03
 92121529,1.8746153523\H,0,6.1871180937,-0.6363681911,-0.1470884385\H,0
 ,5.0850891521,-0.0856182986,-2.3153652162\H,0,2.6162976005,0.091831047
 6,-2.4451028147\H,0,-2.0723447454,1.8331470023,-1.1936720708\H,0,-4.40
 18077801,1.0315881421,-1.6075679073\H,0,-6.2373942072,-1.0234362364,0.
 3807240149\H,0,-6.1233073042,-0.6211114168,-1.3471015665\H,0,-5.650230
 6754,-2.2381699841,-0.7691032419\H,0,-3.7257672495,-2.2817336956,1.059
 0476255\H,0,-1.4051330162,-1.4796248162,1.4687957799\\Version=ES64L-G1
 6RevC.01\State=1-A\HF=-1106.6230566\RMSD=1.954e-09\Dipole=-1.1732093,-
 1.1624985,-1.0463867\Quadrupole=13.0485393,-10.0991206,-2.9494187,0.77
 95933,0.4984294,-4.4736206\PG=C01 [X(C13H13N1O2S1)]\\@
 The archive entry for this job was punched.


 IF THE FACTS DO NOT CONFORM TO THE THEORY, THEY MUST BE DISPOSED OF.
 Job cpu time:       0 days  1 hours 32 minutes  1.6 seconds.
 Elapsed time:       0 days  0 hours 11 minutes 54.0 seconds.
 File lengths (MBytes):  RWF=    226 Int=      0 D2E=      0 Chk=     34 Scr=      2
 Normal termination of Gaussian 16 at Tue Feb 17 18:11:29 2026.
