 Entering Gaussian System, Link 0=g16
 Input=prod_5h_4.com
 Output=prod_5h_4.log
 Initial command:
 /uufs/chpc.utah.edu/sys/installdir/gaussian16/C01/AVX/g16/l1.exe "/scratch/general/vast/u1366379/GAUSSSCRDIR/11028674-notchpeak.peaks/Gau-80594.inp" -scrdir="/scratch/general/vast/u1366379/GAUSSSCRDIR/11028674-notchpeak.peaks/"
 Entering Link 1 = /uufs/chpc.utah.edu/sys/installdir/gaussian16/C01/AVX/g16/l1.exe PID=     80601.
  
 Copyright (c) 1988-2019, Gaussian, Inc.  All Rights Reserved.
  
 This is part of the Gaussian(R) 16 program.  It is based on
 the Gaussian(R) 09 system (copyright 2009, Gaussian, Inc.),
 the Gaussian(R) 03 system (copyright 2003, Gaussian, Inc.),
 the Gaussian(R) 98 system (copyright 1998, Gaussian, Inc.),
 the Gaussian(R) 94 system (copyright 1995, Gaussian, Inc.),
 the Gaussian 92(TM) system (copyright 1992, Gaussian, Inc.),
 the Gaussian 90(TM) system (copyright 1990, Gaussian, Inc.),
 the Gaussian 88(TM) system (copyright 1988, Gaussian, Inc.),
 the Gaussian 86(TM) system (copyright 1986, Carnegie Mellon
 University), and the Gaussian 82(TM) system (copyright 1983,
 Carnegie Mellon University). Gaussian is a federally registered
 trademark of Gaussian, Inc.
  
 This software contains proprietary and confidential information,
 including trade secrets, belonging to Gaussian, Inc.
  
 This software is provided under written license and may be
 used, copied, transmitted, or stored only in accord with that
 written license.
  
 The following legend is applicable only to US Government
 contracts under FAR:
  
                    RESTRICTED RIGHTS LEGEND
  
 Use, reproduction and disclosure by the US Government is
 subject to restrictions as set forth in subparagraphs (a)
 and (c) of the Commercial Computer Software - Restricted
 Rights clause in FAR 52.227-19.
  
 Gaussian, Inc.
 340 Quinnipiac St., Bldg. 40, Wallingford CT 06492
  
  
 ---------------------------------------------------------------
 Warning -- This program may not be used in any manner that
 competes with the business of Gaussian, Inc. or will provide
 assistance to any competitor of Gaussian, Inc.  The licensee
 of this program is prohibited from giving any competitor of
 Gaussian, Inc. access to this program.  By using this program,
 the user acknowledges that Gaussian, Inc. is engaged in the
 business of creating and licensing software in the field of
 computational chemistry and represents and warrants to the
 licensee that it is not a competitor of Gaussian, Inc. and that
 it will not use this program in any manner prohibited above.
 ---------------------------------------------------------------
  

 Cite this work as:
 Gaussian 16, Revision C.01,
 M. J. Frisch, G. W. Trucks, H. B. Schlegel, G. E. Scuseria, 
 M. A. Robb, J. R. Cheeseman, G. Scalmani, V. Barone, 
 G. A. Petersson, H. Nakatsuji, X. Li, M. Caricato, A. V. Marenich, 
 J. Bloino, B. G. Janesko, R. Gomperts, B. Mennucci, H. P. Hratchian, 
 J. V. Ortiz, A. F. Izmaylov, J. L. Sonnenberg, D. Williams-Young, 
 F. Ding, F. Lipparini, F. Egidi, J. Goings, B. Peng, A. Petrone, 
 T. Henderson, D. Ranasinghe, V. G. Zakrzewski, J. Gao, N. Rega, 
 G. Zheng, W. Liang, M. Hada, M. Ehara, K. Toyota, R. Fukuda, 
 J. Hasegawa, M. Ishida, T. Nakajima, Y. Honda, O. Kitao, H. Nakai, 
 T. Vreven, K. Throssell, J. A. Montgomery, Jr., J. E. Peralta, 
 F. Ogliaro, M. J. Bearpark, J. J. Heyd, E. N. Brothers, K. N. Kudin, 
 V. N. Staroverov, T. A. Keith, R. Kobayashi, J. Normand, 
 K. Raghavachari, A. P. Rendell, J. C. Burant, S. S. Iyengar, 
 J. Tomasi, M. Cossi, J. M. Millam, M. Klene, C. Adamo, R. Cammi, 
 J. W. Ochterski, R. L. Martin, K. Morokuma, O. Farkas, 
 J. B. Foresman, and D. J. Fox, Gaussian, Inc., Wallingford CT, 2019.
 
 ******************************************
 Gaussian 16:  ES64L-G16RevC.01  3-Jul-2019
                17-Feb-2026 
 ******************************************
 %NProcShared=8
 Will use up to    8 processors via shared memory.
 %Mem=8GB
 %chk=prod_5h_4.chk
 ------------------------------------------------------
 #N OPT FREQ=NORAMAN Integral(Ultrafine) wB97XD def2SVP
 ------------------------------------------------------
 1/18=20,19=15,26=4,38=1/1,3;
 2/9=110,12=2,17=6,18=5,40=1/2;
 3/5=43,7=101,11=2,25=1,30=1,71=1,74=-58,75=-5/1,2,3;
 4//1;
 5/5=2,38=5/2;
 6/7=2,8=2,9=2,10=2,28=1/1;
 7//1,2,3,16;
 1/18=20,19=15,26=4/3(2);
 2/9=110/2;
 99//99;
 2/9=110/2;
 3/5=43,7=101,11=2,25=1,30=1,71=1,74=-58,75=-5/1,2,3;
 4/5=5,16=3,69=1/1;
 5/5=2,38=5/2;
 7//1,2,3,16;
 1/18=20,19=15,26=4/3(-5);
 2/9=110/2;
 6/7=2,8=2,9=2,10=2,19=2,28=1/1;
 99/9=1/99;
 ---------
 prod_5h_4
 ---------
 Symbolic Z-matrix:
 Charge =  0 Multiplicity = 1
 Cl                    4.60541  -0.37323   0.64952 
 C                     2.95956  -0.0232    0.23066 
 C                     2.19243  -0.97321  -0.42053 
 C                     0.88518  -0.69663  -0.7527 
 C                     2.41036   1.20728   0.54548 
 C                     1.1035    1.4844    0.21294 
 C                     0.31475   0.53709  -0.4409 
 N                    -1.05385   0.84485  -0.77699 
 C                    -1.33223   2.1755   -1.31235 
 C                    -2.16718   0.0758   -0.28714 
 C                    -2.35611  -1.25812  -0.65224 
 C                    -3.42888  -1.97523  -0.17277 
 C                    -4.33852  -1.37912   0.67853 
 C                    -4.17397  -0.05759   1.0442 
 C                    -3.10367   0.66337   0.56568 
 H                     2.63545  -1.92403  -0.66351 
 H                     0.30462  -1.42904  -1.28093 
 H                     3.01887   1.93635   1.05285 
 H                     0.67287   2.43606   0.46927 
 H                    -2.26197   2.1616   -1.87797 
 H                    -0.52806   2.48612  -1.97674 
 H                    -1.4233    2.90027  -0.506 
 H                    -1.67741  -1.71434  -1.34871 
 H                    -3.56282  -3.00343  -0.46681 
 H                    -5.17705  -1.94286   1.05338 
 H                    -4.88409   0.40925   1.70697 
 H                    -2.96774   1.68928   0.85935 
 

 GradGradGradGradGradGradGradGradGradGradGradGradGradGradGradGradGradGrad
 Berny optimization.
 Initialization pass.
                           ----------------------------
                           !    Initial Parameters    !
                           ! (Angstroms and Degrees)  !
 --------------------------                            --------------------------
 ! Name  Definition              Value          Derivative Info.                !
 --------------------------------------------------------------------------------
 ! R1    R(1,2)                  1.734          estimate D2E/DX2                !
 ! R2    R(2,3)                  1.3839         estimate D2E/DX2                !
 ! R3    R(2,5)                  1.3838         estimate D2E/DX2                !
 ! R4    R(3,4)                  1.3769         estimate D2E/DX2                !
 ! R5    R(3,16)                 1.0767         estimate D2E/DX2                !
 ! R6    R(4,7)                  1.3945         estimate D2E/DX2                !
 ! R7    R(4,17)                 1.0735         estimate D2E/DX2                !
 ! R8    R(5,6)                  1.3767         estimate D2E/DX2                !
 ! R9    R(5,18)                 1.0767         estimate D2E/DX2                !
 ! R10   R(6,7)                  1.3954         estimate D2E/DX2                !
 ! R11   R(6,19)                 1.0755         estimate D2E/DX2                !
 ! R12   R(7,8)                  1.4425         estimate D2E/DX2                !
 ! R13   R(8,9)                  1.4611         estimate D2E/DX2                !
 ! R14   R(8,10)                 1.4391         estimate D2E/DX2                !
 ! R15   R(9,20)                 1.0884         estimate D2E/DX2                !
 ! R16   R(9,21)                 1.0884         estimate D2E/DX2                !
 ! R17   R(9,22)                 1.088          estimate D2E/DX2                !
 ! R18   R(10,11)                1.3958         estimate D2E/DX2                !
 ! R19   R(10,15)                1.3963         estimate D2E/DX2                !
 ! R20   R(11,12)                1.3766         estimate D2E/DX2                !
 ! R21   R(11,23)                1.0742         estimate D2E/DX2                !
 ! R22   R(12,13)                1.3811         estimate D2E/DX2                !
 ! R23   R(12,24)                1.0778         estimate D2E/DX2                !
 ! R24   R(13,14)                1.381          estimate D2E/DX2                !
 ! R25   R(13,25)                1.0777         estimate D2E/DX2                !
 ! R26   R(14,15)                1.3763         estimate D2E/DX2                !
 ! R27   R(14,26)                1.0777         estimate D2E/DX2                !
 ! R28   R(15,27)                1.0757         estimate D2E/DX2                !
 ! A1    A(1,2,3)              120.0827         estimate D2E/DX2                !
 ! A2    A(1,2,5)              120.083          estimate D2E/DX2                !
 ! A3    A(3,2,5)              119.8343         estimate D2E/DX2                !
 ! A4    A(2,3,4)              120.1285         estimate D2E/DX2                !
 ! A5    A(2,3,16)             118.9679         estimate D2E/DX2                !
 ! A6    A(4,3,16)             120.9033         estimate D2E/DX2                !
 ! A7    A(3,4,7)              120.8069         estimate D2E/DX2                !
 ! A8    A(3,4,17)             119.6769         estimate D2E/DX2                !
 ! A9    A(7,4,17)             119.4967         estimate D2E/DX2                !
 ! A10   A(2,5,6)              120.0529         estimate D2E/DX2                !
 ! A11   A(2,5,18)             119.0146         estimate D2E/DX2                !
 ! A12   A(6,5,18)             120.9324         estimate D2E/DX2                !
 ! A13   A(5,6,7)              120.8721         estimate D2E/DX2                !
 ! A14   A(5,6,19)             120.0407         estimate D2E/DX2                !
 ! A15   A(7,6,19)             119.0815         estimate D2E/DX2                !
 ! A16   A(4,7,6)              118.305          estimate D2E/DX2                !
 ! A17   A(4,7,8)              121.6522         estimate D2E/DX2                !
 ! A18   A(6,7,8)              120.0428         estimate D2E/DX2                !
 ! A19   A(7,8,9)              117.4165         estimate D2E/DX2                !
 ! A20   A(7,8,10)             122.7312         estimate D2E/DX2                !
 ! A21   A(9,8,10)             117.6474         estimate D2E/DX2                !
 ! A22   A(8,9,20)             109.9717         estimate D2E/DX2                !
 ! A23   A(8,9,21)             110.0485         estimate D2E/DX2                !
 ! A24   A(8,9,22)             110.5525         estimate D2E/DX2                !
 ! A25   A(20,9,21)            108.5167         estimate D2E/DX2                !
 ! A26   A(20,9,22)            108.7937         estimate D2E/DX2                !
 ! A27   A(21,9,22)            108.9133         estimate D2E/DX2                !
 ! A28   A(8,10,11)            121.7618         estimate D2E/DX2                !
 ! A29   A(8,10,15)            120.1269         estimate D2E/DX2                !
 ! A30   A(11,10,15)           118.1076         estimate D2E/DX2                !
 ! A31   A(10,11,12)           120.811          estimate D2E/DX2                !
 ! A32   A(10,11,23)           119.3376         estimate D2E/DX2                !
 ! A33   A(12,11,23)           119.8            estimate D2E/DX2                !
 ! A34   A(11,12,13)           120.2061         estimate D2E/DX2                !
 ! A35   A(11,12,24)           119.9204         estimate D2E/DX2                !
 ! A36   A(13,12,24)           119.8725         estimate D2E/DX2                !
 ! A37   A(12,13,14)           119.8512         estimate D2E/DX2                !
 ! A38   A(12,13,25)           120.071          estimate D2E/DX2                !
 ! A39   A(14,13,25)           120.0773         estimate D2E/DX2                !
 ! A40   A(13,14,15)           120.1229         estimate D2E/DX2                !
 ! A41   A(13,14,26)           119.9231         estimate D2E/DX2                !
 ! A42   A(15,14,26)           119.9539         estimate D2E/DX2                !
 ! A43   A(10,15,14)           120.897          estimate D2E/DX2                !
 ! A44   A(10,15,27)           118.9021         estimate D2E/DX2                !
 ! A45   A(14,15,27)           120.1928         estimate D2E/DX2                !
 ! D1    D(1,2,3,4)            179.953          estimate D2E/DX2                !
 ! D2    D(1,2,3,16)            -0.2605         estimate D2E/DX2                !
 ! D3    D(5,2,3,4)             -0.1137         estimate D2E/DX2                !
 ! D4    D(5,2,3,16)           179.6727         estimate D2E/DX2                !
 ! D5    D(1,2,5,6)           -179.9838         estimate D2E/DX2                !
 ! D6    D(1,2,5,18)            -0.1121         estimate D2E/DX2                !
 ! D7    D(3,2,5,6)              0.0829         estimate D2E/DX2                !
 ! D8    D(3,2,5,18)           179.9547         estimate D2E/DX2                !
 ! D9    D(2,3,4,7)             -0.0079         estimate D2E/DX2                !
 ! D10   D(2,3,4,17)           178.3794         estimate D2E/DX2                !
 ! D11   D(16,3,4,7)          -179.7902         estimate D2E/DX2                !
 ! D12   D(16,3,4,17)           -1.4029         estimate D2E/DX2                !
 ! D13   D(3,4,7,6)              0.1564         estimate D2E/DX2                !
 ! D14   D(3,4,7,8)           -179.8271         estimate D2E/DX2                !
 ! D15   D(17,4,7,6)          -178.2338         estimate D2E/DX2                !
 ! D16   D(17,4,7,8)             1.7828         estimate D2E/DX2                !
 ! D17   D(2,5,6,7)              0.0698         estimate D2E/DX2                !
 ! D18   D(2,5,6,19)           179.1931         estimate D2E/DX2                !
 ! D19   D(18,5,6,7)          -179.7994         estimate D2E/DX2                !
 ! D20   D(18,5,6,19)           -0.6761         estimate D2E/DX2                !
 ! D21   D(5,6,7,4)             -0.1874         estimate D2E/DX2                !
 ! D22   D(5,6,7,8)            179.7963         estimate D2E/DX2                !
 ! D23   D(19,6,7,4)          -179.3191         estimate D2E/DX2                !
 ! D24   D(19,6,7,8)             0.6647         estimate D2E/DX2                !
 ! D25   D(4,7,8,9)           -137.8363         estimate D2E/DX2                !
 ! D26   D(4,7,8,10)            59.4522         estimate D2E/DX2                !
 ! D27   D(6,7,8,9)             42.1806         estimate D2E/DX2                !
 ! D28   D(6,7,8,10)          -120.531          estimate D2E/DX2                !
 ! D29   D(7,8,9,20)           157.6446         estimate D2E/DX2                !
 ! D30   D(7,8,9,21)            38.1516         estimate D2E/DX2                !
 ! D31   D(7,8,9,22)           -82.2012         estimate D2E/DX2                !
 ! D32   D(10,8,9,20)          -38.7481         estimate D2E/DX2                !
 ! D33   D(10,8,9,21)         -158.2411         estimate D2E/DX2                !
 ! D34   D(10,8,9,22)           81.4061         estimate D2E/DX2                !
 ! D35   D(7,8,10,11)          -65.2761         estimate D2E/DX2                !
 ! D36   D(7,8,10,15)          115.4316         estimate D2E/DX2                !
 ! D37   D(9,8,10,11)          132.0499         estimate D2E/DX2                !
 ! D38   D(9,8,10,15)          -47.2424         estimate D2E/DX2                !
 ! D39   D(8,10,11,12)        -179.9451         estimate D2E/DX2                !
 ! D40   D(8,10,11,23)          -2.5596         estimate D2E/DX2                !
 ! D41   D(15,10,11,12)         -0.6391         estimate D2E/DX2                !
 ! D42   D(15,10,11,23)        176.7464         estimate D2E/DX2                !
 ! D43   D(8,10,15,14)        -179.9599         estimate D2E/DX2                !
 ! D44   D(8,10,15,27)          -0.9957         estimate D2E/DX2                !
 ! D45   D(11,10,15,14)          0.7223         estimate D2E/DX2                !
 ! D46   D(11,10,15,27)        179.6865         estimate D2E/DX2                !
 ! D47   D(10,11,12,13)          0.1325         estimate D2E/DX2                !
 ! D48   D(10,11,12,24)        179.7841         estimate D2E/DX2                !
 ! D49   D(23,11,12,13)       -177.241          estimate D2E/DX2                !
 ! D50   D(23,11,12,24)          2.4106         estimate D2E/DX2                !
 ! D51   D(11,12,13,14)          0.31           estimate D2E/DX2                !
 ! D52   D(11,12,13,25)       -179.9392         estimate D2E/DX2                !
 ! D53   D(24,12,13,14)       -179.3418         estimate D2E/DX2                !
 ! D54   D(24,12,13,25)          0.409          estimate D2E/DX2                !
 ! D55   D(12,13,14,15)         -0.2276         estimate D2E/DX2                !
 ! D56   D(12,13,14,26)        179.887          estimate D2E/DX2                !
 ! D57   D(25,13,14,15)       -179.9784         estimate D2E/DX2                !
 ! D58   D(25,13,14,26)          0.1362         estimate D2E/DX2                !
 ! D59   D(13,14,15,10)         -0.2981         estimate D2E/DX2                !
 ! D60   D(13,14,15,27)       -179.2491         estimate D2E/DX2                !
 ! D61   D(26,14,15,10)        179.5872         estimate D2E/DX2                !
 ! D62   D(26,14,15,27)          0.6363         estimate D2E/DX2                !
 --------------------------------------------------------------------------------
 Trust Radius=3.00D-01 FncErr=1.00D-07 GrdErr=1.00D-06 EigMax=2.50D+02 EigMin=1.00D-04
 Number of steps in this run=    145 maximum allowed number of steps=    162.
 GradGradGradGradGradGradGradGradGradGradGradGradGradGradGradGradGradGrad

                          Input orientation:                          
 ---------------------------------------------------------------------
 Center     Atomic      Atomic             Coordinates (Angstroms)
 Number     Number       Type             X           Y           Z
 ---------------------------------------------------------------------
      1         17           0        4.605410   -0.373230    0.649520
      2          6           0        2.959560   -0.023200    0.230660
      3          6           0        2.192430   -0.973210   -0.420530
      4          6           0        0.885180   -0.696630   -0.752700
      5          6           0        2.410360    1.207280    0.545480
      6          6           0        1.103500    1.484400    0.212940
      7          6           0        0.314750    0.537090   -0.440900
      8          7           0       -1.053850    0.844850   -0.776990
      9          6           0       -1.332230    2.175500   -1.312350
     10          6           0       -2.167180    0.075800   -0.287140
     11          6           0       -2.356110   -1.258120   -0.652240
     12          6           0       -3.428880   -1.975230   -0.172770
     13          6           0       -4.338520   -1.379120    0.678530
     14          6           0       -4.173970   -0.057590    1.044200
     15          6           0       -3.103670    0.663370    0.565680
     16          1           0        2.635450   -1.924030   -0.663510
     17          1           0        0.304620   -1.429040   -1.280930
     18          1           0        3.018870    1.936350    1.052850
     19          1           0        0.672870    2.436060    0.469270
     20          1           0       -2.261970    2.161600   -1.877970
     21          1           0       -0.528060    2.486120   -1.976740
     22          1           0       -1.423300    2.900270   -0.506000
     23          1           0       -1.677410   -1.714340   -1.348710
     24          1           0       -3.562820   -3.003430   -0.466810
     25          1           0       -5.177050   -1.942860    1.053380
     26          1           0       -4.884090    0.409250    1.706970
     27          1           0       -2.967740    1.689280    0.859350
 ---------------------------------------------------------------------
                    Distance matrix (angstroms):
                    1          2          3          4          5
     1  Cl   0.000000
     2  C    1.734009   0.000000
     3  C    2.706927   1.383855   0.000000
     4  C    3.988849   2.392396   1.376857   0.000000
     5  C    2.706858   1.383768   2.394829   2.763389   0.000000
     6  C    3.988078   2.391261   2.761684   2.395207   1.376685
     7  C    4.519675   2.785666   2.409793   1.394516   2.411158
     8  N    5.962036   4.228041   3.737745   2.477214   3.725726
     9  C    6.752816   5.063065   4.809672   3.671409   4.289051
    10  C    6.851783   5.153773   4.486024   3.182813   4.788254
    11  C    7.137252   5.528190   4.563341   3.291098   5.498360
    12  C    8.233613   6.692185   5.715291   4.536767   6.688870
    13  C    9.000363   7.436469   6.635209   5.459052   7.228731
    14  C    8.793913   7.179852   6.596578   5.406683   6.723245
    15  C    7.778913   6.111168   5.630247   4.415728   5.540828
    16  H    2.830154   2.125498   1.076738   2.139605   3.364138
    17  H    4.830959   3.363034   2.124122   1.073546   3.836678
    18  H    2.830891   2.125876   3.364430   3.839951   1.076686
    19  H    4.836266   3.366578   3.837177   3.369278   2.129455
    20  H    7.744319   6.040203   5.638514   4.397757   5.349253
    21  H    6.436275   4.830403   4.667957   3.691262   4.078154
    22  H    6.956750   5.319662   5.299496   4.281078   4.320738
    23  H    6.727951   5.182263   4.048018   2.820962   5.369700
    24  H    8.653561   7.204837   6.103019   5.018741   7.377919
    25  H    9.915814   8.400380   7.577722   6.447143   8.231047
    26  H    9.580245   7.993081   7.517618   6.368471   7.429328
    27  H    7.851788   6.201671   5.945948   4.810017   5.408770
                    6          7          8          9         10
     6  C    0.000000
     7  C    1.395360   0.000000
     8  N    2.458281   1.442477   0.000000
     9  C    2.955826   2.481200   1.461073   0.000000
    10  C    3.596051   2.529112   1.439060   2.481318   0.000000
    11  C    4.498761   3.225048   2.476677   3.643326   1.395828
    12  C    5.714917   4.516460   3.736134   4.787812   2.410745
    13  C    6.167017   5.155376   4.225357   5.063270   2.786401
    14  C    5.560613   4.765267   3.723745   4.314569   2.411942
    15  C    4.301023   3.565774   2.457124   2.991911   1.396264
    16  H    3.838285   3.390032   4.614164   5.741918   5.215959
    17  H    3.370162   2.138088   2.696289   3.958911   3.059732
    18  H    2.139708   3.391384   4.596383   4.958169   5.670303
    19  H    1.075548   2.136059   2.658322   2.694900   3.769465
    20  H    4.019564   3.368039   2.098938   1.088364   2.624936
    21  H    2.908630   2.620659   2.099910   1.088388   3.369140
    22  H    2.984339   2.934225   2.105868   1.088019   2.928974
    23  H    4.517095   3.140344   2.695393   3.905295   2.138085
    24  H    6.509779   5.250857   4.604389   5.701911   3.385521
    25  H    7.204010   6.208292   5.303052   6.110663   3.864104
    26  H    6.264129   5.626511   4.585907   4.985142   3.386630
    27  H    4.127326   3.713884   2.655870   2.761808   2.135100
                   11         12         13         14         15
    11  C    0.000000
    12  C    1.376580   0.000000
    13  C    2.390719   1.381124   0.000000
    14  C    2.761122   2.390297   1.381026   0.000000
    15  C    2.394640   2.759217   2.389426   1.376338   0.000000
    16  H    5.035795   6.084369   7.122798   7.264164   6.414284
    17  H    2.739334   3.932603   5.039913   5.229233   4.405064
    18  H    6.480924   7.640424   8.078592   7.464102   6.272424
    19  H    4.907084   6.057726   6.301858   5.480939   4.173006
    20  H    3.633973   4.624148   4.835747   4.137587   2.987403
    21  H    4.372116   5.618960   6.042362   5.374867   4.052170
    22  H    4.264238   5.282414   5.311760   4.326458   2.995974
    23  H    1.074170   2.125687   3.362080   3.834534   3.369364
    24  H    2.129939   1.077773   2.133518   3.366694   3.836962
    25  H    3.366855   2.135554   1.077705   2.135532   3.365886
    26  H    3.838838   3.367017   2.133917   1.077717   2.130027
    27  H    3.368406   3.834913   3.365533   2.130895   1.075737
                   16         17         18         19         20
    16  H    0.000000
    17  H    2.461502   0.000000
    18  H    4.242103   4.913200   0.000000
    19  H    4.913786   4.258850   2.468601   0.000000
    20  H    6.492458   4.453823   6.043816   3.768043   0.000000
    21  H    5.584066   4.062756   4.696954   2.725381   1.766780
    22  H    6.306515   4.725373   4.805417   2.358086   1.769549
    23  H    4.371982   2.003605   6.414832   5.104379   3.955343
    24  H    6.294628   4.254243   8.368359   6.957397   5.510092
    25  H    7.998951   5.980110   9.067600   7.330599   5.825555
    26  H    8.222339   6.263351   8.075685   6.043150   4.774729
    27  H    6.838922   5.001306   5.994830   3.736828   2.866028
                   21         22         23         24         25
    21  H    0.000000
    22  H    1.770890   0.000000
    23  H    4.399919   4.697803   0.000000
    24  H    6.451730   6.279551   2.448320   0.000000
    25  H    7.100042   6.322833   4.250851   2.457951   0.000000
    26  H    6.071088   4.804111   4.912190   4.256461   2.458745
    27  H    3.824970   2.390810   4.257359   4.912672   4.255718
                   26         27
    26  H    0.000000
    27  H    2.455470   0.000000
 Stoichiometry    C13H12ClN
 Framework group  C1[X(C13H12ClN)]
 Deg. of freedom    75
 Full point group                 C1      NOp   1
 Largest Abelian subgroup         C1      NOp   1
 Largest concise Abelian subgroup C1      NOp   1
                         Standard orientation:                         
 ---------------------------------------------------------------------
 Center     Atomic      Atomic             Coordinates (Angstroms)
 Number     Number       Type             X           Y           Z
 ---------------------------------------------------------------------
      1         17           0       -4.689136   -0.731140   -0.442708
      2          6           0       -3.055375   -0.239851   -0.132471
      3          6           0       -2.217042   -1.050149    0.612963
      4          6           0       -0.919325   -0.661426    0.859055
      5          6           0       -2.587038    0.964074   -0.628494
      6          6           0       -1.289731    1.353360   -0.382095
      7          6           0       -0.429906    0.547251    0.364845
      8          7           0        0.927342    0.970636    0.608489
      9          6           0        1.142979    2.374655    0.950493
     10          6           0        2.069368    0.202884    0.187504
     11          6           0        2.345006   -1.057027    0.721342
     12          6           0        3.443840   -1.774157    0.305092
     13          6           0        4.293792   -1.251387   -0.649788
     14          6           0        4.043184   -0.002506   -1.183382
     15          6           0        2.946567    0.718436   -0.768676
     16          1           0       -2.597547   -1.981486    0.996619
     17          1           0       -0.283130   -1.283148    1.460070
     18          1           0       -3.250360    1.583829   -1.207424
     19          1           0       -0.922006    2.283052   -0.778650
     20          1           0        2.087154    2.487515    1.479956
     21          1           0        0.340760    2.729152    1.594981
     22          1           0        1.169840    2.986991    0.051544
     23          1           0        1.713185   -1.450076    1.496039
     24          1           0        3.644986   -2.744222    0.729485
     25          1           0        5.152878   -1.815118   -0.974790
     26          1           0        4.706672    0.407310   -1.927229
     27          1           0        2.743577    1.686179   -1.192326
 ---------------------------------------------------------------------
 Rotational constants (GHZ):           1.3152041           0.2456487           0.2254635
 Standard basis: def2SVP (5D, 7F)
 There are   289 symmetry adapted cartesian basis functions of A   symmetry.
 There are   274 symmetry adapted basis functions of A   symmetry.
   274 basis functions,   471 primitive gaussians,   289 cartesian basis functions
    57 alpha electrons       57 beta electrons
       nuclear repulsion energy       987.2722682483 Hartrees.
 NAtoms=   27 NActive=   27 NUniq=   27 SFac= 1.00D+00 NAtFMM=   60 NAOKFM=F Big=F
 Integral buffers will be    131072 words long.
 Raffenetti 2 integral format.
 Two-electron integral symmetry is turned on.
 Nuclear repulsion after empirical dispersion term =      987.2544397111 Hartrees.
 One-electron integrals computed using PRISM.
   1 Symmetry operations used in ECPInt.
 ECPInt:  NShTT=    8256 NPrTT=   30622 LenC2=    7732 LenP2D=   20793.
 LDataN:  DoStor=T MaxTD1= 4 Len=   56
 NBasis=   274 RedAO= T EigKep=  2.25D-04  NBF=   274
 NBsUse=   274 1.00D-06 EigRej= -1.00D+00 NBFU=   274
 ExpMin= 1.22D-01 ExpMax= 1.04D+04 ExpMxC= 1.57D+03 IAcc=3 IRadAn=         5 AccDes= 0.00D+00
 Harris functional with IExCor= 4639 and IRadAn=       5 diagonalized for initial guess.
 HarFok:  IExCor= 4639 AccDes= 0.00D+00 IRadAn=         5 IDoV= 1 UseB2=F ITyADJ=14
 ICtDFT=  3500011 ScaDFX=  1.000000  1.000000  1.000000  1.000000
 FoFCou: FMM=F IPFlag=           0 FMFlag=      100000 FMFlg1=           0
         NFxFlg=           0 DoJE=T BraDBF=F KetDBF=T FulRan=T
         wScrn=  0.000000 ICntrl=       500 IOpCl=  0 I1Cent=   200000004 NGrid=           0
         NMat0=    1 NMatS0=      1 NMatT0=    0 NMatD0=    1 NMtDS0=    0 NMtDT0=    0
 Petite list used in FoFCou.
 Requested convergence on RMS density matrix=1.00D-08 within 128 cycles.
 Requested convergence on MAX density matrix=1.00D-06.
 Requested convergence on             energy=1.00D-06.
 No special actions if energy rises.
 Integral accuracy reduced to 1.0D-05 until final iterations.
 Initial convergence to 1.0D-05 achieved.  Increase integral accuracy.
 SCF Done:  E(RwB97XD) =  -1016.81380165     A.U. after   15 cycles
            NFock= 15  Conv=0.74D-08     -V/T= 2.0067

 **********************************************************************

            Population analysis using the SCF Density.

 **********************************************************************

 Orbital symmetries:
       Occupied  (A) (A) (A) (A) (A) (A) (A) (A) (A) (A) (A) (A)
                 (A) (A) (A) (A) (A) (A) (A) (A) (A) (A) (A) (A)
                 (A) (A) (A) (A) (A) (A) (A) (A) (A) (A) (A) (A)
                 (A) (A) (A) (A) (A) (A) (A) (A) (A) (A) (A) (A)
                 (A) (A) (A) (A) (A) (A) (A) (A) (A)
       Virtual   (A) (A) (A) (A) (A) (A) (A) (A) (A) (A) (A) (A)
                 (A) (A) (A) (A) (A) (A) (A) (A) (A) (A) (A) (A)
                 (A) (A) (A) (A) (A) (A) (A) (A) (A) (A) (A) (A)
                 (A) (A) (A) (A) (A) (A) (A) (A) (A) (A) (A) (A)
                 (A) (A) (A) (A) (A) (A) (A) (A) (A) (A) (A) (A)
                 (A) (A) (A) (A) (A) (A) (A) (A) (A) (A) (A) (A)
                 (A) (A) (A) (A) (A) (A) (A) (A) (A) (A) (A) (A)
                 (A) (A) (A) (A) (A) (A) (A) (A) (A) (A) (A) (A)
                 (A) (A) (A) (A) (A) (A) (A) (A) (A) (A) (A) (A)
                 (A) (A) (A) (A) (A) (A) (A) (A) (A) (A) (A) (A)
                 (A) (A) (A) (A) (A) (A) (A) (A) (A) (A) (A) (A)
                 (A) (A) (A) (A) (A) (A) (A) (A) (A) (A) (A) (A)
                 (A) (A) (A) (A) (A) (A) (A) (A) (A) (A) (A) (A)
                 (A) (A) (A) (A) (A) (A) (A) (A) (A) (A) (A) (A)
                 (A) (A) (A) (A) (A) (A) (A) (A) (A) (A) (A) (A)
                 (A) (A) (A) (A) (A) (A) (A) (A) (A) (A) (A) (A)
                 (A) (A) (A) (A) (A) (A) (A) (A) (A) (A) (A) (A)
                 (A) (A) (A) (A) (A) (A) (A) (A) (A) (A) (A) (A)
                 (A)
 The electronic state is 1-A.
 Alpha  occ. eigenvalues -- -101.67268 -14.45717 -10.35245 -10.34625 -10.34176
 Alpha  occ. eigenvalues --  -10.32908 -10.31079 -10.31024 -10.30694 -10.30579
 Alpha  occ. eigenvalues --  -10.30187 -10.30152 -10.29963 -10.29925 -10.29769
 Alpha  occ. eigenvalues --   -9.58078  -7.33460  -7.32485  -7.32466  -1.03763
 Alpha  occ. eigenvalues --   -0.98917  -0.95477  -0.92761  -0.85814  -0.84787
 Alpha  occ. eigenvalues --   -0.84457  -0.82522  -0.76751  -0.71778  -0.70766
 Alpha  occ. eigenvalues --   -0.69878  -0.67137  -0.63373  -0.60476  -0.58002
 Alpha  occ. eigenvalues --   -0.56451  -0.55419  -0.55041  -0.54041  -0.53113
 Alpha  occ. eigenvalues --   -0.52335  -0.51202  -0.50492  -0.49037  -0.48500
 Alpha  occ. eigenvalues --   -0.46910  -0.46244  -0.44928  -0.44189  -0.42937
 Alpha  occ. eigenvalues --   -0.41870  -0.38912  -0.36113  -0.34701  -0.33812
 Alpha  occ. eigenvalues --   -0.32276  -0.27802
 Alpha virt. eigenvalues --    0.04887   0.05659   0.06160   0.06507   0.11699
 Alpha virt. eigenvalues --    0.13962   0.14911   0.17232   0.18785   0.19140
 Alpha virt. eigenvalues --    0.19787   0.20670   0.21110   0.22122   0.22569
 Alpha virt. eigenvalues --    0.23427   0.23956   0.24188   0.27866   0.30249
 Alpha virt. eigenvalues --    0.31206   0.33780   0.34560   0.35925   0.36774
 Alpha virt. eigenvalues --    0.37484   0.39176   0.39951   0.40868   0.42239
 Alpha virt. eigenvalues --    0.42469   0.43835   0.45690   0.47757   0.48664
 Alpha virt. eigenvalues --    0.49013   0.49729   0.52176   0.53188   0.53988
 Alpha virt. eigenvalues --    0.54760   0.55342   0.55789   0.56085   0.56248
 Alpha virt. eigenvalues --    0.57084   0.57828   0.59273   0.60135   0.61936
 Alpha virt. eigenvalues --    0.62147   0.63188   0.63805   0.65863   0.66387
 Alpha virt. eigenvalues --    0.66943   0.68452   0.69574   0.71564   0.72230
 Alpha virt. eigenvalues --    0.72676   0.73444   0.73924   0.74273   0.75012
 Alpha virt. eigenvalues --    0.75435   0.75943   0.76798   0.77235   0.78238
 Alpha virt. eigenvalues --    0.79366   0.79965   0.80535   0.81435   0.82199
 Alpha virt. eigenvalues --    0.83096   0.83859   0.84514   0.85457   0.86249
 Alpha virt. eigenvalues --    0.87588   0.88058   0.88932   0.90202   0.91700
 Alpha virt. eigenvalues --    0.92550   0.93521   0.95572   0.96124   0.96970
 Alpha virt. eigenvalues --    0.97552   1.00479   1.02624   1.03651   1.07624
 Alpha virt. eigenvalues --    1.09005   1.10397   1.14155   1.17196   1.18101
 Alpha virt. eigenvalues --    1.20431   1.24162   1.27239   1.28010   1.29648
 Alpha virt. eigenvalues --    1.31898   1.32524   1.33077   1.33286   1.34917
 Alpha virt. eigenvalues --    1.35678   1.37703   1.38425   1.38946   1.39822
 Alpha virt. eigenvalues --    1.42321   1.44273   1.46577   1.50849   1.56669
 Alpha virt. eigenvalues --    1.58691   1.59049   1.60932   1.64265   1.67668
 Alpha virt. eigenvalues --    1.71203   1.76024   1.76750   1.77840   1.79164
 Alpha virt. eigenvalues --    1.79936   1.81617   1.82245   1.82674   1.83683
 Alpha virt. eigenvalues --    1.84825   1.85415   1.85681   1.86550   1.87680
 Alpha virt. eigenvalues --    1.88762   1.89071   1.90291   1.91131   1.91557
 Alpha virt. eigenvalues --    1.92444   1.93997   1.97091   1.97827   1.98511
 Alpha virt. eigenvalues --    2.00417   2.02560   2.02837   2.04067   2.06130
 Alpha virt. eigenvalues --    2.07314   2.08109   2.09647   2.11658   2.13533
 Alpha virt. eigenvalues --    2.16886   2.17594   2.20457   2.21817   2.23738
 Alpha virt. eigenvalues --    2.25090   2.25468   2.25969   2.27483   2.30589
 Alpha virt. eigenvalues --    2.32780   2.34470   2.36637   2.37439   2.38693
 Alpha virt. eigenvalues --    2.40280   2.40832   2.43400   2.43924   2.45055
 Alpha virt. eigenvalues --    2.46029   2.46970   2.48644   2.53161   2.58543
 Alpha virt. eigenvalues --    2.60942   2.65600   2.66927   2.69667   2.72490
 Alpha virt. eigenvalues --    2.72806   2.74070   2.74535   2.75386   2.79372
 Alpha virt. eigenvalues --    2.83520   2.84496   2.85161   2.88406   2.90300
 Alpha virt. eigenvalues --    2.95019   2.96619   2.97896   2.99841   3.00948
 Alpha virt. eigenvalues --    3.03588   3.04800   3.08637   3.11859   3.19681
 Alpha virt. eigenvalues --    3.22953   3.26954   3.28482   3.37809   3.40040
 Alpha virt. eigenvalues --    3.71326   3.78804
          Condensed to atoms (all electrons):
               1          2          3          4          5          6
     1  Cl  16.977901   0.224173  -0.052685   0.003103  -0.052993   0.003222
     2  C    0.224173   5.267922   0.278292   0.105228   0.283606   0.101100
     3  C   -0.052685   0.278292   5.031050   0.272977   0.090521  -0.136565
     4  C    0.003103   0.105228   0.272977   5.107514  -0.139906   0.063125
     5  C   -0.052993   0.283606   0.090521  -0.139906   5.036738   0.266127
     6  C    0.003222   0.101100  -0.136565   0.063125   0.266127   5.121191
     7  C    0.000927  -0.183945   0.115251   0.275436   0.112929   0.280093
     8  N    0.000001  -0.000063   0.007271  -0.072035   0.008534  -0.080060
     9  C   -0.000000   0.000095  -0.000229   0.004481  -0.000141   0.002652
    10  C    0.000000   0.000008   0.000198  -0.009773  -0.000079   0.000439
    11  C    0.000000  -0.000013   0.000277   0.004554  -0.000006  -0.000134
    12  C   -0.000000   0.000003  -0.000053   0.000176  -0.000002   0.000062
    13  C    0.000000  -0.000000   0.000003  -0.000019   0.000000  -0.000008
    14  C   -0.000000   0.000000  -0.000003  -0.000020   0.000001  -0.000028
    15  C    0.000000  -0.000013   0.000067  -0.000085  -0.000013   0.001104
    16  H    0.001497  -0.075786   0.444948  -0.054005   0.014990  -0.002402
    17  H   -0.000141   0.017275  -0.071225   0.461056  -0.003069   0.016746
    18  H    0.001339  -0.074125   0.014960  -0.002378   0.444521  -0.055407
    19  H   -0.000129   0.016552  -0.002861   0.016656  -0.071462   0.459768
    20  H   -0.000000   0.000002  -0.000008   0.000116   0.000006   0.000353
    21  H    0.000000  -0.000056  -0.000171   0.000948   0.000375   0.001188
    22  H    0.000000  -0.000032   0.000089  -0.001019   0.000087   0.002813
    23  H    0.000000  -0.000072   0.001467  -0.003145   0.000030  -0.000191
    24  H   -0.000000   0.000000  -0.000003   0.000012  -0.000000   0.000000
    25  H   -0.000000  -0.000000   0.000000   0.000000   0.000000   0.000000
    26  H    0.000000  -0.000000   0.000000   0.000001  -0.000000   0.000001
    27  H    0.000000   0.000000  -0.000001  -0.000044   0.000016   0.000159
               7          8          9         10         11         12
     1  Cl   0.000927   0.000001  -0.000000   0.000000   0.000000  -0.000000
     2  C   -0.183945  -0.000063   0.000095   0.000008  -0.000013   0.000003
     3  C    0.115251   0.007271  -0.000229   0.000198   0.000277  -0.000053
     4  C    0.275436  -0.072035   0.004481  -0.009773   0.004554   0.000176
     5  C    0.112929   0.008534  -0.000141  -0.000079  -0.000006  -0.000002
     6  C    0.280093  -0.080060   0.002652   0.000439  -0.000134   0.000062
     7  C    5.114068   0.327512  -0.053904  -0.042237  -0.012051   0.000243
     8  N    0.327512   6.812236   0.341887   0.315301  -0.071489   0.008233
     9  C   -0.053904   0.341887   4.436732  -0.051587   0.003342  -0.000216
    10  C   -0.042237   0.315301  -0.051587   5.083658   0.301992   0.106146
    11  C   -0.012051  -0.071489   0.003342   0.301992   5.122121   0.267932
    12  C    0.000243   0.008233  -0.000216   0.106146   0.267932   5.062122
    13  C   -0.000002  -0.000400   0.000087  -0.160904   0.087580   0.285808
    14  C    0.000016   0.009122  -0.000090   0.107636  -0.147770   0.093488
    15  C    0.000571  -0.078596   0.001464   0.304976   0.058494  -0.141626
    16  H    0.015424  -0.000121   0.000005  -0.000003   0.000004  -0.000003
    17  H   -0.074324  -0.009099   0.000046  -0.002727   0.000784   0.001343
    18  H    0.014708  -0.000142  -0.000012  -0.000002   0.000000   0.000000
    19  H   -0.074077  -0.013424   0.007316  -0.000739  -0.000050   0.000001
    20  H    0.005472  -0.025040   0.400878  -0.000871   0.000980  -0.000204
    21  H   -0.003078  -0.024208   0.401221   0.005652   0.000115  -0.000012
    22  H   -0.007084  -0.040492   0.403445  -0.006395  -0.000847   0.000094
    23  H   -0.002708  -0.006044  -0.000099  -0.070401   0.455500  -0.069808
    24  H   -0.000004  -0.000145   0.000005   0.015369  -0.063171   0.449376
    25  H    0.000000   0.000011  -0.000000  -0.001531   0.014176  -0.068497
    26  H   -0.000002  -0.000159  -0.000017   0.014996  -0.002245   0.014259
    27  H   -0.000736  -0.012243   0.005399  -0.071798   0.017054  -0.002721
              13         14         15         16         17         18
     1  Cl   0.000000  -0.000000   0.000000   0.001497  -0.000141   0.001339
     2  C   -0.000000   0.000000  -0.000013  -0.075786   0.017275  -0.074125
     3  C    0.000003  -0.000003   0.000067   0.444948  -0.071225   0.014960
     4  C   -0.000019  -0.000020  -0.000085  -0.054005   0.461056  -0.002378
     5  C    0.000000   0.000001  -0.000013   0.014990  -0.003069   0.444521
     6  C   -0.000008  -0.000028   0.001104  -0.002402   0.016746  -0.055407
     7  C   -0.000002   0.000016   0.000571   0.015424  -0.074324   0.014708
     8  N   -0.000400   0.009122  -0.078596  -0.000121  -0.009099  -0.000142
     9  C    0.000087  -0.000090   0.001464   0.000005   0.000046  -0.000012
    10  C   -0.160904   0.107636   0.304976  -0.000003  -0.002727  -0.000002
    11  C    0.087580  -0.147770   0.058494   0.000004   0.000784   0.000000
    12  C    0.285808   0.093488  -0.141626  -0.000003   0.001343   0.000000
    13  C    5.085824   0.285765   0.082863   0.000000  -0.000054  -0.000000
    14  C    0.285765   5.063089   0.271901   0.000000   0.000017  -0.000000
    15  C    0.082863   0.271901   5.111746   0.000001  -0.000028   0.000001
    16  H    0.000000   0.000000   0.000001   0.659998  -0.014704  -0.000304
    17  H   -0.000054   0.000017  -0.000028  -0.014704   0.689890   0.000031
    18  H   -0.000000  -0.000000   0.000001  -0.000304   0.000031   0.659100
    19  H   -0.000000   0.000013   0.000149   0.000026  -0.000192  -0.013252
    20  H   -0.000043   0.000240   0.000268  -0.000000  -0.000049  -0.000001
    21  H    0.000002   0.000013   0.000278   0.000001  -0.000043  -0.000011
    22  H   -0.000026  -0.000097   0.003128  -0.000001   0.000027   0.000040
    23  H    0.015336  -0.002628   0.015935   0.000055  -0.003230   0.000000
    24  H   -0.071523   0.014208  -0.002196  -0.000000   0.000039  -0.000000
    25  H    0.452296  -0.068882   0.014356  -0.000000   0.000000   0.000000
    26  H   -0.071407   0.450088  -0.064651  -0.000000   0.000000   0.000000
    27  H    0.015491  -0.071961   0.456341  -0.000000  -0.000017  -0.000001
              19         20         21         22         23         24
     1  Cl  -0.000129  -0.000000   0.000000   0.000000   0.000000  -0.000000
     2  C    0.016552   0.000002  -0.000056  -0.000032  -0.000072   0.000000
     3  C   -0.002861  -0.000008  -0.000171   0.000089   0.001467  -0.000003
     4  C    0.016656   0.000116   0.000948  -0.001019  -0.003145   0.000012
     5  C   -0.071462   0.000006   0.000375   0.000087   0.000030  -0.000000
     6  C    0.459768   0.000353   0.001188   0.002813  -0.000191   0.000000
     7  C   -0.074077   0.005472  -0.003078  -0.007084  -0.002708  -0.000004
     8  N   -0.013424  -0.025040  -0.024208  -0.040492  -0.006044  -0.000145
     9  C    0.007316   0.400878   0.401221   0.403445  -0.000099   0.000005
    10  C   -0.000739  -0.000871   0.005652  -0.006395  -0.070401   0.015369
    11  C   -0.000050   0.000980   0.000115  -0.000847   0.455500  -0.063171
    12  C    0.000001  -0.000204  -0.000012   0.000094  -0.069808   0.449376
    13  C   -0.000000  -0.000043   0.000002  -0.000026   0.015336  -0.071523
    14  C    0.000013   0.000240   0.000013  -0.000097  -0.002628   0.014208
    15  C    0.000149   0.000268   0.000278   0.003128   0.015935  -0.002196
    16  H    0.000026  -0.000000   0.000001  -0.000001   0.000055  -0.000000
    17  H   -0.000192  -0.000049  -0.000043   0.000027  -0.003230   0.000039
    18  H   -0.013252  -0.000001  -0.000011   0.000040   0.000000  -0.000000
    19  H    0.679705  -0.000026  -0.000701  -0.000762  -0.000008  -0.000000
    20  H   -0.000026   0.612416  -0.011239  -0.034323  -0.000073   0.000003
    21  H   -0.000701  -0.011239   0.615134  -0.035243  -0.000069   0.000000
    22  H   -0.000762  -0.034323  -0.035243   0.689377   0.000056  -0.000001
    23  H   -0.000008  -0.000073  -0.000069   0.000056   0.687585  -0.014091
    24  H   -0.000000   0.000003   0.000000  -0.000001  -0.014091   0.672673
    25  H   -0.000000  -0.000001  -0.000000   0.000000  -0.000242  -0.012259
    26  H   -0.000000  -0.000010  -0.000001   0.000042   0.000031  -0.000271
    27  H   -0.000156  -0.000238   0.000003  -0.001001  -0.000177   0.000024
              25         26         27
     1  Cl  -0.000000   0.000000   0.000000
     2  C   -0.000000  -0.000000   0.000000
     3  C    0.000000   0.000000  -0.000001
     4  C    0.000000   0.000001  -0.000044
     5  C    0.000000  -0.000000   0.000016
     6  C    0.000000   0.000001   0.000159
     7  C    0.000000  -0.000002  -0.000736
     8  N    0.000011  -0.000159  -0.012243
     9  C   -0.000000  -0.000017   0.005399
    10  C   -0.001531   0.014996  -0.071798
    11  C    0.014176  -0.002245   0.017054
    12  C   -0.068497   0.014259  -0.002721
    13  C    0.452296  -0.071407   0.015491
    14  C   -0.068882   0.450088  -0.071961
    15  C    0.014356  -0.064651   0.456341
    16  H   -0.000000  -0.000000  -0.000000
    17  H    0.000000   0.000000  -0.000017
    18  H    0.000000   0.000000  -0.000001
    19  H   -0.000000  -0.000000  -0.000156
    20  H   -0.000001  -0.000010  -0.000238
    21  H   -0.000000  -0.000001   0.000003
    22  H    0.000000   0.000042  -0.001001
    23  H   -0.000242   0.000031  -0.000177
    24  H   -0.012259  -0.000271   0.000024
    25  H    0.671185  -0.012236  -0.000244
    26  H   -0.012236   0.672428  -0.013206
    27  H   -0.000244  -0.013206   0.688798
 Mulliken charges:
               1
     1  Cl  -0.106215
     2  C    0.039850
     3  C    0.006432
     4  C   -0.032951
     5  C    0.009188
     6  C   -0.045350
     7  C    0.191500
     8  N   -0.396349
     9  C    0.097243
    10  C    0.162676
    11  C   -0.037129
    12  C   -0.006144
    13  C   -0.006666
    14  C   -0.004119
    15  C   -0.036435
    16  H    0.010379
    17  H   -0.008352
    18  H    0.010934
    19  H   -0.002344
    20  H    0.051389
    21  H    0.049901
    22  H    0.028126
    23  H   -0.003008
    24  H    0.011955
    25  H    0.011869
    26  H    0.012359
    27  H   -0.008740
 Sum of Mulliken charges =  -0.00000
 Mulliken charges with hydrogens summed into heavy atoms:
               1
     1  Cl  -0.106215
     2  C    0.039850
     3  C    0.016811
     4  C   -0.041303
     5  C    0.020122
     6  C   -0.047694
     7  C    0.191500
     8  N   -0.396349
     9  C    0.226659
    10  C    0.162676
    11  C   -0.040138
    12  C    0.005811
    13  C    0.005203
    14  C    0.008240
    15  C   -0.045175
 Electronic spatial extent (au):  <R**2>=           4647.8755
 Charge=             -0.0000 electrons
 Dipole moment (field-independent basis, Debye):
    X=              1.9999    Y=              1.0403    Z=              0.3295  Tot=              2.2782
 Quadrupole moment (field-independent basis, Debye-Ang):
   XX=            -98.4278   YY=            -85.8342   ZZ=            -94.1573
   XY=             -2.0218   XZ=             -2.1035   YZ=             -4.3505
 Traceless Quadrupole moment (field-independent basis, Debye-Ang):
   XX=             -5.6214   YY=              6.9723   ZZ=             -1.3509
   XY=             -2.0218   XZ=             -2.1035   YZ=             -4.3505
 Octapole moment (field-independent basis, Debye-Ang**2):
  XXX=             30.4039  YYY=              3.1776  ZZZ=             -0.3774  XYY=              0.9356
  XXY=             -3.5535  XXZ=            -18.5796  XZZ=             -3.5331  YZZ=              2.3693
  YYZ=              5.4420  XYZ=              2.7788
 Hexadecapole moment (field-independent basis, Debye-Ang**3):
 XXXX=          -5010.4607 YYYY=           -860.6908 ZZZZ=           -389.9901 XXXY=            -56.9113
 XXXZ=            -79.1699 YYYX=              8.0409 YYYZ=            -14.0204 ZZZX=              8.6132
 ZZZY=             -3.8287 XXYY=           -920.1094 XXZZ=           -878.3589 YYZZ=           -199.3401
 XXYZ=            -23.1324 YYXZ=             13.5188 ZZXY=             13.5590
 N-N= 9.872544397111D+02 E-N=-4.357003006419D+03  KE= 1.010074404934D+03
   1 Symmetry operations used in ECPInt.
 ECPInt:  NShTT=    8256 NPrTT=   30622 LenC2=    7732 LenP2D=   20793.
 LDataN:  DoStor=T MaxTD1= 5 Len=  102
 Calling FoFJK, ICntrl=      2127 FMM=F ISym2X=0 I1Cent= 0 IOpClX= 0 NMat=1 NMatS=1 NMatT=0.
 ***** Axes restored to original set *****
 -------------------------------------------------------------------
 Center     Atomic                   Forces (Hartrees/Bohr)
 Number     Number              X              Y              Z
 -------------------------------------------------------------------
      1       17           0.004403592   -0.000889626    0.001045568
      2        6           0.001596429   -0.000354776    0.000697233
      3        6           0.005987950   -0.002647379    0.002938829
      4        6          -0.005399081    0.005518641   -0.000112060
      5        6           0.007388445    0.000509017    0.000693204
      6        6          -0.007174682   -0.002855792   -0.004954520
      7        6          -0.028997733    0.002388301   -0.002366389
      8        7           0.006714453   -0.008701975   -0.006368041
      9        6           0.003162333   -0.015780234    0.014607679
     10        6           0.017959802    0.007640287   -0.004069041
     11        6           0.006185695    0.008002864   -0.003258084
     12        6          -0.002393115   -0.002697609    0.002915564
     13        6          -0.004190668   -0.003243935    0.002093295
     14        6          -0.004064180   -0.000909838    0.000411459
     15        6           0.009379493    0.003116065   -0.005306011
     16        1           0.003158076   -0.009641515   -0.003231010
     17        1          -0.004715999   -0.008010103   -0.005199145
     18        1           0.004949863    0.008018755    0.005233865
     19        1          -0.003194997    0.010399645    0.003542985
     20        1          -0.006356639   -0.000963421   -0.003209124
     21        1           0.005845013    0.001388315   -0.003979656
     22        1          -0.002360730    0.013891639    0.004470846
     23        1           0.006867637   -0.005119443   -0.007105271
     24        1          -0.000909373   -0.009824328   -0.003395528
     25        1          -0.008171469   -0.005444345    0.003600994
     26        1          -0.006607745    0.004989738    0.006525869
     27        1           0.000937631    0.011221052    0.003776491
 -------------------------------------------------------------------
 Cartesian Forces:  Max     0.028997733 RMS     0.006902369

 GradGradGradGradGradGradGradGradGradGradGradGradGradGradGradGradGradGrad
 Berny optimization.
 FormGI is forming the generalized inverse of G from B-inverse, IUseBI=4.
 Internal  Forces:  Max     0.021791470 RMS     0.005558800
 Search for a local minimum.
 Step number   1 out of a maximum of  145
 All quantities printed in internal units (Hartrees-Bohrs-Radians)
 Mixed Optimization -- RFO/linear search
 Second derivative matrix not updated -- first step.
 ITU=  0
     Eigenvalues ---    0.00884   0.01130   0.01175   0.01202   0.01843
     Eigenvalues ---    0.01848   0.02172   0.02181   0.02259   0.02262
     Eigenvalues ---    0.02282   0.02282   0.02303   0.02325   0.02331
     Eigenvalues ---    0.02334   0.02339   0.02354   0.02356   0.02359
     Eigenvalues ---    0.02371   0.02375   0.07421   0.07504   0.15984
     Eigenvalues ---    0.15994   0.15998   0.15998   0.16000   0.16000
     Eigenvalues ---    0.16000   0.16000   0.16000   0.16000   0.16000
     Eigenvalues ---    0.16000   0.22000   0.22000   0.22000   0.22967
     Eigenvalues ---    0.23466   0.24000   0.24025   0.24387   0.24998
     Eigenvalues ---    0.25000   0.25000   0.32090   0.35000   0.35002
     Eigenvalues ---    0.35043   0.36265   0.36272   0.36273   0.36391
     Eigenvalues ---    0.36398   0.36514   0.36538   0.36708   0.36786
     Eigenvalues ---    0.36830   0.39248   0.39715   0.42948   0.43119
     Eigenvalues ---    0.43681   0.43699   0.47226   0.47235   0.47616
     Eigenvalues ---    0.47888   0.48768   0.49113   0.49697   0.49756
 RFO step:  Lambda=-1.18859554D-02 EMin= 8.83897766D-03
 Linear search not attempted -- first point.
 Iteration  1 RMS(Cart)=  0.04600116 RMS(Int)=  0.00071098
 Iteration  2 RMS(Cart)=  0.00132075 RMS(Int)=  0.00023105
 Iteration  3 RMS(Cart)=  0.00000063 RMS(Int)=  0.00023105
 Variable       Old X    -DE/DX   Delta X   Delta X   Delta X     New X
                                 (Linear)    (Quad)   (Total)
    R1        3.27680   0.00461   0.00000   0.01386   0.01386   3.29066
    R2        2.61511   0.01005   0.00000   0.02061   0.02061   2.63572
    R3        2.61494   0.00974   0.00000   0.01996   0.01997   2.63491
    R4        2.60188   0.01448   0.00000   0.02848   0.02847   2.63036
    R5        2.03474   0.01054   0.00000   0.02805   0.02805   2.06279
    R6        2.63525   0.00739   0.00000   0.01514   0.01513   2.65038
    R7        2.02871   0.01057   0.00000   0.02784   0.02784   2.05655
    R8        2.60156   0.01440   0.00000   0.02827   0.02828   2.62983
    R9        2.03464   0.01069   0.00000   0.02845   0.02845   2.06309
   R10        2.63685   0.00748   0.00000   0.01536   0.01536   2.65221
   R11        2.03249   0.01133   0.00000   0.03002   0.03002   2.06251
   R12        2.72589  -0.02179   0.00000  -0.05389  -0.05389   2.67199
   R13        2.76103  -0.00575   0.00000  -0.01511  -0.01511   2.74592
   R14        2.71943  -0.01703   0.00000  -0.04163  -0.04163   2.67780
   R15        2.05671   0.00711   0.00000   0.01965   0.01965   2.07636
   R16        2.05676   0.00714   0.00000   0.01974   0.01974   2.07650
   R17        2.05606   0.01276   0.00000   0.03523   0.03523   2.09129
   R18        2.63773   0.00602   0.00000   0.01196   0.01195   2.64968
   R19        2.63856   0.00636   0.00000   0.01267   0.01266   2.65122
   R20        2.60136   0.01706   0.00000   0.03352   0.03351   2.63487
   R21        2.02989   0.01112   0.00000   0.02934   0.02934   2.05923
   R22        2.60995   0.01302   0.00000   0.02669   0.02670   2.63664
   R23        2.03670   0.01041   0.00000   0.02780   0.02780   2.06450
   R24        2.60976   0.01317   0.00000   0.02698   0.02699   2.63675
   R25        2.03657   0.01046   0.00000   0.02792   0.02792   2.06449
   R26        2.60090   0.01662   0.00000   0.03260   0.03260   2.63351
   R27        2.03659   0.01053   0.00000   0.02811   0.02811   2.06470
   R28        2.03285   0.01185   0.00000   0.03143   0.03143   2.06428
    A1        2.09584  -0.00053   0.00000  -0.00273  -0.00273   2.09310
    A2        2.09584  -0.00057   0.00000  -0.00290  -0.00290   2.09294
    A3        2.09150   0.00110   0.00000   0.00563   0.00562   2.09712
    A4        2.09664  -0.00123   0.00000  -0.00441  -0.00447   2.09217
    A5        2.07638   0.00211   0.00000   0.01085   0.01083   2.08721
    A6        2.11016  -0.00088   0.00000  -0.00650  -0.00652   2.10364
    A7        2.10848   0.00036   0.00000   0.00102   0.00098   2.10946
    A8        2.08876  -0.00147   0.00000  -0.00796  -0.00796   2.08080
    A9        2.08561   0.00113   0.00000   0.00718   0.00719   2.09280
   A10        2.09532  -0.00181   0.00000  -0.00700  -0.00703   2.08829
   A11        2.07720   0.00227   0.00000   0.01141   0.01139   2.08858
   A12        2.11067  -0.00046   0.00000  -0.00444  -0.00446   2.10621
   A13        2.10962   0.00103   0.00000   0.00381   0.00378   2.11340
   A14        2.09511  -0.00215   0.00000  -0.01140  -0.01140   2.08370
   A15        2.07836   0.00113   0.00000   0.00768   0.00768   2.08605
   A16        2.06481   0.00056   0.00000   0.00093   0.00086   2.06567
   A17        2.12323   0.00228   0.00000   0.00931   0.00927   2.13250
   A18        2.09514  -0.00284   0.00000  -0.01024  -0.01027   2.08487
   A19        2.04931   0.00180   0.00000  -0.00030  -0.00178   2.04753
   A20        2.14206  -0.00259   0.00000  -0.01792  -0.01914   2.12292
   A21        2.05333   0.00021   0.00000  -0.00655  -0.00796   2.04538
   A22        1.91937  -0.00326   0.00000  -0.02165  -0.02190   1.89747
   A23        1.92071  -0.00311   0.00000  -0.02057  -0.02085   1.89986
   A24        1.92950   0.01190   0.00000   0.07447   0.07446   2.00397
   A25        1.89397   0.00094   0.00000  -0.00489  -0.00543   1.88854
   A26        1.89881  -0.00332   0.00000  -0.01442  -0.01440   1.88441
   A27        1.90090  -0.00335   0.00000  -0.01423  -0.01426   1.88664
   A28        2.12514   0.00081   0.00000   0.00431   0.00429   2.12943
   A29        2.09661  -0.00383   0.00000  -0.01339  -0.01340   2.08321
   A30        2.06137   0.00302   0.00000   0.00892   0.00884   2.07021
   A31        2.10855  -0.00091   0.00000  -0.00510  -0.00516   2.10339
   A32        2.08283   0.00090   0.00000   0.00534   0.00533   2.08817
   A33        2.09090   0.00003   0.00000   0.00027   0.00026   2.09116
   A34        2.09799   0.00077   0.00000   0.00502   0.00497   2.10297
   A35        2.09301  -0.00103   0.00000  -0.00630  -0.00632   2.08669
   A36        2.09217   0.00026   0.00000   0.00120   0.00117   2.09334
   A37        2.09180  -0.00284   0.00000  -0.00905  -0.00906   2.08274
   A38        2.09563   0.00143   0.00000   0.00459   0.00459   2.10023
   A39        2.09574   0.00141   0.00000   0.00444   0.00444   2.10019
   A40        2.09654   0.00042   0.00000   0.00346   0.00343   2.09997
   A41        2.09305   0.00034   0.00000   0.00142   0.00141   2.09446
   A42        2.09359  -0.00075   0.00000  -0.00491  -0.00492   2.08867
   A43        2.11005  -0.00046   0.00000  -0.00331  -0.00334   2.10671
   A44        2.07523   0.00102   0.00000   0.00626   0.00627   2.08150
   A45        2.09776  -0.00055   0.00000  -0.00284  -0.00284   2.09492
    D1        3.14077   0.00040   0.00000   0.01128   0.01125  -3.13116
    D2       -0.00455  -0.00015   0.00000  -0.00439  -0.00450  -0.00905
    D3       -0.00198   0.00024   0.00000   0.00650   0.00646   0.00447
    D4        3.13588  -0.00031   0.00000  -0.00918  -0.00929   3.12659
    D5       -3.14131   0.00023   0.00000   0.00649   0.00644  -3.13487
    D6       -0.00196  -0.00022   0.00000  -0.00639  -0.00648  -0.00844
    D7        0.00145   0.00039   0.00000   0.01128   0.01124   0.01268
    D8        3.14080  -0.00007   0.00000  -0.00161  -0.00169   3.13911
    D9       -0.00014  -0.00072   0.00000  -0.02093  -0.02093  -0.02107
   D10        3.11331  -0.00034   0.00000  -0.01041  -0.01045   3.10285
   D11       -3.13793  -0.00017   0.00000  -0.00498  -0.00507   3.14018
   D12       -0.02449   0.00021   0.00000   0.00553   0.00541  -0.01908
   D13        0.00273   0.00057   0.00000   0.01721   0.01724   0.01997
   D14       -3.13857  -0.00000   0.00000  -0.00147  -0.00155  -3.14012
   D15       -3.11077   0.00023   0.00000   0.00696   0.00693  -3.10384
   D16        0.03112  -0.00034   0.00000  -0.01173  -0.01186   0.01926
   D17        0.00122  -0.00054   0.00000  -0.01484  -0.01485  -0.01363
   D18        3.12751  -0.00029   0.00000  -0.00828  -0.00831   3.11920
   D19       -3.13809  -0.00008   0.00000  -0.00173  -0.00180  -3.13990
   D20       -0.01180   0.00017   0.00000   0.00483   0.00473  -0.00707
   D21       -0.00327   0.00006   0.00000   0.00069   0.00072  -0.00256
   D22        3.13804   0.00062   0.00000   0.01906   0.01898  -3.12617
   D23       -3.12971  -0.00016   0.00000  -0.00565  -0.00566  -3.13537
   D24        0.01160   0.00040   0.00000   0.01273   0.01260   0.02420
   D25       -2.40570  -0.00225   0.00000  -0.10132  -0.10118  -2.50688
   D26        1.03764  -0.00010   0.00000  -0.00575  -0.00591   1.03173
   D27        0.73619  -0.00283   0.00000  -0.12033  -0.12017   0.61602
   D28       -2.10366  -0.00067   0.00000  -0.02476  -0.02490  -2.12856
   D29        2.75142  -0.00010   0.00000   0.03098   0.03137   2.78279
   D30        0.66587   0.00272   0.00000   0.06337   0.06331   0.72918
   D31       -1.43468   0.00126   0.00000   0.04660   0.04674  -1.38794
   D32       -0.67628  -0.00266   0.00000  -0.06173  -0.06165  -0.73793
   D33       -2.76183   0.00016   0.00000  -0.02934  -0.02971  -2.79154
   D34        1.42080  -0.00130   0.00000  -0.04611  -0.04628   1.37452
   D35       -1.13928  -0.00091   0.00000  -0.04350  -0.04315  -1.18244
   D36        2.01466  -0.00044   0.00000  -0.02769  -0.02742   1.98724
   D37        2.30470   0.00100   0.00000   0.05127   0.05099   2.35570
   D38       -0.82454   0.00146   0.00000   0.06708   0.06673  -0.75780
   D39       -3.14063  -0.00008   0.00000  -0.00162  -0.00148   3.14107
   D40       -0.04467   0.00035   0.00000   0.01126   0.01138  -0.03329
   D41       -0.01115  -0.00059   0.00000  -0.01727  -0.01725  -0.02841
   D42        3.08481  -0.00015   0.00000  -0.00439  -0.00439   3.08041
   D43       -3.14089  -0.00052   0.00000  -0.01622  -0.01612   3.12617
   D44       -0.01738  -0.00027   0.00000  -0.00920  -0.00910  -0.02648
   D45        0.01261  -0.00006   0.00000  -0.00096  -0.00090   0.01171
   D46        3.13612   0.00019   0.00000   0.00606   0.00612  -3.14094
   D47        0.00231   0.00072   0.00000   0.02112   0.02112   0.02343
   D48        3.13782   0.00021   0.00000   0.00638   0.00639  -3.13897
   D49       -3.09344   0.00027   0.00000   0.00805   0.00811  -3.08533
   D50        0.04207  -0.00025   0.00000  -0.00669  -0.00663   0.03545
   D51        0.00541  -0.00025   0.00000  -0.00657  -0.00659  -0.00118
   D52       -3.14053  -0.00037   0.00000  -0.01048  -0.01049   3.13217
   D53       -3.13010   0.00027   0.00000   0.00819   0.00823  -3.12188
   D54        0.00714   0.00015   0.00000   0.00429   0.00433   0.01147
   D55       -0.00397  -0.00040   0.00000  -0.01156  -0.01156  -0.01553
   D56        3.13962   0.00003   0.00000   0.00034   0.00040   3.14002
   D57       -3.14122  -0.00028   0.00000  -0.00766  -0.00767   3.13430
   D58        0.00238   0.00015   0.00000   0.00425   0.00429   0.00667
   D59       -0.00520   0.00057   0.00000   0.01537   0.01541   0.01021
   D60       -3.12849   0.00030   0.00000   0.00816   0.00824  -3.12024
   D61        3.13439   0.00014   0.00000   0.00347   0.00350   3.13789
   D62        0.01111  -0.00013   0.00000  -0.00374  -0.00367   0.00744
         Item               Value     Threshold  Converged?
 Maximum Force            0.021791     0.000450     NO 
 RMS     Force            0.005559     0.000300     NO 
 Maximum Displacement     0.139311     0.001800     NO 
 RMS     Displacement     0.046139     0.001200     NO 
 Predicted change in Energy=-6.431052D-03
 GradGradGradGradGradGradGradGradGradGradGradGradGradGradGradGradGradGrad

                          Input orientation:                          
 ---------------------------------------------------------------------
 Center     Atomic      Atomic             Coordinates (Angstroms)
 Number     Number       Type             X           Y           Z
 ---------------------------------------------------------------------
      1         17           0        4.603571   -0.349499    0.677196
      2          6           0        2.950726   -0.015977    0.242296
      3          6           0        2.182566   -1.000333   -0.379261
      4          6           0        0.865348   -0.728429   -0.737677
      5          6           0        2.400499    1.236952    0.509863
      6          6           0        1.076574    1.494868    0.167245
      7          6           0        0.286847    0.518622   -0.459697
      8          7           0       -1.048643    0.824096   -0.809597
      9          6           0       -1.329388    2.180635   -1.248249
     10          6           0       -2.138479    0.064336   -0.316642
     11          6           0       -2.349562   -1.267758   -0.700048
     12          6           0       -3.432217   -1.986770   -0.195079
     13          6           0       -4.337850   -1.382944    0.677817
     14          6           0       -4.149530   -0.049622    1.043432
     15          6           0       -3.057417    0.665944    0.556245
     16          1           0        2.626957   -1.973276   -0.597091
     17          1           0        0.287081   -1.491707   -1.254751
     18          1           0        3.008264    2.000788    0.998816
     19          1           0        0.643923    2.470022    0.397717
     20          1           0       -2.267888    2.179319   -1.819643
     21          1           0       -0.521748    2.512424   -1.915387
     22          1           0       -1.427516    2.921760   -0.432280
     23          1           0       -1.678998   -1.733617   -1.421685
     24          1           0       -3.580430   -3.024588   -0.502471
     25          1           0       -5.190169   -1.946095    1.065014
     26          1           0       -4.852838    0.434545    1.725117
     27          1           0       -2.903532    1.703493    0.861340
 ---------------------------------------------------------------------
                    Distance matrix (angstroms):
                    1          2          3          4          5
     1  Cl   0.000000
     2  C    1.741342   0.000000
     3  C    2.720469   1.394761   0.000000
     4  C    4.014943   2.411790   1.391925   0.000000
     5  C    2.719992   1.394336   2.417329   2.788506   0.000000
     6  C    4.012661   2.408471   2.783507   2.409678   1.391648
     7  C    4.547556   2.806215   2.430523   1.402523   2.433838
     8  N    5.961158   4.219853   3.735564   2.465536   3.715913
     9  C    6.731190   5.036487   4.817418   3.679702   4.230077
    10  C    6.827460   5.120436   4.450715   3.135079   4.760300
    11  C    7.147451   5.527026   4.551330   3.260052   5.504592
    12  C    8.247146   6.694571   5.703750   4.510754   6.701486
    13  C    9.000946   7.428433   6.616618   5.431877   7.231695
    14  C    8.765891   7.145390   6.559219   5.364898   6.696481
    15  C    7.728939   6.054863   5.577551   4.359656   5.487901
    16  H    2.857878   2.154162   1.091583   2.161637   3.403263
    17  H    4.865095   3.393218   2.144946   1.088280   3.876336
    18  H    2.858723   2.154757   3.404057   3.880222   1.091741
    19  H    4.868944   3.394950   3.874852   3.401211   2.149092
    20  H    7.736025   6.025351   5.656096   4.409401   5.301744
    21  H    6.417242   4.806920   4.691743   3.716741   4.006020
    22  H    6.950258   5.315483   5.330883   4.321385   4.287180
    23  H    6.766960   5.210898   4.066451   2.819923   5.403467
    24  H    8.690546   7.229275   6.109412   5.009253   7.413303
    25  H    9.930603   8.406925   7.572161   6.434415   8.249741
    26  H    9.546546   7.955963   7.482258   6.333681   7.398081
    27  H    7.784940   6.132873   5.892211   4.761886   5.336098
                    6          7          8          9         10
     6  C    0.000000
     7  C    1.403489   0.000000
     8  N    2.433250   1.413959   0.000000
     9  C    2.874466   2.448738   1.453077   0.000000
    10  C    3.552061   2.471649   1.417033   2.449744   0.000000
    11  C    4.485834   3.193677   2.465815   3.637677   1.402151
    12  C    5.708089   4.492043   3.736312   4.785220   2.428080
    13  C    6.152924   5.128130   4.231112   5.045758   2.814391
    14  C    5.519540   4.718447   3.716531   4.263690   2.430456
    15  C    4.234185   3.498278   2.434278   2.921742   1.402966
    16  H    3.875038   3.421191   4.623904   5.773357   5.190365
    17  H    3.400736   2.161836   2.710215   4.012370   3.030620
    18  H    2.163075   3.424936   4.594939   4.888443   5.654135
    19  H    1.091435   2.161163   2.651691   2.585906   3.746918
    20  H    3.949890   3.336771   2.084078   1.098761   2.597867
    21  H    2.815566   2.597711   2.085866   1.098835   3.341098
    22  H    2.943793   2.952095   2.164742   1.106662   2.946814
    23  H    4.532217   3.140469   2.704421   3.933659   2.159832
    24  H    6.523932   5.245188   4.616994   5.719941   3.413972
    25  H    7.205434   6.196554   5.323567   6.106286   3.906868
    26  H    6.221670   5.585414   4.587856   4.929953   3.416662
    27  H    4.045558   3.650695   2.646882   2.675063   2.158654
                   11         12         13         14         15
    11  C    0.000000
    12  C    1.394315   0.000000
    13  C    2.421790   1.395251   0.000000
    14  C    2.786299   2.408525   1.395309   0.000000
    15  C    2.412164   2.782419   2.419138   1.393591   0.000000
    16  H    5.027335   6.072510   7.105098   7.232741   6.372423
    17  H    2.703653   3.898868   5.013645   5.200460   4.372738
    18  H    6.501987   7.668494   8.094324   7.445817   6.226570
    19  H    4.912946   6.068717   6.304115   5.453692   4.120649
    20  H    3.625259   4.620733   4.817859   4.087292   2.925492
    21  H    4.371238   5.627880   6.038313   5.336618   3.993503
    22  H    4.298131   5.307425   5.313458   4.291410   2.953382
    23  H    1.089698   2.154629   3.405933   3.875071   3.401491
    24  H    2.154188   1.092484   2.159111   3.400605   3.874848
    25  H    3.412424   2.163304   1.092478   2.163332   3.410311
    26  H    3.878872   3.401189   2.159934   1.092590   2.154842
    27  H    3.401933   3.874736   3.408378   2.158491   1.092370
                   16         17         18         19         20
    16  H    0.000000
    17  H    2.477790   0.000000
    18  H    4.299477   4.967990   0.000000
    19  H    4.966384   4.307353   2.484272   0.000000
    20  H    6.534385   4.508149   5.984427   3.671491   0.000000
    21  H    5.636821   4.138080   4.606011   2.590568   1.780205
    22  H    6.358246   4.805726   4.751039   2.276801   1.783878
    23  H    4.390744   1.987927   6.463361   5.135832   3.976962
    24  H    6.296496   4.227682   8.421352   6.989008   5.526152
    25  H    7.991920   5.965572   9.099262   7.347381   5.820654
    26  H    8.193753   6.245705   8.048451   6.009954   4.721390
    27  H    6.799409   4.986699   5.920863   3.658818   2.796091
                   21         22         23         24         25
    21  H    0.000000
    22  H    1.785379   0.000000
    23  H    4.428524   4.765994   0.000000
    24  H    6.481540   6.324478   2.475279   0.000000
    25  H    7.110227   6.332098   4.307801   2.492271   0.000000
    26  H    6.027370   4.751150   4.967550   4.306596   2.493386
    27  H    3.746662   2.310032   4.304116   4.967184   4.311576
                   26         27
    26  H    0.000000
    27  H    2.481156   0.000000
 Stoichiometry    C13H12ClN
 Framework group  C1[X(C13H12ClN)]
 Deg. of freedom    75
 Full point group                 C1      NOp   1
 Largest Abelian subgroup         C1      NOp   1
 Largest concise Abelian subgroup C1      NOp   1
                         Standard orientation:                         
 ---------------------------------------------------------------------
 Center     Atomic      Atomic             Coordinates (Angstroms)
 Number     Number       Type             X           Y           Z
 ---------------------------------------------------------------------
      1         17           0       -4.689355   -0.719495   -0.462106
      2          6           0       -3.047132   -0.241208   -0.135584
      3          6           0       -2.200840   -1.095814    0.570672
      4          6           0       -0.892088   -0.707135    0.841876
      5          6           0       -2.583441    0.998297   -0.574666
      6          6           0       -1.267639    1.371545   -0.317691
      7          6           0       -0.400158    0.526867    0.392082
      8          7           0        0.924497    0.948791    0.650049
      9          6           0        1.135322    2.362925    0.909297
     10          6           0        2.042709    0.197190    0.211096
     11          6           0        2.347029   -1.063078    0.745085
     12          6           0        3.455201   -1.776205    0.289542
     13          6           0        4.294091   -1.234378   -0.684836
     14          6           0        4.012968    0.030602   -1.202214
     15          6           0        2.895009    0.737577   -0.763521
     16          1           0       -2.577675   -2.058064    0.922272
     17          1           0       -0.252086   -1.366452    1.425016
     18          1           0       -3.252016    1.659963   -1.128836
     19          1           0       -0.903052    2.333753   -0.681643
     20          1           0        2.089731    2.485702    1.439679
     21          1           0        0.330363    2.728140    1.562057
     22          1           0        1.162015    3.001840    0.006094
     23          1           0        1.729414   -1.473543    1.543528
     24          1           0        3.676367   -2.757914    0.714812
     25          1           0        5.166648   -1.791645   -1.033559
     26          1           0        4.663389    0.466008   -1.964531
     27          1           0        2.668274    1.718982   -1.186259
 ---------------------------------------------------------------------
 Rotational constants (GHZ):           1.3083714           0.2470137           0.2262875
 Standard basis: def2SVP (5D, 7F)
 There are   289 symmetry adapted cartesian basis functions of A   symmetry.
 There are   274 symmetry adapted basis functions of A   symmetry.
   274 basis functions,   471 primitive gaussians,   289 cartesian basis functions
    57 alpha electrons       57 beta electrons
       nuclear repulsion energy       986.1441223591 Hartrees.
 NAtoms=   27 NActive=   27 NUniq=   27 SFac= 1.00D+00 NAtFMM=   60 NAOKFM=F Big=F
 Integral buffers will be    131072 words long.
 Raffenetti 2 integral format.
 Two-electron integral symmetry is turned on.
 Nuclear repulsion after empirical dispersion term =      986.1262374029 Hartrees.
 One-electron integrals computed using PRISM.
   1 Symmetry operations used in ECPInt.
 ECPInt:  NShTT=    8256 NPrTT=   30622 LenC2=    7737 LenP2D=   20814.
 LDataN:  DoStor=T MaxTD1= 4 Len=   56
 NBasis=   274 RedAO= T EigKep=  2.43D-04  NBF=   274
 NBsUse=   274 1.00D-06 EigRej= -1.00D+00 NBFU=   274
 Initial guess from the checkpoint file:  "prod_5h_4.chk"
 B after Tr=     0.000000   -0.000000    0.000000
         Rot=    0.999967   -0.008040   -0.000783   -0.000693 Ang=  -0.93 deg.
 ExpMin= 1.22D-01 ExpMax= 1.04D+04 ExpMxC= 1.57D+03 IAcc=3 IRadAn=         5 AccDes= 0.00D+00
 Harris functional with IExCor= 4639 and IRadAn=       5 diagonalized for initial guess.
 HarFok:  IExCor= 4639 AccDes= 0.00D+00 IRadAn=         5 IDoV= 1 UseB2=F ITyADJ=14
 ICtDFT=  3500011 ScaDFX=  1.000000  1.000000  1.000000  1.000000
 FoFCou: FMM=F IPFlag=           0 FMFlag=      100000 FMFlg1=           0
         NFxFlg=           0 DoJE=T BraDBF=F KetDBF=T FulRan=T
         wScrn=  0.000000 ICntrl=       500 IOpCl=  0 I1Cent=   200000004 NGrid=           0
         NMat0=    1 NMatS0=      1 NMatT0=    0 NMatD0=    1 NMtDS0=    0 NMtDT0=    0
 Petite list used in FoFCou.
 Requested convergence on RMS density matrix=1.00D-08 within 128 cycles.
 Requested convergence on MAX density matrix=1.00D-06.
 Requested convergence on             energy=1.00D-06.
 No special actions if energy rises.
 Integral accuracy reduced to 1.0D-05 until final iterations.
 Initial convergence to 1.0D-05 achieved.  Increase integral accuracy.
 SCF Done:  E(RwB97XD) =  -1016.81990756     A.U. after   14 cycles
            NFock= 14  Conv=0.55D-08     -V/T= 2.0072
   1 Symmetry operations used in ECPInt.
 ECPInt:  NShTT=    8256 NPrTT=   30622 LenC2=    7737 LenP2D=   20814.
 LDataN:  DoStor=T MaxTD1= 5 Len=  102
 Calling FoFJK, ICntrl=      2127 FMM=F ISym2X=0 I1Cent= 0 IOpClX= 0 NMat=1 NMatS=1 NMatT=0.
 ***** Axes restored to original set *****
 -------------------------------------------------------------------
 Center     Atomic                   Forces (Hartrees/Bohr)
 Number     Number              X              Y              Z
 -------------------------------------------------------------------
      1       17           0.000863721   -0.000213365    0.000181601
      2        6          -0.002984930    0.000851500   -0.000735121
      3        6           0.000753272    0.000554844    0.000861218
      4        6           0.000910693    0.000315019    0.001595300
      5        6           0.001357844   -0.000826029    0.000019610
      6        6           0.001821557   -0.000905692   -0.001256894
      7        6          -0.004032231    0.000996412    0.001381896
      8        7           0.002443870    0.002056162   -0.006918841
      9        6          -0.000086556   -0.003534241    0.002285356
     10        6          -0.000242723   -0.000580309    0.001440939
     11        6          -0.000714454    0.000458457    0.000494009
     12        6          -0.000222884    0.001100300    0.000951595
     13        6           0.000816780    0.000360955   -0.000469818
     14        6           0.000434822   -0.000589130   -0.000523971
     15        6          -0.001065644   -0.001240153   -0.000018258
     16        1          -0.000525278    0.000287473   -0.000162947
     17        1           0.000917055   -0.000210316    0.000358492
     18        1          -0.000511113   -0.000094322   -0.000193033
     19        1           0.001191809   -0.000399501    0.000499195
     20        1          -0.000436731    0.000676453    0.000129113
     21        1           0.000060258    0.000852863   -0.000069661
     22        1          -0.000035915    0.000488282    0.000137680
     23        1          -0.000788241   -0.000147563    0.000111223
     24        1           0.000226108    0.000169339   -0.000150384
     25        1           0.000364703    0.000233652   -0.000199396
     26        1           0.000173378    0.000116313   -0.000132560
     27        1          -0.000689171   -0.000777405    0.000383659
 -------------------------------------------------------------------
 Cartesian Forces:  Max     0.006918841 RMS     0.001299864

 GradGradGradGradGradGradGradGradGradGradGradGradGradGradGradGradGradGrad
 Berny optimization.
 Using GEDIIS/GDIIS optimizer.
 FormGI is forming the generalized inverse of G from B-inverse, IUseBI=4.
 Internal  Forces:  Max     0.002795197 RMS     0.000811576
 Search for a local minimum.
 Step number   2 out of a maximum of  145
 All quantities printed in internal units (Hartrees-Bohrs-Radians)
 Mixed Optimization -- En-DIIS/RFO-DIIS
 Update second derivatives using D2CorX and points    1    2
 DE= -6.11D-03 DEPred=-6.43D-03 R= 9.49D-01
 TightC=F SS=  1.41D+00  RLast= 2.90D-01 DXNew= 5.0454D-01 8.6902D-01
 Trust test= 9.49D-01 RLast= 2.90D-01 DXMaxT set to 5.05D-01
 ITU=  1  0
 Use linear search instead of GDIIS.
[...]
 Alpha virt. eigenvalues --   22.68767  22.72435  22.77507  22.83106  22.85419
 Alpha virt. eigenvalues --   22.90093  22.92822  23.28137  23.34579  26.00507
 Alpha virt. eigenvalues --   33.14581
          Condensed to atoms (all electrons):
               1          2          3          4          5          6
     1  Cl  16.889634   0.272655  -0.045528   0.019879  -0.045343   0.020176
     2  C    0.272655   5.052040   0.317581   0.077900   0.326505   0.093549
     3  C   -0.045528   0.317581   5.095536   0.371548   0.085343  -0.130765
     4  C    0.019879   0.077900   0.371548   5.165135  -0.120470   0.067020
     5  C   -0.045343   0.326505   0.085343  -0.120470   5.069103   0.351177
     6  C    0.020176   0.093549  -0.130765   0.067020   0.351177   5.290545
     7  C   -0.004859  -0.139494   0.047918   0.333261   0.062570   0.316710
     8  N   -0.000019  -0.000647   0.003929  -0.067697   0.003737  -0.094686
     9  C   -0.000003   0.000210  -0.000459   0.013040  -0.002169  -0.008926
    10  C   -0.000006  -0.000269  -0.002372   0.007592   0.000625   0.001830
    11  C    0.000000   0.000022   0.003314  -0.003327   0.000104   0.001956
    12  C   -0.000000  -0.000013   0.000141  -0.002004   0.000072  -0.000987
    13  C    0.000000   0.000002   0.000003   0.000323  -0.000004   0.000087
    14  C   -0.000000  -0.000000  -0.000057  -0.000148  -0.000005   0.000086
    15  C    0.000000   0.000091  -0.000018   0.005036  -0.000045   0.000522
    16  H    0.001895  -0.071618   0.445660  -0.054389   0.016539  -0.006049
    17  H   -0.000211   0.009201  -0.038805   0.434177  -0.001790   0.006462
    18  H    0.002044  -0.070397   0.015926  -0.005581   0.443554  -0.054372
    19  H   -0.000248   0.008179  -0.000373   0.002781  -0.021931   0.432043
    20  H   -0.000000  -0.000025   0.000069  -0.000399   0.000113   0.000306
    21  H    0.000000   0.000151  -0.000088  -0.000859  -0.000798   0.009720
    22  H    0.000001  -0.000234  -0.000075   0.001193   0.001272  -0.003774
    23  H    0.000001  -0.000015   0.000025  -0.000752  -0.000045   0.001045
    24  H   -0.000000  -0.000001  -0.000011  -0.000093   0.000001   0.000004
    25  H    0.000000   0.000000  -0.000000   0.000000  -0.000000   0.000000
    26  H   -0.000000  -0.000000   0.000001   0.000009   0.000000  -0.000003
    27  H    0.000000  -0.000000   0.000012  -0.000184  -0.000001   0.000015
               7          8          9         10         11         12
     1  Cl  -0.004859  -0.000019  -0.000003  -0.000006   0.000000  -0.000000
     2  C   -0.139494  -0.000647   0.000210  -0.000269   0.000022  -0.000013
     3  C    0.047918   0.003929  -0.000459  -0.002372   0.003314   0.000141
     4  C    0.333261  -0.067697   0.013040   0.007592  -0.003327  -0.002004
     5  C    0.062570   0.003737  -0.002169   0.000625   0.000104   0.000072
     6  C    0.316710  -0.094686  -0.008926   0.001830   0.001956  -0.000987
     7  C    5.006485   0.436904  -0.077796  -0.146478   0.026973  -0.003554
     8  N    0.436904   6.417181   0.311328   0.255265  -0.052702   0.008383
     9  C   -0.077796   0.311328   4.936557  -0.075576  -0.002903   0.000479
    10  C   -0.146478   0.255265  -0.075576   5.079029   0.411307  -0.015207
    11  C    0.026973  -0.052702  -0.002903   0.411307   5.109348   0.409466
    12  C   -0.003554   0.008383   0.000479  -0.015207   0.409466   4.930703
    13  C    0.001133   0.000912  -0.000113  -0.081731   0.031823   0.435021
    14  C   -0.000228   0.005275   0.000657  -0.031560  -0.057801  -0.002891
    15  C   -0.010511  -0.040118  -0.007786   0.471115   0.020432  -0.053944
    16  H    0.016153  -0.000098   0.000014   0.000181  -0.000049   0.000011
    17  H   -0.050648  -0.003665  -0.000168   0.002124  -0.003783  -0.000315
    18  H    0.016688  -0.000032   0.000042   0.000028  -0.000001  -0.000000
    19  H   -0.062190  -0.004503   0.004499  -0.000959   0.000178  -0.000006
    20  H    0.007659  -0.026550   0.407436  -0.007577   0.000100   0.000447
    21  H   -0.008079  -0.050190   0.406807  -0.006338   0.003452  -0.000830
    22  H   -0.005518  -0.045997   0.413960   0.013848  -0.001272   0.000162
    23  H    0.001388  -0.003292   0.000115  -0.042465   0.431515  -0.040252
    24  H    0.000055  -0.000219   0.000004   0.012844  -0.054061   0.440918
    25  H    0.000005   0.000012  -0.000002  -0.003539   0.011493  -0.055215
    26  H   -0.000025  -0.000248   0.000026   0.014428  -0.004357   0.011357
    27  H    0.000750   0.005934  -0.002165  -0.052305   0.008755  -0.002699
              13         14         15         16         17         18
     1  Cl   0.000000  -0.000000   0.000000   0.001895  -0.000211   0.002044
     2  C    0.000002  -0.000000   0.000091  -0.071618   0.009201  -0.070397
     3  C    0.000003  -0.000057  -0.000018   0.445660  -0.038805   0.015926
     4  C    0.000323  -0.000148   0.005036  -0.054389   0.434177  -0.005581
     5  C   -0.000004  -0.000005  -0.000045   0.016539  -0.001790   0.443554
     6  C    0.000087   0.000086   0.000522  -0.006049   0.006462  -0.054372
     7  C    0.001133  -0.000228  -0.010511   0.016153  -0.050648   0.016688
     8  N    0.000912   0.005275  -0.040118  -0.000098  -0.003665  -0.000032
     9  C   -0.000113   0.000657  -0.007786   0.000014  -0.000168   0.000042
    10  C   -0.081731  -0.031560   0.471115   0.000181   0.002124   0.000028
    11  C    0.031823  -0.057801   0.020432  -0.000049  -0.003783  -0.000001
    12  C    0.435021  -0.002891  -0.053944   0.000011  -0.000315  -0.000000
    13  C    4.945734   0.454470   0.009495  -0.000004   0.000108  -0.000000
    14  C    0.454470   4.874831   0.460344   0.000003   0.000280   0.000000
    15  C    0.009495   0.460344   5.031782  -0.000019   0.000063  -0.000001
    16  H   -0.000004   0.000003  -0.000019   0.527493  -0.007375  -0.000007
    17  H    0.000108   0.000280   0.000063  -0.007375   0.500203   0.000026
    18  H   -0.000000   0.000000  -0.000001  -0.000007   0.000026   0.530066
    19  H   -0.000001   0.000009  -0.000057   0.000035  -0.000186  -0.007287
    20  H   -0.000121  -0.000296  -0.004281   0.000000  -0.000015   0.000000
    21  H    0.000054   0.000233   0.003023  -0.000000   0.000010  -0.000006
    22  H   -0.000029  -0.000296  -0.000601  -0.000001   0.000009  -0.000018
    23  H    0.007825  -0.002067   0.008277  -0.000000  -0.000774  -0.000002
    24  H   -0.056133   0.010428  -0.003346   0.000001  -0.000002   0.000000
    25  H    0.442952  -0.054929   0.010858  -0.000000   0.000003   0.000000
    26  H   -0.057002   0.441464  -0.054921   0.000000  -0.000005  -0.000000
    27  H    0.008154  -0.034015   0.426990   0.000000  -0.000048   0.000000
              19         20         21         22         23         24
     1  Cl  -0.000248  -0.000000   0.000000   0.000001   0.000001  -0.000000
     2  C    0.008179  -0.000025   0.000151  -0.000234  -0.000015  -0.000001
     3  C   -0.000373   0.000069  -0.000088  -0.000075   0.000025  -0.000011
     4  C    0.002781  -0.000399  -0.000859   0.001193  -0.000752  -0.000093
     5  C   -0.021931   0.000113  -0.000798   0.001272  -0.000045   0.000001
     6  C    0.432043   0.000306   0.009720  -0.003774   0.001045   0.000004
     7  C   -0.062190   0.007659  -0.008079  -0.005518   0.001388   0.000055
     8  N   -0.004503  -0.026550  -0.050190  -0.045997  -0.003292  -0.000219
     9  C    0.004499   0.407436   0.406807   0.413960   0.000115   0.000004
    10  C   -0.000959  -0.007577  -0.006338   0.013848  -0.042465   0.012844
    11  C    0.000178   0.000100   0.003452  -0.001272   0.431515  -0.054061
    12  C   -0.000006   0.000447  -0.000830   0.000162  -0.040252   0.440918
    13  C   -0.000001  -0.000121   0.000054  -0.000029   0.007825  -0.056133
    14  C    0.000009  -0.000296   0.000233  -0.000296  -0.002067   0.010428
    15  C   -0.000057  -0.004281   0.003023  -0.000601   0.008277  -0.003346
    16  H    0.000035   0.000000  -0.000000  -0.000001  -0.000000   0.000001
    17  H   -0.000186  -0.000015   0.000010   0.000009  -0.000774  -0.000002
    18  H   -0.007287   0.000000  -0.000006  -0.000018  -0.000002   0.000000
    19  H    0.518153   0.000403   0.002865  -0.006895  -0.000001   0.000000
    20  H    0.000403   0.512014  -0.024440  -0.012661  -0.000161   0.000002
    21  H    0.002865  -0.024440   0.584669  -0.048704   0.000390   0.000002
    22  H   -0.006895  -0.012661  -0.048704   0.555976  -0.000023  -0.000001
    23  H   -0.000001  -0.000161   0.000390  -0.000023   0.498530  -0.006382
    24  H    0.000000   0.000002   0.000002  -0.000001  -0.006382   0.537540
    25  H    0.000000  -0.000001  -0.000000   0.000000  -0.000079  -0.006695
    26  H   -0.000000   0.000033  -0.000008   0.000007   0.000017  -0.000134
    27  H    0.000003  -0.002720   0.000557  -0.000715  -0.000145   0.000031
              25         26         27
     1  Cl   0.000000  -0.000000   0.000000
     2  C    0.000000  -0.000000  -0.000000
     3  C   -0.000000   0.000001   0.000012
     4  C    0.000000   0.000009  -0.000184
     5  C   -0.000000   0.000000  -0.000001
     6  C    0.000000  -0.000003   0.000015
     7  C    0.000005  -0.000025   0.000750
     8  N    0.000012  -0.000248   0.005934
     9  C   -0.000002   0.000026  -0.002165
    10  C   -0.003539   0.014428  -0.052305
    11  C    0.011493  -0.004357   0.008755
    12  C   -0.055215   0.011357  -0.002699
    13  C    0.442952  -0.057002   0.008154
    14  C   -0.054929   0.441464  -0.034015
    15  C    0.010858  -0.054921   0.426990
    16  H   -0.000000   0.000000   0.000000
    17  H    0.000003  -0.000005  -0.000048
    18  H    0.000000  -0.000000   0.000000
    19  H    0.000000  -0.000000   0.000003
    20  H   -0.000001   0.000033  -0.002720
    21  H   -0.000000  -0.000008   0.000557
    22  H    0.000000   0.000007  -0.000715
    23  H   -0.000079   0.000017  -0.000145
    24  H   -0.006695  -0.000134   0.000031
    25  H    0.538408  -0.006755  -0.000086
    26  H   -0.006755   0.540270  -0.007045
    27  H   -0.000086  -0.007045   0.509535
 Mulliken charges:
               1
     1  Cl  -0.110069
     2  C    0.124626
     3  C   -0.168452
     4  C   -0.242990
     5  C   -0.168113
     6  C   -0.293690
     7  C    0.234729
     8  N   -0.058198
     9  C   -0.317110
    10  C    0.196163
    11  C   -0.289982
    12  C   -0.059241
    13  C   -0.142956
    14  C   -0.063786
    15  C   -0.272381
    16  H    0.131623
    17  H    0.155123
    18  H    0.129329
    19  H    0.135488
    20  H    0.150666
    21  H    0.128408
    22  H    0.140385
    23  H    0.147327
    24  H    0.125247
    25  H    0.123570
    26  H    0.122891
    27  H    0.141393
 Sum of Mulliken charges =  -0.00000
 Mulliken charges with hydrogens summed into heavy atoms:
               1
     1  Cl  -0.110069
     2  C    0.124626
     3  C   -0.036829
     4  C   -0.087867
     5  C   -0.038784
     6  C   -0.158202
     7  C    0.234729
     8  N   -0.058198
     9  C    0.102349
    10  C    0.196163
    11  C   -0.142655
    12  C    0.066006
    13  C   -0.019387
    14  C    0.059105
    15  C   -0.130988
 Electronic spatial extent (au):  <R**2>=           4603.1899
 Charge=              0.0000 electrons
 Dipole moment (field-independent basis, Debye):
    X=              3.2819    Y=              1.2303    Z=              0.2105  Tot=              3.5113
 Quadrupole moment (field-independent basis, Debye-Ang):
   XX=            -99.1372   YY=            -86.8562   ZZ=            -95.0998
   XY=             -4.0193   XZ=             -3.0095   YZ=             -0.3670
 Traceless Quadrupole moment (field-independent basis, Debye-Ang):
   XX=             -5.4395   YY=              6.8415   ZZ=             -1.4020
   XY=             -4.0193   XZ=             -3.0095   YZ=             -0.3670
 Octapole moment (field-independent basis, Debye-Ang**2):
  XXX=             51.4215  YYY=             10.1220  ZZZ=              0.6195  XYY=             -1.0144
  XXY=             -1.3673  XXZ=            -10.6823  XZZ=              2.6966  YZZ=             -1.9648
  YYZ=              4.6463  XYZ=            -13.2459
 Hexadecapole moment (field-independent basis, Debye-Ang**3):
 XXXX=          -4975.4882 YYYY=           -927.0587 ZZZZ=           -317.3345 XXXY=           -115.5268
 XXXZ=            -97.8907 YYYX=             18.6981 YYYZ=              1.0349 ZZZX=             -7.1681
 ZZZY=            -12.3520 XXYY=           -937.1815 XXZZ=           -878.2364 YYZZ=           -205.4821
 XXYZ=            -13.1550 YYXZ=             13.3968 ZZXY=              5.2726
 N-N= 9.891808160943D+02 E-N=-4.366063027562D+03  KE= 1.013776017884D+03
 Breneman (CHELPG) radii used.
 Read replacement radii for each type of atom:
 Atom Element Radius
    1    17    2.00
    2     6    1.50
    3     6    1.50
    4     6    1.50
    5     6    1.50
    6     6    1.50
    7     6    1.50
    8     7    1.70
    9     6    1.50
   10     6    1.50
   11     6    1.50
   12     6    1.50
   13     6    1.50
   14     6    1.50
   15     6    1.50
   16     1    1.45
   17     1    1.45
   18     1    1.45
   19     1    1.45
   20     1    1.45
   21     1    1.45
   22     1    1.45
   23     1    1.45
   24     1    1.45
   25     1    1.45
   26     1    1.45
   27     1    1.45
 Generate Potential Derived Charges using the Breneman model, NDens= 1.
 Grid spacing= 0.300 Box extension= 2.800
 NStep X,Y,Z=   52     38     31   Total possible points=       61256
 Number of Points to Fit=   16907

 **********************************************************************

            Electrostatic Properties Using The SCF Density.

 **********************************************************************

       Atomic Center    1 is at  -4.666084 -0.899934 -0.094691
       Atomic Center    2 is at  -3.029478 -0.293560 -0.072173
       Atomic Center    3 is at  -1.976306 -1.111812 -0.481085
       Atomic Center    4 is at  -0.675049 -0.630906 -0.466849
       Atomic Center    5 is at  -2.771451  1.005154  0.348739
       Atomic Center    6 is at  -1.463993  1.486568  0.372081
       Atomic Center    7 is at  -0.385210  0.679309 -0.032335
       Atomic Center    8 is at   0.918372  1.165915 -0.046248
       Atomic Center    9 is at   1.160852  2.573368  0.186145
       Atomic Center   10 is at   2.029384  0.283817  0.001146
       Atomic Center   11 is at   2.132344 -0.691061  1.001794
       Atomic Center   12 is at   3.235835 -1.538824  1.045861
       Atomic Center   13 is at   4.260218 -1.412346  0.107246
       Atomic Center   14 is at   4.167155 -0.437174 -0.884417
       Atomic Center   15 is at   3.054104  0.398894 -0.944777
       Atomic Center   16 is at  -2.179730 -2.127720 -0.823266
       Atomic Center   17 is at   0.133180 -1.279174 -0.807240
       Atomic Center   18 is at  -3.594396  1.646398  0.668179
       Atomic Center   19 is at  -1.296143  2.505387  0.719598
       Atomic Center   20 is at   2.217986  2.793488 -0.004484
       Atomic Center   21 is at   0.938658  2.874883  1.227364
       Atomic Center   22 is at   0.553999  3.196173 -0.490088
       Atomic Center   23 is at   1.334237 -0.782088  1.741676
       Atomic Center   24 is at   3.302175 -2.296591  1.829712
       Atomic Center   25 is at   5.128070 -2.073590  0.148526
       Atomic Center   26 is at   4.960046 -0.334871 -1.628577
       Atomic Center   27 is at   2.966302  1.146600 -1.736178
   16907 points will be used for fitting atomic charges
 Fitting point charges to electrostatic potential
 Charges from ESP fit, RMS=   0.00394 RRMS=   0.37048:
 ESP charges:
               1
     1  Cl  -0.153882
     2  C    0.046841
     3  C   -0.049183
     4  C   -0.252644
     5  C   -0.065771
     6  C   -0.283921
     7  C    0.382818
     8  N   -0.422674
     9  C    0.041411
    10  C    0.355558
    11  C   -0.135740
    12  C   -0.105885
    13  C   -0.124356
    14  C   -0.070376
    15  C   -0.230702
    16  H    0.106570
    17  H    0.095428
    18  H    0.106313
    19  H    0.141448
    20  H    0.036334
    21  H    0.023508
    22  H    0.039196
    23  H    0.081386
    24  H    0.106964
    25  H    0.101596
    26  H    0.097195
    27  H    0.132568
 Sum of ESP charges =   0.00000
 ESP charges with hydrogens summed into heavy atoms:
               1
     1  Cl  -0.153882
     2  C    0.046841
     3  C    0.057388
     4  C   -0.157216
     5  C    0.040542
     6  C   -0.142473
     7  C    0.382818
     8  N   -0.422674
     9  C    0.140449
    10  C    0.355558
    11  C   -0.054354
    12  C    0.001078
    13  C   -0.022761
    14  C    0.026819
    15  C   -0.098134
 Charge=   0.00000 Dipole=     3.4272     1.3013     0.1983 Tot=     3.6713
 -----------------------------------------------------------------

              Electrostatic Properties (Atomic Units)

 -----------------------------------------------------------------
    Center     Electric         -------- Electric Field --------
               Potential          X             Y             Z
 -----------------------------------------------------------------
    1 Atom    -64.442906
    2 Atom    -14.718540
    3 Atom    -14.761360
    4 Atom    -14.767085
    5 Atom    -14.760930
    6 Atom    -14.765466
    7 Atom    -14.718020
    8 Atom    -18.352275
    9 Atom    -14.728958
   10 Atom    -14.720176
   11 Atom    -14.762298
   12 Atom    -14.759636
   13 Atom    -14.762342
   14 Atom    -14.759070
   15 Atom    -14.761360
   16 Atom     -1.099228
   17 Atom     -1.102291
   18 Atom     -1.098463
   19 Atom     -1.098697
   20 Atom     -1.097556
   21 Atom     -1.108022
   22 Atom     -1.104142
   23 Atom     -1.097240
   24 Atom     -1.099436
   25 Atom     -1.100369
   26 Atom     -1.098528
   27 Atom     -1.094828
 -----------------------------------------------------------------
 Unable to Open any file for archive entry.
 1\1\GINC-NOTCH312\SP\RwB97XD\def2TZVP\C13H12Cl1N1\U1366379\17-Feb-2026
 \0\\#N Guess=Read Geom=Check Integral(Ultrafine) Density Pop=(ChelpG,R
 eadRadii) NMR wB97XD def2TZVP\\prod_5h_4\\0,1\Cl,0,4.6097116706,-0.618
 1539336,0.1932785541\C,0,2.9433644139,-0.116711078,0.057195477\C,0,1.9
 311124052,-0.9008037383,0.610783892\C,0,0.6062342787,-0.502623047,0.50
 64159664\C,0,2.6208113,1.0650002708,-0.5984869165\C,0,1.2898120246,1.4
 616479104,-0.7118998121\C,0,0.2514469947,0.6861069457,-0.1647921282\N,
 0,-1.0763600453,1.094988857,-0.2425670895\C,0,-1.3912279769,2.41929284
 24,-0.733284473\C,0,-2.1380504718,0.1602247741,-0.1254321108\C,0,-2.17
 79872148,-0.987916078,-0.9269683778\C,0,-3.2340395901,-1.8879666381,-0
 .8129577422\C,0,-4.273744374,-1.6451436673,0.0850432529\C,0,-4.2436085
 332,-0.4989252907,0.8776920054\C,0,-3.1775603767,0.393204719,0.7818732
 818\H,0,2.1848695408,-1.8226973411,1.1363872236\H,0,-0.1697921776,-1.1
 193459123,0.9611562893\H,0,3.4116814468,1.6795324364,-1.0313250545\H,0
 ,1.0714767577,2.387343149,-1.2432658941\H,0,-2.4606047993,2.613054727,
 -0.5876380792\H,0,-1.1742970645,2.5335163309,-1.8123181012\H,0,-0.8258
 39462,3.1891677667,-0.1845797718\H,0,-1.3682514256,-1.171329911,-1.636
 4573272\H,0,-3.2513468169,-2.7807899323,-1.4419263453\H,0,-5.104509920
 8,-2.3488468096,0.1671796082\H,0,-5.0487845389,-0.3033693174,1.5892859
 281\H,0,-3.1383660447,1.2787319655,1.4201477446\\Version=ES64L-G16RevC
 .01\State=1-A\HF=-1017.5708432\RMSD=1.720e-09\Dipole=-1.3142808,0.3890
 549,-0.1723241\Quadrupole=-4.2883918,5.221163,-0.9327712,2.0137551,-2.
 705598,-1.0156123\PG=C01 [X(C13H12Cl1N1)]\\@
 The archive entry for this job was punched.


 THE ONLY TROUBLE WITH A SURE THING IS THE UNCERTAINTY.
     -- FROM A TEABAG (BELONGING TO W.H.?)
 Job cpu time:       0 days  0 hours 57 minutes 16.0 seconds.
 Elapsed time:       0 days  0 hours  7 minutes 22.1 seconds.
 File lengths (MBytes):  RWF=    183 Int=      0 D2E=      0 Chk=     28 Scr=      2
 Normal termination of Gaussian 16 at Tue Feb 17 16:33:06 2026.
