 Entering Gaussian System, Link 0=g16
 Input=prod_5l_42.com
 Output=prod_5l_42.log
 Initial command:
 /uufs/chpc.utah.edu/sys/installdir/gaussian16/C01/AVX/g16/l1.exe "/scratch/general/vast/u1366379/GAUSSSCRDIR/11035771-notchpeak.peaks/Gau-2444932.inp" -scrdir="/scratch/general/vast/u1366379/GAUSSSCRDIR/11035771-notchpeak.peaks/"
 Entering Link 1 = /uufs/chpc.utah.edu/sys/installdir/gaussian16/C01/AVX/g16/l1.exe PID=   2444934.
  
 Copyright (c) 1988-2019, Gaussian, Inc.  All Rights Reserved.
  
 This is part of the Gaussian(R) 16 program.  It is based on
 the Gaussian(R) 09 system (copyright 2009, Gaussian, Inc.),
 the Gaussian(R) 03 system (copyright 2003, Gaussian, Inc.),
 the Gaussian(R) 98 system (copyright 1998, Gaussian, Inc.),
 the Gaussian(R) 94 system (copyright 1995, Gaussian, Inc.),
 the Gaussian 92(TM) system (copyright 1992, Gaussian, Inc.),
 the Gaussian 90(TM) system (copyright 1990, Gaussian, Inc.),
 the Gaussian 88(TM) system (copyright 1988, Gaussian, Inc.),
 the Gaussian 86(TM) system (copyright 1986, Carnegie Mellon
 University), and the Gaussian 82(TM) system (copyright 1983,
 Carnegie Mellon University). Gaussian is a federally registered
 trademark of Gaussian, Inc.
  
 This software contains proprietary and confidential information,
 including trade secrets, belonging to Gaussian, Inc.
  
 This software is provided under written license and may be
 used, copied, transmitted, or stored only in accord with that
 written license.
  
 The following legend is applicable only to US Government
 contracts under FAR:
  
                    RESTRICTED RIGHTS LEGEND
  
 Use, reproduction and disclosure by the US Government is
 subject to restrictions as set forth in subparagraphs (a)
 and (c) of the Commercial Computer Software - Restricted
 Rights clause in FAR 52.227-19.
  
 Gaussian, Inc.
 340 Quinnipiac St., Bldg. 40, Wallingford CT 06492
  
  
 ---------------------------------------------------------------
 Warning -- This program may not be used in any manner that
 competes with the business of Gaussian, Inc. or will provide
 assistance to any competitor of Gaussian, Inc.  The licensee
 of this program is prohibited from giving any competitor of
 Gaussian, Inc. access to this program.  By using this program,
 the user acknowledges that Gaussian, Inc. is engaged in the
 business of creating and licensing software in the field of
 computational chemistry and represents and warrants to the
 licensee that it is not a competitor of Gaussian, Inc. and that
 it will not use this program in any manner prohibited above.
 ---------------------------------------------------------------
  

 Cite this work as:
 Gaussian 16, Revision C.01,
 M. J. Frisch, G. W. Trucks, H. B. Schlegel, G. E. Scuseria, 
 M. A. Robb, J. R. Cheeseman, G. Scalmani, V. Barone, 
 G. A. Petersson, H. Nakatsuji, X. Li, M. Caricato, A. V. Marenich, 
 J. Bloino, B. G. Janesko, R. Gomperts, B. Mennucci, H. P. Hratchian, 
 J. V. Ortiz, A. F. Izmaylov, J. L. Sonnenberg, D. Williams-Young, 
 F. Ding, F. Lipparini, F. Egidi, J. Goings, B. Peng, A. Petrone, 
 T. Henderson, D. Ranasinghe, V. G. Zakrzewski, J. Gao, N. Rega, 
 G. Zheng, W. Liang, M. Hada, M. Ehara, K. Toyota, R. Fukuda, 
 J. Hasegawa, M. Ishida, T. Nakajima, Y. Honda, O. Kitao, H. Nakai, 
 T. Vreven, K. Throssell, J. A. Montgomery, Jr., J. E. Peralta, 
 F. Ogliaro, M. J. Bearpark, J. J. Heyd, E. N. Brothers, K. N. Kudin, 
 V. N. Staroverov, T. A. Keith, R. Kobayashi, J. Normand, 
 K. Raghavachari, A. P. Rendell, J. C. Burant, S. S. Iyengar, 
 J. Tomasi, M. Cossi, J. M. Millam, M. Klene, C. Adamo, R. Cammi, 
 J. W. Ochterski, R. L. Martin, K. Morokuma, O. Farkas, 
 J. B. Foresman, and D. J. Fox, Gaussian, Inc., Wallingford CT, 2019.
 
 ******************************************
 Gaussian 16:  ES64L-G16RevC.01  3-Jul-2019
                17-Feb-2026 
 ******************************************
 %NProcShared=16
 Will use up to   16 processors via shared memory.
 %Mem=16GB
 %chk=prod_5l_42.chk
 ------------------------------------------------------
 #N OPT FREQ=NORAMAN Integral(Ultrafine) wB97XD def2SVP
 ------------------------------------------------------
 1/18=20,19=15,26=4,38=1/1,3;
 2/9=110,12=2,17=6,18=5,40=1/2;
 3/5=43,7=101,11=2,25=1,30=1,71=1,74=-58,75=-5/1,2,3;
 4//1;
 5/5=2,38=5/2;
 6/7=2,8=2,9=2,10=2,28=1/1;
 7//1,2,3,16;
 1/18=20,19=15,26=4/3(2);
 2/9=110/2;
 99//99;
 2/9=110/2;
 3/5=43,7=101,11=2,25=1,30=1,71=1,74=-58,75=-5/1,2,3;
 4/5=5,16=3,69=1/1;
 5/5=2,38=5/2;
 7//1,2,3,16;
 1/18=20,19=15,26=4/3(-5);
 2/9=110/2;
 6/7=2,8=2,9=2,10=2,19=2,28=1/1;
 99/9=1/99;
 ----------
 prod_5l_42
 ----------
 Symbolic Z-matrix:
 Charge =  0 Multiplicity = 1
 O                     0.4349    1.80922   1.40408 
 S                     0.00981   1.66221  -0.02818 
 N                     1.09677   0.78113  -1.00783 
 C                     2.06028  -0.06224  -0.45715 
 C                     2.07677  -0.42748   0.89363 
 C                     3.02256  -1.29583   1.38339 
 C                     3.98079  -1.82352   0.54134 
 C                     3.99009  -1.47418  -0.79443 
 C                     3.04518  -0.60623  -1.28922 
 C                    -1.34951   0.48824  -0.00927 
 C                    -2.25329   0.53214   1.02464 
 C                    -3.30716  -0.35866   1.0575 
 C                    -3.46939  -1.2982    0.04961 
 C                    -4.5916   -2.27396   0.09694 
 C                    -2.54211  -1.33484  -0.98174 
 C                    -1.48944  -0.44307  -1.01007 
 O                    -0.42074   2.8506   -0.83605 
 H                     1.40517   1.43783  -1.69647 
 H                     1.35437   0.01326   1.55577 
 H                     3.0214   -1.55792   2.42866 
 H                     4.72315  -2.50265   0.92694 
 H                     4.73955  -1.88396  -1.45138 
 H                     3.04366  -0.33951  -2.33138 
 H                    -2.123     1.26459   1.8048 
 H                    -4.013    -0.3295    1.86956 
 H                    -4.88144  -2.58918  -0.90581 
 H                    -4.30772  -3.16284   0.66095 
 H                    -5.4705   -1.83868   0.57333 
 H                    -2.64993  -2.06808  -1.76226 
 H                    -0.76696  -0.47008  -1.80773 
 

 GradGradGradGradGradGradGradGradGradGradGradGradGradGradGradGradGradGrad
 Berny optimization.
 Initialization pass.
                           ----------------------------
                           !    Initial Parameters    !
                           ! (Angstroms and Degrees)  !
 --------------------------                            --------------------------
 ! Name  Definition              Value          Derivative Info.                !
 --------------------------------------------------------------------------------
 ! R1    R(1,2)                  1.5012         estimate D2E/DX2                !
 ! R2    R(2,3)                  1.7081         estimate D2E/DX2                !
 ! R3    R(2,10)                 1.7962         estimate D2E/DX2                !
 ! R4    R(2,17)                 1.5001         estimate D2E/DX2                !
 ! R5    R(3,4)                  1.3939         estimate D2E/DX2                !
 ! R6    R(3,18)                 1.0003         estimate D2E/DX2                !
 ! R7    R(4,5)                  1.3994         estimate D2E/DX2                !
 ! R8    R(4,9)                  1.3994         estimate D2E/DX2                !
 ! R9    R(5,6)                  1.3742         estimate D2E/DX2                !
 ! R10   R(5,19)                 1.0745         estimate D2E/DX2                !
 ! R11   R(6,7)                  1.3805         estimate D2E/DX2                !
 ! R12   R(6,20)                 1.0776         estimate D2E/DX2                !
 ! R13   R(7,8)                  1.3807         estimate D2E/DX2                !
 ! R14   R(7,21)                 1.0775         estimate D2E/DX2                !
 ! R15   R(8,9)                  1.3751         estimate D2E/DX2                !
 ! R16   R(8,22)                 1.0776         estimate D2E/DX2                !
 ! R17   R(9,23)                 1.0758         estimate D2E/DX2                !
 ! R18   R(10,11)                1.3739         estimate D2E/DX2                !
 ! R19   R(10,16)                1.3742         estimate D2E/DX2                !
 ! R20   R(11,12)                1.3803         estimate D2E/DX2                !
 ! R21   R(11,24)                1.078          estimate D2E/DX2                !
 ! R22   R(12,13)                1.3874         estimate D2E/DX2                !
 ! R23   R(12,25)                1.0763         estimate D2E/DX2                !
 ! R24   R(13,14)                1.4879         estimate D2E/DX2                !
 ! R25   R(13,15)                1.3874         estimate D2E/DX2                !
 ! R26   R(14,26)                1.0904         estimate D2E/DX2                !
 ! R27   R(14,27)                1.0903         estimate D2E/DX2                !
 ! R28   R(14,28)                1.0904         estimate D2E/DX2                !
 ! R29   R(15,16)                1.3799         estimate D2E/DX2                !
 ! R30   R(15,29)                1.0763         estimate D2E/DX2                !
 ! R31   R(16,30)                1.0766         estimate D2E/DX2                !
 ! A1    A(1,2,3)              114.6776         estimate D2E/DX2                !
 ! A2    A(1,2,10)             105.5602         estimate D2E/DX2                !
 ! A3    A(1,2,17)             121.1645         estimate D2E/DX2                !
 ! A4    A(3,2,10)              98.655          estimate D2E/DX2                !
 ! A5    A(3,2,17)             106.4045         estimate D2E/DX2                !
 ! A6    A(10,2,17)            107.8328         estimate D2E/DX2                !
 ! A7    A(2,3,4)              121.6956         estimate D2E/DX2                !
 ! A8    A(2,3,18)             104.6194         estimate D2E/DX2                !
 ! A9    A(4,3,18)             117.135          estimate D2E/DX2                !
 ! A10   A(3,4,5)              123.1899         estimate D2E/DX2                !
 ! A11   A(3,4,9)              119.1306         estimate D2E/DX2                !
 ! A12   A(5,4,9)              117.6578         estimate D2E/DX2                !
 ! A13   A(4,5,6)              121.1348         estimate D2E/DX2                !
 ! A14   A(4,5,19)             118.6755         estimate D2E/DX2                !
 ! A15   A(6,5,19)             120.1516         estimate D2E/DX2                !
 ! A16   A(5,6,7)              120.1249         estimate D2E/DX2                !
 ! A17   A(5,6,20)             119.91           estimate D2E/DX2                !
 ! A18   A(7,6,20)             119.9626         estimate D2E/DX2                !
 ! A19   A(6,7,8)              119.8725         estimate D2E/DX2                !
 ! A20   A(6,7,21)             120.0577         estimate D2E/DX2                !
 ! A21   A(8,7,21)             120.069          estimate D2E/DX2                !
 ! A22   A(7,8,9)              120.2093         estimate D2E/DX2                !
 ! A23   A(7,8,22)             119.8856         estimate D2E/DX2                !
 ! A24   A(9,8,22)             119.9051         estimate D2E/DX2                !
 ! A25   A(4,9,8)              120.9993         estimate D2E/DX2                !
 ! A26   A(4,9,23)             118.5974         estimate D2E/DX2                !
 ! A27   A(8,9,23)             120.4003         estimate D2E/DX2                !
 ! A28   A(2,10,11)            119.0025         estimate D2E/DX2                !
 ! A29   A(2,10,16)            120.8187         estimate D2E/DX2                !
 ! A30   A(11,10,16)           120.1788         estimate D2E/DX2                !
 ! A31   A(10,11,12)           119.9688         estimate D2E/DX2                !
 ! A32   A(10,11,24)           119.1307         estimate D2E/DX2                !
 ! A33   A(12,11,24)           120.8999         estimate D2E/DX2                !
 ! A34   A(11,12,13)           120.5984         estimate D2E/DX2                !
 ! A35   A(11,12,25)           120.0773         estimate D2E/DX2                !
 ! A36   A(13,12,25)           119.3243         estimate D2E/DX2                !
 ! A37   A(12,13,14)           120.6105         estimate D2E/DX2                !
 ! A38   A(12,13,15)           118.6696         estimate D2E/DX2                !
 ! A39   A(14,13,15)           120.6929         estimate D2E/DX2                !
 ! A40   A(13,14,26)           111.1515         estimate D2E/DX2                !
 ! A41   A(13,14,27)           110.7768         estimate D2E/DX2                !
 ! A42   A(13,14,28)           111.1041         estimate D2E/DX2                !
 ! A43   A(26,14,27)           108.014          estimate D2E/DX2                !
 ! A44   A(26,14,28)           107.6347         estimate D2E/DX2                !
 ! A45   A(27,14,28)           108.0179         estimate D2E/DX2                !
 ! A46   A(13,15,16)           120.5342         estimate D2E/DX2                !
 ! A47   A(13,15,29)           119.3477         estimate D2E/DX2                !
 ! A48   A(16,15,29)           120.118          estimate D2E/DX2                !
 ! A49   A(10,16,15)           120.0453         estimate D2E/DX2                !
 ! A50   A(10,16,30)           119.2266         estimate D2E/DX2                !
 ! A51   A(15,16,30)           120.7271         estimate D2E/DX2                !
 ! D1    D(1,2,3,4)             18.598          estimate D2E/DX2                !
 ! D2    D(1,2,3,18)          -117.0489         estimate D2E/DX2                !
 ! D3    D(10,2,3,4)           -93.0284         estimate D2E/DX2                !
 ! D4    D(10,2,3,18)          131.3248         estimate D2E/DX2                !
 ! D5    D(17,2,3,4)           155.3962         estimate D2E/DX2                !
 ! D6    D(17,2,3,18)           19.7493         estimate D2E/DX2                !
 ! D7    D(1,2,10,11)           37.8966         estimate D2E/DX2                !
 ! D8    D(1,2,10,16)         -142.0715         estimate D2E/DX2                !
 ! D9    D(3,2,10,11)          156.6327         estimate D2E/DX2                !
 ! D10   D(3,2,10,16)          -23.3354         estimate D2E/DX2                !
 ! D11   D(17,2,10,11)         -92.9378         estimate D2E/DX2                !
 ! D12   D(17,2,10,16)          87.0941         estimate D2E/DX2                !
 ! D13   D(2,3,4,5)             10.9393         estimate D2E/DX2                !
 ! D14   D(2,3,4,9)           -170.795          estimate D2E/DX2                !
 ! D15   D(18,3,4,5)           141.4657         estimate D2E/DX2                !
 ! D16   D(18,3,4,9)           -40.2687         estimate D2E/DX2                !
 ! D17   D(3,4,5,6)            177.9257         estimate D2E/DX2                !
 ! D18   D(3,4,5,19)            -4.3141         estimate D2E/DX2                !
 ! D19   D(9,4,5,6)             -0.364          estimate D2E/DX2                !
 ! D20   D(9,4,5,19)           177.3963         estimate D2E/DX2                !
 ! D21   D(3,4,9,8)           -178.0371         estimate D2E/DX2                !
 ! D22   D(3,4,9,23)             1.3371         estimate D2E/DX2                !
 ! D23   D(5,4,9,8)              0.3243         estimate D2E/DX2                !
 ! D24   D(5,4,9,23)           179.6985         estimate D2E/DX2                !
 ! D25   D(4,5,6,7)              0.1118         estimate D2E/DX2                !
 ! D26   D(4,5,6,20)           179.5439         estimate D2E/DX2                !
 ! D27   D(19,5,6,7)          -177.6157         estimate D2E/DX2                !
 ! D28   D(19,5,6,20)            1.8164         estimate D2E/DX2                !
 ! D29   D(5,6,7,8)              0.1913         estimate D2E/DX2                !
 ! D30   D(5,6,7,21)           179.8693         estimate D2E/DX2                !
 ! D31   D(20,6,7,8)          -179.2404         estimate D2E/DX2                !
 ! D32   D(20,6,7,21)            0.4376         estimate D2E/DX2                !
 ! D33   D(6,7,8,9)             -0.2304         estimate D2E/DX2                !
 ! D34   D(6,7,8,22)           179.8404         estimate D2E/DX2                !
 ! D35   D(21,7,8,9)          -179.9083         estimate D2E/DX2                !
 ! D36   D(21,7,8,22)            0.1625         estimate D2E/DX2                !
 ! D37   D(7,8,9,4)             -0.0331         estimate D2E/DX2                !
 ! D38   D(7,8,9,23)          -179.3961         estimate D2E/DX2                !
 ! D39   D(22,8,9,4)           179.896          estimate D2E/DX2                !
 ! D40   D(22,8,9,23)            0.5331         estimate D2E/DX2                !
 ! D41   D(2,10,11,12)         179.8558         estimate D2E/DX2                !
 ! D42   D(2,10,11,24)          -0.4422         estimate D2E/DX2                !
 ! D43   D(16,10,11,12)         -0.1759         estimate D2E/DX2                !
 ! D44   D(16,10,11,24)        179.5261         estimate D2E/DX2                !
 ! D45   D(2,10,16,15)        -179.8056         estimate D2E/DX2                !
 ! D46   D(2,10,16,30)           0.5646         estimate D2E/DX2                !
 ! D47   D(11,10,16,15)          0.2266         estimate D2E/DX2                !
 ! D48   D(11,10,16,30)       -179.4031         estimate D2E/DX2                !
 ! D49   D(10,11,12,13)         -0.3473         estimate D2E/DX2                !
 ! D50   D(10,11,12,25)        179.6503         estimate D2E/DX2                !
 ! D51   D(24,11,12,13)        179.9561         estimate D2E/DX2                !
 ! D52   D(24,11,12,25)         -0.0463         estimate D2E/DX2                !
 ! D53   D(11,12,13,14)        178.9287         estimate D2E/DX2                !
 ! D54   D(11,12,13,15)          0.8033         estimate D2E/DX2                !
 ! D55   D(25,12,13,14)         -1.0689         estimate D2E/DX2                !
 ! D56   D(25,12,13,15)       -179.1943         estimate D2E/DX2                !
 ! D57   D(12,13,14,26)        152.3818         estimate D2E/DX2                !
 ! D58   D(12,13,14,27)        -87.5226         estimate D2E/DX2                !
 ! D59   D(12,13,14,28)         32.5464         estimate D2E/DX2                !
 ! D60   D(15,13,14,26)        -29.5309         estimate D2E/DX2                !
 ! D61   D(15,13,14,27)         90.5646         estimate D2E/DX2                !
 ! D62   D(15,13,14,28)       -149.3663         estimate D2E/DX2                !
 ! D63   D(12,13,15,16)         -0.752          estimate D2E/DX2                !
 ! D64   D(12,13,15,29)        179.1745         estimate D2E/DX2                !
 ! D65   D(14,13,15,16)       -178.8758         estimate D2E/DX2                !
 ! D66   D(14,13,15,29)          1.0506         estimate D2E/DX2                !
 ! D67   D(13,15,16,10)          0.2452         estimate D2E/DX2                !
 ! D68   D(13,15,16,30)        179.8693         estimate D2E/DX2                !
 ! D69   D(29,15,16,10)       -179.6807         estimate D2E/DX2                !
 ! D70   D(29,15,16,30)         -0.0566         estimate D2E/DX2                !
 --------------------------------------------------------------------------------
 Trust Radius=3.00D-01 FncErr=1.00D-07 GrdErr=1.00D-06 EigMax=2.50D+02 EigMin=1.00D-04
 Number of steps in this run=    162 maximum allowed number of steps=    180.
 GradGradGradGradGradGradGradGradGradGradGradGradGradGradGradGradGradGrad

                          Input orientation:                          
 ---------------------------------------------------------------------
 Center     Atomic      Atomic             Coordinates (Angstroms)
 Number     Number       Type             X           Y           Z
 ---------------------------------------------------------------------
      1          8           0        0.434900    1.809220    1.404080
      2         16           0        0.009810    1.662210   -0.028180
      3          7           0        1.096770    0.781130   -1.007830
      4          6           0        2.060280   -0.062240   -0.457150
      5          6           0        2.076770   -0.427480    0.893630
      6          6           0        3.022560   -1.295830    1.383390
      7          6           0        3.980790   -1.823520    0.541340
      8          6           0        3.990090   -1.474180   -0.794430
      9          6           0        3.045180   -0.606230   -1.289220
     10          6           0       -1.349510    0.488240   -0.009270
     11          6           0       -2.253290    0.532140    1.024640
     12          6           0       -3.307160   -0.358660    1.057500
     13          6           0       -3.469390   -1.298200    0.049610
     14          6           0       -4.591600   -2.273960    0.096940
     15          6           0       -2.542110   -1.334840   -0.981740
     16          6           0       -1.489440   -0.443070   -1.010070
     17          8           0       -0.420740    2.850600   -0.836050
     18          1           0        1.405170    1.437830   -1.696470
     19          1           0        1.354370    0.013260    1.555770
     20          1           0        3.021400   -1.557920    2.428660
     21          1           0        4.723150   -2.502650    0.926940
     22          1           0        4.739550   -1.883960   -1.451380
     23          1           0        3.043660   -0.339510   -2.331380
     24          1           0       -2.123000    1.264590    1.804800
     25          1           0       -4.013000   -0.329500    1.869560
     26          1           0       -4.881440   -2.589180   -0.905810
     27          1           0       -4.307720   -3.162840    0.660950
     28          1           0       -5.470500   -1.838680    0.573330
     29          1           0       -2.649930   -2.068080   -1.762260
     30          1           0       -0.766960   -0.470080   -1.807730
 ---------------------------------------------------------------------
                    Distance matrix (angstroms):
                    1          2          3          4          5
     1  O    0.000000
     2  S    1.501227   0.000000
     3  N    2.704136   1.708069   0.000000
     4  C    3.099742   2.713332   1.393870   0.000000
     5  C    2.821192   3.080400   2.456967   1.399385   0.000000
     6  C    4.041998   4.451875   3.706800   2.415640   1.374196
     7  C    5.149219   5.314447   4.183503   2.790600   2.387117
     8  C    5.315406   5.125106   3.674679   2.414850   2.757883
     9  C    4.461146   3.993684   2.408371   1.399390   2.394703
    10  C    2.631856   1.796194   2.658419   3.482857   3.659667
    11  C    3.000212   2.739911   3.926300   4.599552   4.437055
    12  C    4.338529   4.032977   4.995929   5.584930   5.386863
    13  C    5.170506   4.568907   5.127534   5.688730   5.677184
    14  C    6.606563   6.056572   6.550698   7.031801   6.965010
    15  C    4.943667   4.050170   4.209449   4.803821   5.066988
    16  C    3.821520   2.764790   2.861320   3.612653   4.042545
    17  O    2.614340   1.500099   2.571974   3.844953   4.469358
    18  H    3.269979   2.186451   1.000295   2.053118   3.261755
    19  H    2.023341   2.652504   2.688499   2.134445   1.074497
    20  H    4.367766   5.047274   4.580919   3.389500   2.127566
    21  H    6.099916   6.361909   5.260910   3.868098   3.363148
    22  H    6.350058   6.080400   4.535338   3.389048   3.835466
    23  H    5.037493   4.303006   2.607297   2.134632   3.367982
    24  H    2.645761   2.840211   4.302504   4.937279   4.618593
    25  H    4.957278   4.873533   5.968469   6.509204   6.168252
    26  H    7.276330   6.539792   6.863555   7.400959   7.505173
    27  H    6.911300   6.511303   6.895523   7.170446   6.949680
    28  H    6.990785   6.530838   7.245171   7.805785   7.684749
    29  H    5.880080   4.898603   4.767067   5.283255   5.664540
    30  H    4.117693   2.883892   2.383035   3.159697   3.922494
                    6          7          8          9         10
     6  C    0.000000
     7  C    1.380474   0.000000
     8  C    2.389733   1.380727   0.000000
     9  C    2.760236   2.389165   1.375140   0.000000
    10  C    4.923150   5.836052   5.742726   4.706319   0.000000
    11  C    5.595066   6.681801   6.805449   5.892675   1.373942
    12  C    6.407015   7.451607   7.610774   6.776475   2.384876
    13  C    6.627548   7.484847   7.509142   6.686622   2.772855
    14  C    7.783773   8.595712   8.664848   7.938713   4.260537
    15  C    6.046562   6.716160   6.536370   5.642980   2.385710
    16  C    5.178223   5.851148   5.579869   4.546133   1.374234
    17  O    5.828817   6.566435   6.177449   4.916059   2.669630
    18  H    4.424295   4.719959   3.996910   2.652106   3.366991
    19  H    2.127508   3.361683   3.831832   3.366983   3.160051
    20  H    1.077628   2.133764   3.366553   3.837826   5.406952
    21  H    2.134659   1.077499   2.135004   3.365020   6.833675
    22  H    3.365988   2.133144   1.077587   2.128328   6.692060
    23  H    3.835950   3.366455   2.131999   1.075751   5.037589
    24  H    5.762823   6.956221   7.185174   6.307378   2.119400
    25  H    7.118234   8.239960   8.512143   7.737724   3.360488
    26  H    8.329850   9.012192   8.942017   8.179878   4.769573
    27  H    7.598727   8.396873   8.592052   8.025245   4.746639
    28  H    8.548857   9.451356   9.565897   8.803683   4.768285
    29  H    6.532123   7.023733   6.736414   5.898733   3.361374
    30  H    5.022507   5.467272   4.966339   3.849649   2.119481
                   11         12         13         14         15
    11  C    0.000000
    12  C    1.380307   0.000000
    13  C    2.404106   1.387406   0.000000
    14  C    3.768623   2.498166   1.487852   0.000000
    15  C    2.755829   2.386782   1.387398   2.499181   0.000000
    16  C    2.382131   2.754283   2.402992   3.768425   1.379917
    17  O    3.492229   4.713417   5.224098   6.672905   4.694608
    18  H    4.648553   5.746110   5.856278   7.277016   4.876429
    19  H    3.683279   4.702814   5.220834   6.535604   4.841372
    20  H    5.844825   6.585513   6.917925   7.994210   6.529413
    21  H    7.608562   8.312618   8.326951   9.354452   7.602029
    22  H    7.801796   8.565662   8.365571   9.466771   7.317422
    23  H    6.330902   7.198457   7.000573   8.242332   5.832070
    24  H    1.078011   2.143743   3.385462   4.640270   3.833731
    25  H    2.133751   1.076337   2.132161   2.694046   3.362163
    26  H    4.514028   3.362761   2.138537   1.090357   2.655485
    27  H    4.243328   3.003631   2.133874   1.090322   3.026118
    28  H    4.021804   2.665506   2.137953   1.090358   3.353739
    29  H    3.832138   3.362308   2.132394   2.696126   1.076326
    30  H    3.352006   3.830741   3.382103   4.637847   2.140380
                   16         17         18         19         20
    16  C    0.000000
    17  O    3.467083   0.000000
    18  H    3.519616   2.463775   0.000000
    19  H    3.857334   4.113674   3.550922   0.000000
    20  H    5.780608   6.476242   5.348216   2.451435   0.000000
    21  H    6.825698   7.630532   5.780887   4.251342   2.458380
    22  H    6.408684   7.030169   4.713008   4.909362   4.255943
    23  H    4.722878   4.941142   2.499339   4.253009   4.913553
    24  H    3.352759   3.519546   4.973619   3.704044   5.900900
    25  H    3.830603   5.507966   6.722841   5.387449   7.162708
    26  H    4.015261   7.035191   7.507557   7.191481   8.639275
    27  H    4.258187   7.315127   7.704590   6.553440   7.708214
    28  H    4.505965   7.033902   7.947474   7.139588   8.696749
    29  H    2.133819   5.479103   5.360930   5.601403   7.070223
    30  H    1.076554   3.477204   2.893207   4.005845   5.786369
                   21         22         23         24         25
    21  H    0.000000
    22  H    2.457530   0.000000
    23  H    4.256349   2.456780   0.000000
    24  H    7.863365   8.222571   6.809956   0.000000
    25  H    9.051598   9.489580   8.212457   2.473341   0.000000
    26  H    9.778272   9.662217   8.360650   5.459665   3.682801
    27  H    9.058875   9.378196   8.424252   5.067892   3.094417
    28  H   10.221370  10.408968   9.120075   4.727849   2.466200
    29  H    7.860214   7.398308   5.977359   4.910016   4.250969
    30  H    6.461507   5.696288   3.848647   4.230638   4.907036
                   26         27         28         29         30
    26  H    0.000000
    27  H    1.764363   0.000000
    28  H    1.760141   1.764408   0.000000
    29  H    2.446362   3.133483   3.669226   0.000000
    30  H    4.715187   5.087467   5.446632   2.470070   0.000000
 Stoichiometry    C13H13NO2S
 Framework group  C1[X(C13H13NO2S)]
 Deg. of freedom    84
 Full point group                 C1      NOp   1
 Largest Abelian subgroup         C1      NOp   1
 Largest concise Abelian subgroup C1      NOp   1
                         Standard orientation:                         
 ---------------------------------------------------------------------
 Center     Atomic      Atomic             Coordinates (Angstroms)
 Number     Number       Type             X           Y           Z
 ---------------------------------------------------------------------
      1          8           0        0.444888    1.841582    1.436124
      2         16           0        0.060492    1.715122   -0.009535
      3          7           0        1.162092    0.825938   -0.965217
      4          6           0        2.095194   -0.038124   -0.394612
      5          6           0        2.065517   -0.416435    0.952339
      6          6           0        2.982332   -1.304605    1.461277
      7          6           0        3.956782   -1.839690    0.642837
      8          6           0        4.011533   -1.477836   -0.688504
      9          6           0        3.095741   -0.590032   -1.202447
     10          6           0       -1.317273    0.563180   -0.042774
     11          6           0       -2.250725    0.611851    0.964209
     12          6           0       -3.319131   -0.262048    0.956823
     13          6           0       -3.466092   -1.189195   -0.064793
     14          6           0       -4.604582   -2.147071   -0.060597
     15          6           0       -2.509115   -1.231012   -1.068446
     16          6           0       -1.442028   -0.356167   -1.056558
     17          8           0       -0.326789    2.917968   -0.817913
     18          1           0        1.501325    1.484091   -1.637783
     19          1           0        1.330755    0.029612    1.597096
     20          1           0        2.945781   -1.576588    2.503376
     21          1           0        4.676403   -2.534388    1.043514
     22          1           0        4.773677   -1.893416   -1.326959
     23          1           0        3.129594   -0.313406   -2.241472
     24          1           0       -2.132174    1.334630    1.755185
     25          1           0       -4.048363   -0.229205    1.747800
     26          1           0       -4.869311   -2.447991   -1.074621
     27          1           0       -4.351842   -3.045762    0.502679
     28          1           0       -5.490292   -1.702181    0.393796
     29          1           0       -2.605211   -1.954941   -1.859122
     30          1           0       -0.696562   -0.387266   -1.832626
 ---------------------------------------------------------------------
 Rotational constants (GHZ):           0.6890181           0.2777536           0.2361793
 Standard basis: def2SVP (5D, 7F)
 There are   324 symmetry adapted cartesian basis functions of A   symmetry.
 There are   307 symmetry adapted basis functions of A   symmetry.
   307 basis functions,   528 primitive gaussians,   324 cartesian basis functions
    65 alpha electrons       65 beta electrons
       nuclear repulsion energy      1312.2517049179 Hartrees.
 NAtoms=   30 NActive=   30 NUniq=   30 SFac= 1.00D+00 NAtFMM=   60 NAOKFM=F Big=F
 Integral buffers will be    131072 words long.
 Raffenetti 2 integral format.
 Two-electron integral symmetry is turned on.
 Nuclear repulsion after empirical dispersion term =     1312.2326942262 Hartrees.
 One-electron integrals computed using PRISM.
   1 Symmetry operations used in ECPInt.
 ECPInt:  NShTT=   10296 NPrTT=   38220 LenC2=    9440 LenP2D=   24729.
 LDataN:  DoStor=T MaxTD1= 4 Len=   56
 NBasis=   307 RedAO= T EigKep=  2.37D-04  NBF=   307
 NBsUse=   307 1.00D-06 EigRej= -1.00D+00 NBFU=   307
 ExpMin= 1.22D-01 ExpMax= 9.18D+03 ExpMxC= 1.38D+03 IAcc=3 IRadAn=         5 AccDes= 0.00D+00
 Harris functional with IExCor= 4639 and IRadAn=       5 diagonalized for initial guess.
 HarFok:  IExCor= 4639 AccDes= 0.00D+00 IRadAn=         5 IDoV= 1 UseB2=F ITyADJ=14
 ICtDFT=  3500011 ScaDFX=  1.000000  1.000000  1.000000  1.000000
 FoFCou: FMM=F IPFlag=           0 FMFlag=      100000 FMFlg1=           0
         NFxFlg=           0 DoJE=T BraDBF=F KetDBF=T FulRan=T
         wScrn=  0.000000 ICntrl=       500 IOpCl=  0 I1Cent=   200000004 NGrid=           0
         NMat0=    1 NMatS0=      1 NMatT0=    0 NMatD0=    1 NMtDS0=    0 NMtDT0=    0
 Petite list used in FoFCou.
 Requested convergence on RMS density matrix=1.00D-08 within 128 cycles.
 Requested convergence on MAX density matrix=1.00D-06.
 Requested convergence on             energy=1.00D-06.
 No special actions if energy rises.
 Integral accuracy reduced to 1.0D-05 until final iterations.
 Initial convergence to 1.0D-05 achieved.  Increase integral accuracy.
 SCF Done:  E(RwB97XD) =  -1105.64419857     A.U. after   15 cycles
            NFock= 15  Conv=0.99D-08     -V/T= 2.0071

 **********************************************************************

            Population analysis using the SCF Density.

 **********************************************************************

 Orbital symmetries:
       Occupied  (A) (A) (A) (A) (A) (A) (A) (A) (A) (A) (A) (A)
                 (A) (A) (A) (A) (A) (A) (A) (A) (A) (A) (A) (A)
                 (A) (A) (A) (A) (A) (A) (A) (A) (A) (A) (A) (A)
                 (A) (A) (A) (A) (A) (A) (A) (A) (A) (A) (A) (A)
                 (A) (A) (A) (A) (A) (A) (A) (A) (A) (A) (A) (A)
                 (A) (A) (A) (A) (A)
       Virtual   (A) (A) (A) (A) (A) (A) (A) (A) (A) (A) (A) (A)
                 (A) (A) (A) (A) (A) (A) (A) (A) (A) (A) (A) (A)
                 (A) (A) (A) (A) (A) (A) (A) (A) (A) (A) (A) (A)
                 (A) (A) (A) (A) (A) (A) (A) (A) (A) (A) (A) (A)
                 (A) (A) (A) (A) (A) (A) (A) (A) (A) (A) (A) (A)
                 (A) (A) (A) (A) (A) (A) (A) (A) (A) (A) (A) (A)
                 (A) (A) (A) (A) (A) (A) (A) (A) (A) (A) (A) (A)
                 (A) (A) (A) (A) (A) (A) (A) (A) (A) (A) (A) (A)
                 (A) (A) (A) (A) (A) (A) (A) (A) (A) (A) (A) (A)
                 (A) (A) (A) (A) (A) (A) (A) (A) (A) (A) (A) (A)
                 (A) (A) (A) (A) (A) (A) (A) (A) (A) (A) (A) (A)
                 (A) (A) (A) (A) (A) (A) (A) (A) (A) (A) (A) (A)
                 (A) (A) (A) (A) (A) (A) (A) (A) (A) (A) (A) (A)
                 (A) (A) (A) (A) (A) (A) (A) (A) (A) (A) (A) (A)
                 (A) (A) (A) (A) (A) (A) (A) (A) (A) (A) (A) (A)
                 (A) (A) (A) (A) (A) (A) (A) (A) (A) (A) (A) (A)
                 (A) (A) (A) (A) (A) (A) (A) (A) (A) (A) (A) (A)
                 (A) (A) (A) (A) (A) (A) (A) (A) (A) (A) (A) (A)
                 (A) (A) (A) (A) (A) (A) (A) (A) (A) (A) (A) (A)
                 (A) (A) (A) (A) (A) (A) (A) (A) (A) (A) (A) (A)
                 (A) (A)
 The electronic state is 1-A.
 Alpha  occ. eigenvalues --  -89.25622 -19.25867 -19.25438 -14.50223 -10.35675
 Alpha  occ. eigenvalues --  -10.33352 -10.32525 -10.32172 -10.32098 -10.31361
 Alpha  occ. eigenvalues --  -10.31351 -10.30715 -10.30707 -10.30514 -10.30164
 Alpha  occ. eigenvalues --  -10.29719 -10.29579  -8.27383  -6.22830  -6.22702
 Alpha  occ. eigenvalues --   -6.22579  -1.20144  -1.08562  -1.05544  -0.98584
 Alpha  occ. eigenvalues --   -0.95491  -0.90189  -0.86357  -0.85195  -0.84747
 Alpha  occ. eigenvalues --   -0.81456  -0.75969  -0.72565  -0.71758  -0.70853
 Alpha  occ. eigenvalues --   -0.68070  -0.64803  -0.63517  -0.60325  -0.58889
 Alpha  occ. eigenvalues --   -0.57738  -0.56429  -0.54954  -0.54123  -0.53578
 Alpha  occ. eigenvalues --   -0.52945  -0.52878  -0.52612  -0.51589  -0.49640
 Alpha  occ. eigenvalues --   -0.48488  -0.47479  -0.46497  -0.45985  -0.44271
 Alpha  occ. eigenvalues --   -0.44133  -0.42808  -0.41291  -0.40815  -0.38836
 Alpha  occ. eigenvalues --   -0.38446  -0.35266  -0.34261  -0.33860  -0.31062
 Alpha virt. eigenvalues --    0.02927   0.04366   0.05781   0.06111   0.11025
 Alpha virt. eigenvalues --    0.13208   0.13742   0.14518   0.15326   0.16050
 Alpha virt. eigenvalues --    0.17166   0.17330   0.18845   0.19257   0.20584
 Alpha virt. eigenvalues --    0.20791   0.21405   0.22794   0.23680   0.23988
 Alpha virt. eigenvalues --    0.24745   0.25725   0.27002   0.29776   0.32328
 Alpha virt. eigenvalues --    0.35153   0.36466   0.37107   0.37225   0.37592
 Alpha virt. eigenvalues --    0.38340   0.39061   0.39728   0.41740   0.43479
 Alpha virt. eigenvalues --    0.45594   0.47285   0.47964   0.48220   0.48933
 Alpha virt. eigenvalues --    0.49418   0.51363   0.51705   0.52350   0.53859
 Alpha virt. eigenvalues --    0.54732   0.55000   0.55836   0.56501   0.57313
 Alpha virt. eigenvalues --    0.58243   0.58486   0.59668   0.60914   0.62165
 Alpha virt. eigenvalues --    0.62470   0.63428   0.63958   0.64799   0.66001
 Alpha virt. eigenvalues --    0.68818   0.69773   0.70518   0.71165   0.71686
 Alpha virt. eigenvalues --    0.72055   0.73226   0.73280   0.73847   0.74375
 Alpha virt. eigenvalues --    0.74807   0.75610   0.76194   0.76445   0.77107
 Alpha virt. eigenvalues --    0.77430   0.78082   0.79416   0.79994   0.80806
 Alpha virt. eigenvalues --    0.81298   0.82139   0.82985   0.83334   0.83673
 Alpha virt. eigenvalues --    0.84656   0.85810   0.88043   0.89456   0.89869
 Alpha virt. eigenvalues --    0.90591   0.91665   0.93455   0.95972   0.96775
 Alpha virt. eigenvalues --    0.98122   0.98908   1.02028   1.03813   1.05579
 Alpha virt. eigenvalues --    1.09066   1.10094   1.11473   1.12384   1.13110
 Alpha virt. eigenvalues --    1.15447   1.17693   1.18740   1.20868   1.21606
 Alpha virt. eigenvalues --    1.23923   1.24950   1.27995   1.28358   1.29353
 Alpha virt. eigenvalues --    1.30503   1.31221   1.32103   1.32288   1.32859
 Alpha virt. eigenvalues --    1.34761   1.36306   1.36591   1.37889   1.38143
 Alpha virt. eigenvalues --    1.38522   1.40940   1.41699   1.42922   1.48614
 Alpha virt. eigenvalues --    1.54844   1.57270   1.60032   1.61001   1.61781
 Alpha virt. eigenvalues --    1.62866   1.64527   1.69416   1.74294   1.75062
 Alpha virt. eigenvalues --    1.76258   1.77215   1.78779   1.80919   1.81749
 Alpha virt. eigenvalues --    1.82233   1.82362   1.82944   1.83753   1.84142
 Alpha virt. eigenvalues --    1.85271   1.85717   1.85945   1.87648   1.87924
 Alpha virt. eigenvalues --    1.88361   1.88502   1.89294   1.92314   1.93040
 Alpha virt. eigenvalues --    1.93481   1.95256   1.96164   2.00464   2.02085
 Alpha virt. eigenvalues --    2.04013   2.04716   2.05917   2.06829   2.08618
 Alpha virt. eigenvalues --    2.09999   2.11092   2.13243   2.14068   2.16770
 Alpha virt. eigenvalues --    2.17516   2.19738   2.21259   2.21510   2.22739
 Alpha virt. eigenvalues --    2.24721   2.26717   2.29118   2.30994   2.31444
 Alpha virt. eigenvalues --    2.33072   2.35115   2.35633   2.38469   2.38783
 Alpha virt. eigenvalues --    2.40485   2.43253   2.43744   2.44295   2.45562
 Alpha virt. eigenvalues --    2.46118   2.52042   2.55370   2.56852   2.57096
 Alpha virt. eigenvalues --    2.59872   2.62323   2.68604   2.70784   2.71805
 Alpha virt. eigenvalues --    2.72552   2.72983   2.73403   2.73796   2.73872
 Alpha virt. eigenvalues --    2.74731   2.75039   2.77073   2.78691   2.81390
 Alpha virt. eigenvalues --    2.82891   2.83102   2.84247   2.85272   2.85877
 Alpha virt. eigenvalues --    2.89033   2.94218   2.95077   2.96368   2.99731
 Alpha virt. eigenvalues --    3.00941   3.01444   3.03231   3.03558   3.04623
 Alpha virt. eigenvalues --    3.06702   3.08922   3.22980   3.23549   3.25305
 Alpha virt. eigenvalues --    3.31410   3.33622   3.34614   3.45578   3.47224
 Alpha virt. eigenvalues --    3.69673   3.78512
          Condensed to atoms (all electrons):
               1          2          3          4          5          6
     1  O    8.174023   0.386976  -0.039014   0.001938  -0.019356   0.001340
     2  S    0.386976  13.961539   0.191086  -0.029510  -0.000514  -0.001403
     3  N   -0.039014   0.191086   6.871966   0.248671  -0.076568   0.007692
     4  C    0.001938  -0.029510   0.248671   5.190242   0.259743   0.106907
     5  C   -0.019356  -0.000514  -0.076568   0.259743   5.193076   0.265138
     6  C    0.001340  -0.001403   0.007692   0.106907   0.265138   5.049676
     7  C   -0.000030   0.000082  -0.000410  -0.163148   0.086425   0.274838
     8  C   -0.000004  -0.000195   0.006876   0.109941  -0.146479   0.096610
     9  C    0.000310   0.001181  -0.071493   0.263486   0.073880  -0.146763
    10  C   -0.065489   0.243793  -0.079213   0.005228   0.000711  -0.000497
    11  C    0.003426  -0.036737   0.008437  -0.000837  -0.000408  -0.000005
    12  C    0.001035   0.000995   0.000000  -0.000028   0.000006   0.000001
    13  C   -0.000029   0.000725  -0.000062   0.000008  -0.000017   0.000001
    14  C    0.000000   0.000010   0.000000  -0.000000  -0.000000   0.000000
    15  C   -0.000028   0.002537   0.000497  -0.000307  -0.000153  -0.000010
    16  C    0.003071  -0.043102  -0.023337   0.001366   0.000733   0.000041
    17  O   -0.027866   0.419780  -0.044893   0.000578   0.000151   0.000006
    18  H    0.001017  -0.002401   0.318107  -0.002076   0.004013  -0.000280
    19  H    0.033703  -0.003194  -0.011369  -0.072373   0.440277  -0.046787
    20  H    0.000009  -0.000014  -0.000107   0.015238  -0.065753   0.456257
    21  H    0.000000   0.000000   0.000011  -0.001436   0.014798  -0.067767
    22  H   -0.000000   0.000003  -0.000116   0.015547  -0.001879   0.013811
    23  H    0.000014  -0.000137  -0.009477  -0.082682   0.016725  -0.002224
    24  H    0.011478  -0.009615   0.000584  -0.000131   0.000040   0.000010
    25  H   -0.000004  -0.000169   0.000001   0.000000  -0.000000   0.000000
    26  H    0.000000  -0.000000   0.000000  -0.000000  -0.000000   0.000000
    27  H   -0.000000  -0.000000  -0.000000   0.000000   0.000000  -0.000000
    28  H    0.000000  -0.000000   0.000000  -0.000000   0.000000   0.000000
    29  H    0.000001  -0.000161  -0.000012   0.000007   0.000003   0.000000
    30  H    0.000282  -0.015967   0.020974  -0.001437  -0.000478   0.000045
               7          8          9         10         11         12
     1  O   -0.000030  -0.000004   0.000310  -0.065489   0.003426   0.001035
     2  S    0.000082  -0.000195   0.001181   0.243793  -0.036737   0.000995
     3  N   -0.000410   0.006876  -0.071493  -0.079213   0.008437   0.000000
     4  C   -0.163148   0.109941   0.263486   0.005228  -0.000837  -0.000028
     5  C    0.086425  -0.146479   0.073880   0.000711  -0.000408   0.000006
     6  C    0.274838   0.096610  -0.146763  -0.000497  -0.000005   0.000001
     7  C    5.104728   0.284981   0.085724  -0.000004   0.000000   0.000000
     8  C    0.284981   5.010715   0.308135  -0.000006   0.000000  -0.000000
     9  C    0.085724   0.308135   5.142825  -0.000760  -0.000016   0.000000
    10  C   -0.000004  -0.000006  -0.000760   5.706530   0.197025   0.096812
    11  C    0.000000   0.000000  -0.000016   0.197025   5.072966   0.297844
    12  C    0.000000  -0.000000   0.000000   0.096812   0.297844   5.080847
    13  C   -0.000000   0.000000  -0.000001  -0.188584   0.100163   0.282531
    14  C   -0.000000   0.000000  -0.000000   0.000588   0.009679  -0.077086
    15  C    0.000002   0.000001  -0.000005   0.099126  -0.126678   0.053845
    16  C   -0.000010  -0.000014  -0.000339   0.240890   0.053403  -0.122749
    17  O   -0.000000   0.000000  -0.000071  -0.040753  -0.002833  -0.000123
    18  H    0.000007   0.000244  -0.014361   0.003260  -0.000497   0.000003
    19  H    0.013692  -0.002140   0.013424  -0.003662   0.000586   0.000157
    20  H   -0.073842   0.014012  -0.001892   0.000005  -0.000001  -0.000000
    21  H    0.451770  -0.070312   0.014438   0.000000  -0.000000  -0.000000
    22  H   -0.069153   0.453642  -0.068970   0.000000   0.000000   0.000000
    23  H    0.014877  -0.059821   0.452892  -0.000019   0.000001  -0.000000
    24  H   -0.000000   0.000000  -0.000001  -0.077025   0.451610  -0.050272
    25  H   -0.000000  -0.000000   0.000000   0.016613  -0.067168   0.460832
    26  H    0.000000   0.000000   0.000000  -0.000003  -0.000562   0.007584
    27  H    0.000000  -0.000000  -0.000000   0.000127  -0.000187  -0.003712
    28  H    0.000000  -0.000000   0.000000  -0.000006   0.000789  -0.008455
    29  H   -0.000000  -0.000000   0.000001   0.016803  -0.001969   0.014534
    30  H    0.000001   0.000062  -0.000427  -0.071934   0.013540  -0.001836
              13         14         15         16         17         18
     1  O   -0.000029   0.000000  -0.000028   0.003071  -0.027866   0.001017
     2  S    0.000725   0.000010   0.002537  -0.043102   0.419780  -0.002401
     3  N   -0.000062   0.000000   0.000497  -0.023337  -0.044893   0.318107
     4  C    0.000008  -0.000000  -0.000307   0.001366   0.000578  -0.002076
     5  C   -0.000017  -0.000000  -0.000153   0.000733   0.000151   0.004013
     6  C    0.000001   0.000000  -0.000010   0.000041   0.000006  -0.000280
     7  C   -0.000000  -0.000000   0.000002  -0.000010  -0.000000   0.000007
     8  C    0.000000   0.000000   0.000001  -0.000014   0.000000   0.000244
     9  C   -0.000001  -0.000000  -0.000005  -0.000339  -0.000071  -0.014361
    10  C   -0.188584   0.000588   0.099126   0.240890  -0.040753   0.003260
    11  C    0.100163   0.009679  -0.126678   0.053403  -0.002833  -0.000497
    12  C    0.282531  -0.077086   0.053845  -0.122749  -0.000123   0.000003
    13  C    5.259304   0.407716   0.288760   0.095466  -0.000014   0.000006
    14  C    0.407716   4.549978  -0.076589   0.009823  -0.000000  -0.000000
    15  C    0.288760  -0.076589   5.066265   0.309845  -0.000012   0.000055
    16  C    0.095466   0.009823   0.309845   5.038351   0.000472   0.002039
    17  O   -0.000014  -0.000000  -0.000012   0.000472   8.160090   0.012137
    18  H    0.000006  -0.000000   0.000055   0.002039   0.012137   0.508905
    19  H   -0.000011  -0.000000  -0.000079  -0.001012   0.000396  -0.000420
    20  H    0.000000   0.000000   0.000000   0.000001  -0.000000   0.000010
    21  H    0.000000   0.000000   0.000000   0.000000   0.000000  -0.000001
    22  H   -0.000000  -0.000000  -0.000000  -0.000000  -0.000000  -0.000023
    23  H   -0.000000   0.000000   0.000001  -0.000024  -0.000023   0.002905
    24  H    0.014157  -0.000222  -0.001854   0.013079   0.000527  -0.000032
    25  H   -0.076120  -0.013476   0.014358  -0.001866   0.000002  -0.000000
    26  H   -0.018742   0.392246  -0.009198   0.000871  -0.000000  -0.000000
    27  H   -0.012041   0.389436  -0.002971  -0.000291   0.000000   0.000000
    28  H   -0.018645   0.392160   0.007091  -0.000528  -0.000000  -0.000000
    29  H   -0.076591  -0.013849   0.459525  -0.065773   0.000001  -0.000004
    30  H    0.014624  -0.000226  -0.060559   0.453170   0.000786  -0.000579
              19         20         21         22         23         24
     1  O    0.033703   0.000009   0.000000  -0.000000   0.000014   0.011478
     2  S   -0.003194  -0.000014   0.000000   0.000003  -0.000137  -0.009615
     3  N   -0.011369  -0.000107   0.000011  -0.000116  -0.009477   0.000584
     4  C   -0.072373   0.015238  -0.001436   0.015547  -0.082682  -0.000131
     5  C    0.440277  -0.065753   0.014798  -0.001879   0.016725   0.000040
     6  C   -0.046787   0.456257  -0.067767   0.013811  -0.002224   0.000010
     7  C    0.013692  -0.073842   0.451770  -0.069153   0.014877  -0.000000
     8  C   -0.002140   0.014012  -0.070312   0.453642  -0.059821   0.000000
     9  C    0.013424  -0.001892   0.014438  -0.068970   0.452892  -0.000001
    10  C   -0.003662   0.000005   0.000000   0.000000  -0.000019  -0.077025
    11  C    0.000586  -0.000001  -0.000000   0.000000   0.000001   0.451610
    12  C    0.000157  -0.000000  -0.000000   0.000000  -0.000000  -0.050272
    13  C   -0.000011   0.000000   0.000000  -0.000000  -0.000000   0.014157
    14  C   -0.000000   0.000000   0.000000  -0.000000   0.000000  -0.000222
    15  C   -0.000079   0.000000   0.000000  -0.000000   0.000001  -0.001854
    16  C   -0.001012   0.000001   0.000000  -0.000000  -0.000024   0.013079
    17  O    0.000396  -0.000000   0.000000  -0.000000  -0.000023   0.000527
    18  H   -0.000420   0.000010  -0.000001  -0.000023   0.002905  -0.000032
    19  H    0.624837  -0.012963  -0.000205   0.000016  -0.000118   0.000260
    20  H   -0.012963   0.664561  -0.012011  -0.000256   0.000024  -0.000001
    21  H   -0.000205  -0.012011   0.671637  -0.012310  -0.000233  -0.000000
    22  H    0.000016  -0.000256  -0.012310   0.667219  -0.013067   0.000000
    23  H   -0.000118   0.000024  -0.000233  -0.013067   0.687561  -0.000000
    24  H    0.000260  -0.000001  -0.000000   0.000000  -0.000000   0.628493
    25  H   -0.000001   0.000000   0.000000  -0.000000   0.000000  -0.011387
    26  H    0.000000   0.000000  -0.000000  -0.000000  -0.000000   0.000007
    27  H    0.000000  -0.000000   0.000000   0.000000   0.000000   0.000003
    28  H   -0.000000  -0.000000  -0.000000   0.000000  -0.000000  -0.000001
    29  H    0.000000  -0.000000  -0.000000   0.000000   0.000000   0.000022
    30  H   -0.000087   0.000001  -0.000000  -0.000001   0.000098  -0.000216
              25         26         27         28         29         30
     1  O   -0.000004   0.000000  -0.000000   0.000000   0.000001   0.000282
     2  S   -0.000169  -0.000000  -0.000000  -0.000000  -0.000161  -0.015967
     3  N    0.000001   0.000000  -0.000000   0.000000  -0.000012   0.020974
     4  C    0.000000  -0.000000   0.000000  -0.000000   0.000007  -0.001437
     5  C   -0.000000  -0.000000   0.000000   0.000000   0.000003  -0.000478
     6  C    0.000000   0.000000  -0.000000   0.000000   0.000000   0.000045
     7  C   -0.000000   0.000000   0.000000   0.000000  -0.000000   0.000001
     8  C   -0.000000   0.000000  -0.000000  -0.000000  -0.000000   0.000062
     9  C    0.000000   0.000000  -0.000000   0.000000   0.000001  -0.000427
    10  C    0.016613  -0.000003   0.000127  -0.000006   0.016803  -0.071934
    11  C   -0.067168  -0.000562  -0.000187   0.000789  -0.001969   0.013540
    12  C    0.460832   0.007584  -0.003712  -0.008455   0.014534  -0.001836
    13  C   -0.076120  -0.018742  -0.012041  -0.018645  -0.076591   0.014624
    14  C   -0.013476   0.392246   0.389436   0.392160  -0.013849  -0.000226
    15  C    0.014358  -0.009198  -0.002971   0.007091   0.459525  -0.060559
    16  C   -0.001866   0.000871  -0.000291  -0.000528  -0.065773   0.453170
    17  O    0.000002  -0.000000   0.000000  -0.000000   0.000001   0.000786
    18  H   -0.000000  -0.000000   0.000000  -0.000000  -0.000004  -0.000579
    19  H   -0.000001   0.000000   0.000000  -0.000000   0.000000  -0.000087
    20  H    0.000000   0.000000  -0.000000  -0.000000  -0.000000   0.000001
    21  H    0.000000  -0.000000   0.000000  -0.000000  -0.000000  -0.000000
    22  H   -0.000000  -0.000000   0.000000   0.000000   0.000000  -0.000001
    23  H    0.000000  -0.000000   0.000000  -0.000000   0.000000   0.000098
    24  H   -0.011387   0.000007   0.000003  -0.000001   0.000022  -0.000216
    25  H    0.665134   0.000153   0.000796   0.004309  -0.000226   0.000026
    26  H    0.000153   0.620894  -0.017337  -0.022251   0.004567  -0.000002
    27  H    0.000796  -0.017337   0.598285  -0.017144   0.000716   0.000003
    28  H    0.004309  -0.022251  -0.017144   0.618756   0.000157   0.000008
    29  H   -0.000226   0.004567   0.000716   0.000157   0.668942  -0.011982
    30  H    0.000026  -0.000002   0.000003   0.000008  -0.011982   0.640627
 Mulliken charges:
               1
     1  O   -0.466803
     2  S    0.934410
     3  N   -0.318833
     4  C    0.135069
     5  C   -0.044113
     6  C   -0.006636
     7  C   -0.010529
     8  C   -0.006250
     9  C   -0.051197
    10  C   -0.099555
    11  C    0.028430
    12  C   -0.032764
    13  C   -0.072603
    14  C    0.029812
    15  C   -0.023468
    16  C    0.036426
    17  O   -0.478337
    18  H    0.167964
    19  H    0.027073
    20  H    0.016720
    21  H    0.011620
    22  H    0.015535
    23  H   -0.007271
    24  H    0.030486
    25  H    0.008193
    26  H    0.041775
    27  H    0.064318
    28  H    0.043760
    29  H    0.005286
    30  H    0.021483
 Sum of Mulliken charges =  -0.00000
 Mulliken charges with hydrogens summed into heavy atoms:
               1
     1  O   -0.466803
     2  S    0.934410
     3  N   -0.150869
     4  C    0.135069
     5  C   -0.017040
     6  C    0.010084
     7  C    0.001091
     8  C    0.009285
     9  C   -0.058468
    10  C   -0.099555
    11  C    0.058916
    12  C   -0.024571
    13  C   -0.072603
    14  C    0.179664
    15  C   -0.018182
    16  C    0.057909
    17  O   -0.478337
 Electronic spatial extent (au):  <R**2>=           4845.7351
 Charge=             -0.0000 electrons
 Dipole moment (field-independent basis, Debye):
    X=             -1.0099    Y=             -4.0647    Z=             -1.3499  Tot=              4.4004
 Quadrupole moment (field-independent basis, Debye-Ang):
   XX=            -90.6645   YY=           -114.7389   ZZ=           -100.9997
   XY=              3.7103   XZ=             -6.8446   YZ=             -0.6762
 Traceless Quadrupole moment (field-independent basis, Debye-Ang):
   XX=             11.4699   YY=            -12.6045   ZZ=              1.1346
   XY=              3.7103   XZ=             -6.8446   YZ=             -0.6762
 Octapole moment (field-independent basis, Debye-Ang**2):
  XXX=            -29.4160  YYY=            -17.9522  ZZZ=             -6.3305  XYY=              1.8073
  XXY=            -30.4676  XXZ=              1.9990  XZZ=              5.5118  YZZ=             -3.7022
  YYZ=              2.7933  XYZ=            -17.6265
 Hexadecapole moment (field-independent basis, Debye-Ang**3):
 XXXX=          -4263.2211 YYYY=          -1516.4768 ZZZZ=           -628.7162 XXXY=             -7.4031
 XXXZ=            -87.2244 YYYX=             42.8853 YYYZ=             17.8628 ZZZX=            -16.2064
 ZZZY=            -14.0482 XXYY=           -900.1621 XXZZ=           -797.5870 YYZZ=           -345.5356
 XXYZ=              0.1275 YYXZ=             -4.3120 ZZXY=             -4.0124
 N-N= 1.312232694226D+03 E-N=-5.213231286878D+03  KE= 1.097874271687D+03
   1 Symmetry operations used in ECPInt.
 ECPInt:  NShTT=   10296 NPrTT=   38220 LenC2=    9440 LenP2D=   24729.
 LDataN:  DoStor=T MaxTD1= 5 Len=  102
 Calling FoFJK, ICntrl=      2127 FMM=F ISym2X=0 I1Cent= 0 IOpClX= 0 NMat=1 NMatS=1 NMatT=0.
 ***** Axes restored to original set *****
 -------------------------------------------------------------------
 Center     Atomic                   Forces (Hartrees/Bohr)
 Number     Number              X              Y              Z
 -------------------------------------------------------------------
      1        8          -0.010476839    0.006443587   -0.052683552
      2       16          -0.028724056    0.024405440    0.014009015
      3        7          -0.015090195    0.023167817    0.020279021
      4        6           0.019392951   -0.016665149    0.009414656
      5        6          -0.011737264    0.006276665   -0.005209128
      6        6           0.005060990   -0.003940926   -0.003008621
      7        6           0.004908674   -0.004705252    0.003389106
      8        6           0.002715167   -0.001887803    0.001416663
      9        6          -0.012323633    0.009194580   -0.001862409
     10        6           0.014238771    0.007768093    0.000703308
     11        6          -0.002921153    0.006433420    0.011439363
     12        6           0.001752655    0.001977909   -0.002311808
     13        6          -0.002432329   -0.004205754    0.000563347
     14        6          -0.004817064    0.000170978   -0.002075804
     15        6          -0.000550943    0.002726904    0.002200018
     16        6           0.002604551   -0.004078280   -0.011403330
     17        8           0.026121735   -0.041066443    0.026833191
     18        1           0.008372472    0.007158005   -0.015692558
     19        1          -0.004313704   -0.000253429    0.007333696
     20        1          -0.001107489   -0.001784577    0.009964727
     21        1           0.007427697   -0.006718406    0.003492210
     22        1           0.006838802   -0.003374061   -0.007094937
     23        1           0.000886828    0.002604622   -0.012779542
     24        1           0.000602335    0.005811584    0.008654505
     25        1          -0.007204591    0.001639099    0.009120318
     26        1          -0.001442073   -0.003046881   -0.005165729
     27        1           0.001378333   -0.006477273    0.003896316
     28        1          -0.004958284    0.001325685    0.003558557
     29        1          -0.000233873   -0.007232716   -0.009199135
     30        1           0.006031529   -0.001667440   -0.007781464
 -------------------------------------------------------------------
 Cartesian Forces:  Max     0.052683552 RMS     0.011711920

 GradGradGradGradGradGradGradGradGradGradGradGradGradGradGradGradGradGrad
 Berny optimization.
 FormGI is forming the generalized inverse of G from B-inverse, IUseBI=4.
 Internal  Forces:  Max     0.054482972 RMS     0.009952191
 Search for a local minimum.
 Step number   1 out of a maximum of  162
 All quantities printed in internal units (Hartrees-Bohrs-Radians)
 Mixed Optimization -- RFO/linear search
 Second derivative matrix not updated -- first step.
 ITU=  0
     Eigenvalues ---    0.00421   0.00927   0.01189   0.01604   0.01744
     Eigenvalues ---    0.01773   0.02009   0.02139   0.02245   0.02270
     Eigenvalues ---    0.02275   0.02301   0.02310   0.02339   0.02345
     Eigenvalues ---    0.02348   0.02368   0.02384   0.02386   0.02393
     Eigenvalues ---    0.02394   0.02420   0.02611   0.07316   0.07338
     Eigenvalues ---    0.10191   0.11439   0.11888   0.13498   0.15989
     Eigenvalues ---    0.15999   0.15999   0.16000   0.16000   0.16000
     Eigenvalues ---    0.16000   0.16000   0.16000   0.16000   0.16000
     Eigenvalues ---    0.16000   0.17834   0.21999   0.22000   0.22000
     Eigenvalues ---    0.22887   0.22976   0.23458   0.23997   0.24986
     Eigenvalues ---    0.24988   0.25000   0.25000   0.26419   0.33686
     Eigenvalues ---    0.34771   0.34771   0.34775   0.34936   0.36236
     Eigenvalues ---    0.36282   0.36287   0.36298   0.36414   0.36441
     Eigenvalues ---    0.36442   0.36513   0.36668   0.42612   0.43489
     Eigenvalues ---    0.44023   0.44283   0.46652   0.47095   0.47636
     Eigenvalues ---    0.47804   0.48077   0.49082   0.49234   0.49269
     Eigenvalues ---    0.50025   0.50094   0.76272   0.76644
 RFO step:  Lambda=-3.91094306D-02 EMin= 4.20643430D-03
 Linear search not attempted -- first point.
 Maximum step size (   0.300) exceeded in Quadratic search.
    -- Step size scaled by   0.985
 Iteration  1 RMS(Cart)=  0.19828143 RMS(Int)=  0.00849073
 Iteration  2 RMS(Cart)=  0.04141052 RMS(Int)=  0.00094384
 Iteration  3 RMS(Cart)=  0.00065351 RMS(Int)=  0.00091587
 Iteration  4 RMS(Cart)=  0.00000153 RMS(Int)=  0.00091587
 Iteration  5 RMS(Cart)=  0.00000001 RMS(Int)=  0.00091587
 Variable       Old X    -DE/DX   Delta X   Delta X   Delta X     New X
                                 (Linear)    (Quad)   (Total)
    R1        2.83691  -0.05260   0.00000  -0.06460  -0.06460   2.77230
    R2        3.22778  -0.00320   0.00000  -0.00810  -0.00810   3.21968
    R3        3.39432  -0.00227   0.00000  -0.00736  -0.00736   3.38696
    R4        2.83478  -0.05448   0.00000  -0.06661  -0.06661   2.76816
    R5        2.63403   0.02712   0.00000   0.05282   0.05282   2.68685
    R6        1.89028   0.01808   0.00000   0.03455   0.03455   1.92484
    R7        2.64445   0.00683   0.00000   0.01318   0.01319   2.65764
    R8        2.64446   0.00482   0.00000   0.00883   0.00883   2.65329
    R9        2.59685   0.01918   0.00000   0.03523   0.03524   2.63210
   R10        2.03050   0.00732   0.00000   0.01776   0.01776   2.04826
   R11        2.60872   0.01234   0.00000   0.02365   0.02365   2.63237
   R12        2.03642   0.01010   0.00000   0.02475   0.02475   2.06117
   R13        2.60920   0.01143   0.00000   0.02166   0.02165   2.63084
   R14        2.03618   0.01060   0.00000   0.02597   0.02597   2.06214
   R15        2.59864   0.01567   0.00000   0.02832   0.02831   2.62695
   R16        2.03634   0.01036   0.00000   0.02539   0.02539   2.06174
   R17        2.03287   0.01303   0.00000   0.03174   0.03174   2.06461
   R18        2.59637   0.01981   0.00000   0.03667   0.03667   2.63305
   R19        2.59693   0.01963   0.00000   0.03647   0.03649   2.63341
   R20        2.60840   0.01052   0.00000   0.01947   0.01946   2.62787
   R21        2.03715   0.01028   0.00000   0.02523   0.02523   2.06238
   R22        2.62182   0.01458   0.00000   0.02704   0.02703   2.64884
   R23        2.03398   0.01165   0.00000   0.02844   0.02844   2.06242
   R24        2.81163   0.01269   0.00000   0.03326   0.03326   2.84489
   R25        2.62180   0.01433   0.00000   0.02666   0.02665   2.64845
   R26        2.06048   0.00602   0.00000   0.01532   0.01532   2.07580
   R27        2.06041   0.00766   0.00000   0.01949   0.01949   2.07990
   R28        2.06048   0.00608   0.00000   0.01548   0.01548   2.07595
   R29        2.60766   0.01209   0.00000   0.02255   0.02255   2.63022
   R30        2.03396   0.01162   0.00000   0.02837   0.02837   2.06233
   R31        2.03439   0.00985   0.00000   0.02407   0.02407   2.05846
    A1        2.00150  -0.00228   0.00000  -0.00951  -0.01428   1.98722
    A2        1.84237   0.00065   0.00000   0.03451   0.03370   1.87607
    A3        2.11472  -0.00334   0.00000  -0.04391  -0.04816   2.06656
    A4        1.72185   0.02112   0.00000   0.09466   0.09365   1.81551
    A5        1.85711  -0.01521   0.00000  -0.07972  -0.08322   1.77389
    A6        1.88204   0.00600   0.00000   0.04433   0.04661   1.92864
    A7        2.12399   0.03953   0.00000   0.15314   0.15104   2.27502
    A8        1.82595  -0.01185   0.00000  -0.02188  -0.02404   1.80191
    A9        2.04439  -0.01450   0.00000  -0.04236  -0.04586   1.99853
   A10        2.15007   0.01805   0.00000   0.06221   0.06199   2.21206
   A11        2.07922  -0.02105   0.00000  -0.07104  -0.07111   2.00811
   A12        2.05352   0.00295   0.00000   0.00804   0.00793   2.06144
   A13        2.11420  -0.00445   0.00000  -0.01675  -0.01674   2.09746
   A14        2.07128   0.00635   0.00000   0.02893   0.02889   2.10017
   A15        2.09704  -0.00187   0.00000  -0.01176  -0.01179   2.08525
   A16        2.09658   0.00426   0.00000   0.01842   0.01844   2.11502
   A17        2.09282  -0.00345   0.00000  -0.01572  -0.01573   2.07709
   A18        2.09374  -0.00081   0.00000  -0.00268  -0.00269   2.09105
   A19        2.09217  -0.00476   0.00000  -0.01575  -0.01576   2.07641
   A20        2.09540   0.00272   0.00000   0.00955   0.00955   2.10495
   A21        2.09560   0.00205   0.00000   0.00623   0.00623   2.10183
   A22        2.09805   0.00035   0.00000   0.00162   0.00160   2.09964
   A23        2.09240   0.00088   0.00000   0.00439   0.00439   2.09679
   A24        2.09274  -0.00122   0.00000  -0.00601  -0.00600   2.08674
   A25        2.11184   0.00167   0.00000   0.00452   0.00449   2.11633
   A26        2.06991   0.00030   0.00000   0.00336   0.00336   2.07327
   A27        2.10138  -0.00196   0.00000  -0.00780  -0.00780   2.09358
   A28        2.07699  -0.00785   0.00000  -0.02806  -0.02811   2.04887
   A29        2.10868   0.00613   0.00000   0.01957   0.01951   2.12820
   A30        2.09752   0.00173   0.00000   0.00850   0.00848   2.10600
   A31        2.09385  -0.00264   0.00000  -0.00881  -0.00880   2.08505
   A32        2.07922   0.00284   0.00000   0.01190   0.01190   2.09112
   A33        2.11010  -0.00019   0.00000  -0.00310  -0.00310   2.10700
   A34        2.10484   0.00245   0.00000   0.00770   0.00768   2.11252
   A35        2.09574  -0.00260   0.00000  -0.01068  -0.01068   2.08507
   A36        2.08260   0.00016   0.00000   0.00299   0.00299   2.08560
   A37        2.10505   0.00032   0.00000   0.00236   0.00237   2.10742
   A38        2.07118  -0.00072   0.00000  -0.00491  -0.00494   2.06624
   A39        2.10649   0.00041   0.00000   0.00266   0.00267   2.10915
   A40        1.93996   0.00103   0.00000   0.00592   0.00589   1.94585
   A41        1.93342   0.00014   0.00000  -0.00094  -0.00093   1.93249
   A42        1.93913   0.00109   0.00000   0.00620   0.00618   1.94531
   A43        1.88520  -0.00112   0.00000  -0.00703  -0.00703   1.87817
   A44        1.87858  -0.00008   0.00000   0.00270   0.00265   1.88123
   A45        1.88527  -0.00119   0.00000  -0.00747  -0.00747   1.87780
   A46        2.10372   0.00309   0.00000   0.01067   0.01067   2.11439
   A47        2.08301  -0.00017   0.00000   0.00147   0.00147   2.08448
   A48        2.09646  -0.00292   0.00000  -0.01214  -0.01214   2.08431
   A49        2.09519  -0.00390   0.00000  -0.01305  -0.01302   2.08216
   A50        2.08090   0.00354   0.00000   0.01442   0.01441   2.09530
   A51        2.10709   0.00035   0.00000  -0.00136  -0.00138   2.10571
    D1        0.32460   0.01569   0.00000   0.16312   0.16228   0.48688
    D2       -2.04289   0.01202   0.00000   0.09993   0.09709  -1.94580
    D3       -1.62365   0.00401   0.00000   0.07410   0.07389  -1.54976
    D4        2.29205   0.00035   0.00000   0.01091   0.00869   2.30074
    D5        2.71217  -0.00616   0.00000   0.01292   0.01699   2.72916
    D6        0.34469  -0.00983   0.00000  -0.05027  -0.04821   0.29648
    D7        0.66142  -0.00243   0.00000  -0.02574  -0.02700   0.63442
    D8       -2.47962  -0.00338   0.00000  -0.04283  -0.04402  -2.52364
    D9        2.73376   0.00378   0.00000   0.01313   0.01342   2.74717
   D10       -0.40728   0.00282   0.00000  -0.00396  -0.00360  -0.41088
   D11       -1.62207  -0.00262   0.00000  -0.02321  -0.02234  -1.64441
   D12        1.52008  -0.00358   0.00000  -0.04029  -0.03935   1.48072
   D13        0.19093   0.00007   0.00000   0.03569   0.03631   0.22724
   D14       -2.98094  -0.00178   0.00000   0.00421   0.00488  -2.97606
   D15        2.46904   0.00953   0.00000   0.13002   0.12935   2.59840
   D16       -0.70282   0.00768   0.00000   0.09854   0.09792  -0.60490
   D17        3.10539  -0.00138   0.00000  -0.01894  -0.02008   3.08531
   D18       -0.07529  -0.00065   0.00000  -0.00694  -0.00769  -0.08299
   D19       -0.00635   0.00084   0.00000   0.01341   0.01345   0.00710
   D20        3.09615   0.00157   0.00000   0.02541   0.02583   3.12198
   D21       -3.10733   0.00033   0.00000   0.00999   0.00885  -3.09849
   D22        0.02334   0.00082   0.00000   0.01706   0.01611   0.03945
   D23        0.00566  -0.00112   0.00000  -0.01871  -0.01861  -0.01295
   D24        3.13633  -0.00064   0.00000  -0.01164  -0.01134   3.12499
   D25        0.00195  -0.00007   0.00000  -0.00057  -0.00072   0.00124
   D26        3.13363   0.00013   0.00000   0.00175   0.00177   3.13540
   D27       -3.09998  -0.00100   0.00000  -0.01365  -0.01390  -3.11388
   D28        0.03170  -0.00079   0.00000  -0.01132  -0.01141   0.02029
   D29        0.00334  -0.00045   0.00000  -0.00750  -0.00732  -0.00399
   D30        3.13931  -0.00005   0.00000  -0.00103  -0.00092   3.13839
   D31       -3.12834  -0.00064   0.00000  -0.00975  -0.00976  -3.13809
   D32        0.00764  -0.00024   0.00000  -0.00329  -0.00335   0.00428
   D33       -0.00402   0.00016   0.00000   0.00217   0.00223  -0.00179
   D34        3.13881   0.00036   0.00000   0.00615   0.00600  -3.13838
   D35       -3.13999  -0.00025   0.00000  -0.00431  -0.00417   3.13902
   D36        0.00284  -0.00005   0.00000  -0.00032  -0.00041   0.00243
   D37       -0.00058   0.00067   0.00000   0.01131   0.01101   0.01044
   D38       -3.13105   0.00016   0.00000   0.00404   0.00360  -3.12746
   D39        3.13978   0.00046   0.00000   0.00733   0.00728  -3.13613
   D40        0.00930  -0.00004   0.00000   0.00006  -0.00014   0.00916
   D41        3.13908  -0.00102   0.00000  -0.01707  -0.01687   3.12221
   D42       -0.00772  -0.00108   0.00000  -0.01794  -0.01778  -0.02550
   D43       -0.00307  -0.00007   0.00000  -0.00009  -0.00008  -0.00315
   D44        3.13332  -0.00012   0.00000  -0.00096  -0.00099   3.13233
   D45       -3.13820   0.00088   0.00000   0.01488   0.01512  -3.12308
   D46        0.00985   0.00081   0.00000   0.01379   0.01399   0.02384
   D47        0.00396  -0.00009   0.00000  -0.00240  -0.00243   0.00152
   D48       -3.13117  -0.00016   0.00000  -0.00348  -0.00357  -3.13474
   D49       -0.00606   0.00038   0.00000   0.00568   0.00572  -0.00034
   D50        3.13549   0.00016   0.00000   0.00224   0.00225   3.13774
   D51        3.14083   0.00042   0.00000   0.00651   0.00659  -3.13577
   D52       -0.00081   0.00020   0.00000   0.00307   0.00312   0.00231
   D53        3.12289  -0.00033   0.00000  -0.00514  -0.00518   3.11772
   D54        0.01402  -0.00053   0.00000  -0.00869  -0.00872   0.00530
   D55       -0.01866  -0.00011   0.00000  -0.00173  -0.00171  -0.02036
   D56       -3.12753  -0.00031   0.00000  -0.00528  -0.00524  -3.13277
   D57        2.65956   0.00056   0.00000   0.00401   0.00403   2.66360
   D58       -1.52756  -0.00008   0.00000  -0.00155  -0.00155  -1.52911
   D59        0.56804  -0.00075   0.00000  -0.00748  -0.00751   0.56054
   D60       -0.51541   0.00074   0.00000   0.00749   0.00751  -0.50790
   D61        1.58065   0.00011   0.00000   0.00193   0.00193   1.58258
   D62       -2.60693  -0.00057   0.00000  -0.00401  -0.00402  -2.61096
   D63       -0.01312   0.00037   0.00000   0.00619   0.00615  -0.00697
   D64        3.12718   0.00037   0.00000   0.00625   0.00625   3.13344
   D65       -3.12197   0.00017   0.00000   0.00264   0.00262  -3.11935
   D66        0.01834   0.00017   0.00000   0.00270   0.00272   0.02106
   D67        0.00428  -0.00006   0.00000  -0.00068  -0.00065   0.00363
   D68        3.13931   0.00002   0.00000   0.00048   0.00055   3.13987
   D69       -3.13602  -0.00006   0.00000  -0.00075  -0.00075  -3.13677
   D70       -0.00099   0.00002   0.00000   0.00041   0.00044  -0.00054
         Item               Value     Threshold  Converged?
 Maximum Force            0.054483     0.000450     NO 
 RMS     Force            0.009952     0.000300     NO 
 Maximum Displacement     0.668334     0.001800     NO 
 RMS     Displacement     0.231366     0.001200     NO 
 Predicted change in Energy=-2.278432D-02
 GradGradGradGradGradGradGradGradGradGradGradGradGradGradGradGradGradGrad

                          Input orientation:                          
 ---------------------------------------------------------------------
 Center     Atomic      Atomic             Coordinates (Angstroms)
 Number     Number       Type             X           Y           Z
 ---------------------------------------------------------------------
      1          8           0        0.222459    1.986765    1.323246
      2         16           0       -0.080165    1.628643   -0.066852
      3          7           0        1.174628    0.782424   -0.849332
      4          6           0        2.181814   -0.068909   -0.317935
      5          6           0        2.224032   -0.615682    0.977102
      6          6           0        3.246518   -1.491427    1.334328
      7          6           0        4.244084   -1.843476    0.428048
      8          6           0        4.207039   -1.308811   -0.856838
      9          6           0        3.187073   -0.439226   -1.225520
     10          6           0       -1.439607    0.460971   -0.038577
     11          6           0       -2.426044    0.648845    0.927376
     12          6           0       -3.512334   -0.218132    0.973336
     13          6           0       -3.630562   -1.277498    0.063088
     14          6           0       -4.793587   -2.230459    0.138044
     15          6           0       -2.621973   -1.448566   -0.894871
     16          6           0       -1.530577   -0.586745   -0.952894
     17          8           0       -0.349537    2.706682   -1.021344
     18          1           0        1.507918    1.448950   -1.543712
     19          1           0        1.476494   -0.340407    1.712108
     20          1           0        3.264059   -1.899692    2.345610
     21          1           0        5.042470   -2.528160    0.718893
     22          1           0        4.977026   -1.573959   -1.582890
     23          1           0        3.156123   -0.033351   -2.239404
     24          1           0       -2.336426    1.468744    1.642082
     25          1           0       -4.283164   -0.073177    1.732236
     26          1           0       -5.021932   -2.664772   -0.844736
     27          1           0       -4.573000   -3.060828    0.825958
     28          1           0       -5.700780   -1.729482    0.502504
     29          1           0       -2.692948   -2.272459   -1.607037
     30          1           0       -0.750441   -0.728196   -1.699844
 ---------------------------------------------------------------------
                    Distance matrix (angstroms):
                    1          2          3          4          5
     1  O    0.000000
     2  S    1.467040   0.000000
     3  N    2.660293   1.703780   0.000000
     4  C    3.279991   2.839239   1.421821   0.000000
     5  C    3.301339   3.381739   2.528202   1.406365   0.000000
     6  C    4.609000   4.771265   3.772466   2.426340   1.392846
     7  C    5.625442   5.567734   4.236580   2.821087   2.426840
     8  C    5.611636   5.256694   3.683590   2.435017   2.788563
     9  C    4.601149   4.036513   2.384089   1.404062   2.410420
    10  C    2.635351   1.792300   2.755880   3.670627   3.951333
    11  C    2.993545   2.729770   4.017384   4.826834   4.819201
    12  C    4.351170   4.033900   5.127459   5.840631   5.750126
    13  C    5.204727   4.589974   5.307131   5.948915   5.962356
    14  C    6.659609   6.095162   6.758104   7.316860   7.249724
    15  C    4.981199   4.076226   4.403813   5.031171   5.261344
    16  C    3.857059   2.792259   3.033724   3.801734   4.221707
    17  O    2.518445   1.464849   2.460779   3.821836   4.653508
    18  H    3.187648   2.176100   1.018579   2.064114   3.336170
    19  H    2.671993   3.076531   2.812978   2.166163   1.083892
    20  H    5.039951   5.427058   4.665525   3.408444   2.145496
    21  H    6.631915   6.643628   5.327241   3.912324   3.415822
    22  H    6.612889   6.174967   4.533088   3.417382   3.879541
    23  H    5.037829   4.237424   2.554234   2.154666   3.399090
    24  H    2.630189   2.834914   4.359550   5.159509   5.058142
    25  H    4.971043   4.878331   6.097872   6.782268   6.573289
    26  H    7.337614   6.592388   7.090877   7.675284   7.747377
    27  H    6.980109   6.555442   7.114240   7.475800   7.225042
    28  H    7.040516   6.572099   7.443679   8.097278   8.016759
    29  H    5.935246   4.941396   4.986439   5.502792   5.796497
    30  H    4.178112   2.944591   2.590604   3.307938   4.003272
                    6          7          8          9         10
     6  C    0.000000
     7  C    1.392990   0.000000
     8  C    2.399408   1.392182   0.000000
     9  C    2.768299   2.413188   1.390120   0.000000
    10  C    5.258944   6.150817   5.973800   4.860592   0.000000
    11  C    6.076540   7.138039   7.142382   6.109496   1.393349
    12  C    6.887211   7.943621   8.007986   7.054495   2.404443
    13  C    6.996860   7.903391   7.891466   6.988803   2.798731
    14  C    8.162142   9.050601   9.102225   8.292090   4.303972
    15  C    6.277767   7.003486   6.830548   5.905346   2.403656
    16  C    5.373125   6.069027   5.783671   4.727823   1.393542
    17  O    6.008737   6.626162   6.075659   4.737725   2.682779
    18  H    4.466729   4.713228   3.919477   2.546766   3.453901
    19  H    2.144890   3.401115   3.872101   3.400809   3.494388
    20  H    1.090724   2.154218   3.390284   3.858997   5.777677
    21  H    2.163104   1.091239   2.160483   3.403951   7.178160
    22  H    3.392880   2.157247   1.091025   2.149248   6.906448
    23  H    3.860792   3.402280   2.154695   1.092545   5.119445
    24  H    6.326657   7.466445   7.535008   6.509419   2.155112
    25  H    7.672410   8.806182   8.961788   8.042807   3.392184
    26  H    8.630893   9.389013   9.328059   8.513860   4.822158
    27  H    7.991641   8.909616   9.109910   8.443938   4.792561
    28  H    8.989035   9.945796  10.009478   9.145751   4.821664
    29  H    6.673747   7.242100   7.007228   6.170976   3.391543
    30  H    5.075865   5.542297   5.062053   3.976494   2.156124
                   11         12         13         14         15
    11  C    0.000000
    12  C    1.390606   0.000000
    13  C    2.430772   1.401708   0.000000
    14  C    3.810340   2.527604   1.505450   0.000000
    15  C    2.785338   2.407677   1.401500   2.528671   0.000000
    16  C    2.421561   2.788117   2.432960   3.813027   1.391851
    17  O    3.513415   4.747269   5.273974   6.743079   4.737726
    18  H    4.714074   5.858124   6.034841   7.488345   5.086511
    19  H    4.101734   5.044714   5.447883   6.735272   4.982147
    20  H    6.394036   7.115496   7.289228   8.361126   6.734212
    21  H    8.118838   8.864854   8.787248   9.857689   7.906545
    22  H    8.126976   8.968935   8.768564   9.942711   7.631113
    23  H    6.454027   7.404333   7.273820   8.583556   6.098934
    24  H    1.091362   2.162298   3.421967   4.688696   3.876644
    25  H    2.148955   1.091385   2.159244   2.730539   3.398962
    26  H    4.567173   3.401517   2.164390   1.098465   2.690998
    27  H    4.287351   3.037706   2.156485   1.100635   3.060580
    28  H    4.069502   2.700955   2.164065   1.098548   3.392731
    29  H    3.876660   3.398525   2.158329   2.731255   1.091336
    30  H    3.406783   3.877384   3.421222   4.688460   2.160914
                   16         17         18         19         20
    16  C    0.000000
    17  O    3.499457   0.000000
    18  H    3.704804   2.303236   0.000000
    19  H    4.025592   4.482287   3.715259   0.000000
    20  H    5.965945   6.753750   5.424414   2.455216   0.000000
    21  H    7.054709   7.713996   5.781855   4.299875   2.490768
    22  H    6.612140   6.856493   4.601546   4.963103   4.298078
    23  H    4.891473   4.613144   2.323313   4.304635   4.951488
    24  H    3.407100   3.545991   4.992860   4.220935   6.573184
    25  H    3.879486   5.548264   6.825345   5.765889   7.789285
    26  H    4.064413   7.121445   7.749207   7.360004   8.911863
    27  H    4.306012   7.383383   7.932906   6.691960   8.067037
    28  H    4.562304   7.116000   8.139702   7.409853   9.153925
[...]
     2  S    0.000025   0.000734   0.007033   0.308009  -0.016539   0.004865
     3  N    0.000974   0.013251  -0.039569  -0.061439   0.006351   0.000051
     4  C   -0.112023   0.009918   0.333968   0.045016  -0.002545   0.001885
     5  C    0.048681  -0.090397   0.057858   0.003462   0.000865  -0.002489
     6  C    0.413190   0.022554  -0.098014  -0.000067  -0.001265   0.000433
     7  C    4.963734   0.439090   0.035577  -0.000158  -0.000706  -0.000195
     8  C    0.439090   4.933756   0.408365  -0.001761   0.001201   0.002006
     9  C    0.035577   0.408365   5.115236  -0.000173  -0.014250  -0.000561
    10  C   -0.000158  -0.001761  -0.000173   5.294029   0.316183   0.049833
    11  C   -0.000706   0.001201  -0.014250   0.316183   5.142130   0.357374
    12  C   -0.000195   0.002006  -0.000561   0.049833   0.357374   5.100399
    13  C    0.000042   0.000056  -0.000462  -0.090542   0.033113   0.412228
    14  C   -0.000001  -0.000016   0.000008  -0.004307   0.013760  -0.073654
    15  C    0.000020  -0.000051   0.000796   0.015633  -0.050433  -0.014067
    16  C   -0.000059  -0.000679  -0.001916   0.368145  -0.069562  -0.046405
    17  O   -0.000003  -0.000001  -0.000524  -0.096290   0.008734  -0.000585
    18  H    0.000136   0.001087   0.008837  -0.000735   0.000707  -0.000043
    19  H    0.010215  -0.004442   0.011287   0.001828  -0.000442  -0.000158
    20  H   -0.058354   0.010553  -0.003504  -0.000016  -0.000004   0.000008
    21  H    0.443935  -0.056088   0.012198   0.000004  -0.000018  -0.000002
    22  H   -0.057145   0.438888  -0.053931   0.000005   0.000029   0.000022
    23  H    0.010390  -0.031468   0.439955   0.000787  -0.000269  -0.000258
    24  H    0.000104   0.000168  -0.001670  -0.046344   0.436266  -0.049484
    25  H    0.000008   0.000072  -0.000080   0.010720  -0.048616   0.444590
    26  H    0.000000  -0.000001   0.000001   0.000063  -0.000706   0.007965
    27  H   -0.000000   0.000001  -0.000002   0.000057   0.001921  -0.006660
    28  H    0.000000   0.000000   0.000000   0.000160  -0.000728  -0.004863
    29  H   -0.000000   0.000003  -0.000002   0.011277  -0.003857   0.012879
    30  H   -0.000003   0.000006  -0.000132  -0.045617   0.008281  -0.002425
              13         14         15         16         17         18
     1  O   -0.000112  -0.000000  -0.000266   0.006939  -0.043929   0.002676
     2  S   -0.000536   0.000005   0.005747  -0.039202   0.584238  -0.016602
     3  N    0.000227  -0.000004  -0.001191   0.000037  -0.048056   0.365623
     4  C   -0.000719   0.000007   0.000251   0.001021   0.001634  -0.051470
     5  C    0.000219   0.000006   0.000048   0.000327  -0.000743   0.004524
     6  C   -0.000039  -0.000001  -0.000008   0.000171  -0.000000  -0.000720
     7  C    0.000042  -0.000001   0.000020  -0.000059  -0.000003   0.000136
     8  C    0.000056  -0.000016  -0.000051  -0.000679  -0.000001   0.001087
     9  C   -0.000462   0.000008   0.000796  -0.001916  -0.000524   0.008837
    10  C   -0.090542  -0.004307   0.015633   0.368145  -0.096290  -0.000735
    11  C    0.033113   0.013760  -0.050433  -0.069562   0.008734   0.000707
    12  C    0.412228  -0.073654  -0.014067  -0.046405  -0.000585  -0.000043
    13  C    4.972656   0.297537   0.432643   0.016149   0.000166   0.000064
    14  C    0.297537   4.958421  -0.073383   0.013188   0.000001   0.000000
    15  C    0.432643  -0.073383   5.062733   0.404472   0.002758  -0.000166
    16  C    0.016149   0.013188   0.404472   5.106054   0.026782   0.000144
    17  O    0.000166   0.000001   0.002758   0.026782   8.022378   0.004370
    18  H    0.000064   0.000000  -0.000166   0.000144   0.004370   0.429405
    19  H    0.000015   0.000000   0.000007  -0.000172  -0.000134  -0.000050
    20  H   -0.000000  -0.000000  -0.000000   0.000001  -0.000000   0.000013
    21  H   -0.000001   0.000000   0.000000  -0.000000   0.000000  -0.000002
    22  H   -0.000005   0.000000  -0.000003  -0.000001  -0.000000  -0.000040
    23  H   -0.000009  -0.000000   0.000310   0.000379  -0.000175   0.003563
    24  H    0.008918  -0.000031  -0.002427   0.008179   0.000384  -0.000098
    25  H   -0.063208  -0.006605   0.012770  -0.003657   0.000003   0.000000
    26  H   -0.054987   0.427696  -0.006499   0.001957   0.000000   0.000000
    27  H   -0.053182   0.427548   0.006918  -0.000643   0.000000  -0.000000
    28  H   -0.017392   0.390191  -0.004596  -0.000664  -0.000000  -0.000000
    29  H   -0.062029  -0.006828   0.443119  -0.048813  -0.000028  -0.000009
    30  H    0.008424  -0.000057  -0.048526   0.432601   0.013556   0.000364
              19         20         21         22         23         24
     1  O    0.008972  -0.000038   0.000001  -0.000000  -0.000017   0.008183
     2  S   -0.002921  -0.000003   0.000003  -0.000007  -0.000121  -0.004117
     3  N   -0.001405  -0.000119   0.000008  -0.000360   0.002897   0.000355
     4  C   -0.044799   0.013945  -0.003964   0.015211  -0.080501   0.000130
     5  C    0.434638  -0.057682   0.011297  -0.003858   0.012038   0.000012
     6  C   -0.048921   0.446325  -0.056276   0.010719  -0.003893   0.000351
     7  C    0.010215  -0.058354   0.443935  -0.057145   0.010390   0.000104
     8  C   -0.004442   0.010553  -0.056088   0.438888  -0.031468   0.000168
     9  C    0.011287  -0.003504   0.012198  -0.053931   0.439955  -0.001670
    10  C    0.001828  -0.000016   0.000004   0.000005   0.000787  -0.046344
    11  C   -0.000442  -0.000004  -0.000018   0.000029  -0.000269   0.436266
    12  C   -0.000158   0.000008  -0.000002   0.000022  -0.000258  -0.049484
    13  C    0.000015  -0.000000  -0.000001  -0.000005  -0.000009   0.008918
    14  C    0.000000  -0.000000   0.000000   0.000000  -0.000000  -0.000031
    15  C    0.000007  -0.000000   0.000000  -0.000003   0.000310  -0.002427
    16  C   -0.000172   0.000001  -0.000000  -0.000001   0.000379   0.008179
    17  O   -0.000134  -0.000000   0.000000  -0.000000  -0.000175   0.000384
    18  H   -0.000050   0.000013  -0.000002  -0.000040   0.003563  -0.000098
    19  H    0.476171  -0.006493  -0.000017   0.000015   0.000012  -0.000091
    20  H   -0.006493   0.534757  -0.006847  -0.000125   0.000028  -0.000017
    21  H   -0.000017  -0.006847   0.538790  -0.006650  -0.000098  -0.000005
    22  H    0.000015  -0.000125  -0.006650   0.541627  -0.007507   0.000004
    23  H    0.000012   0.000028  -0.000098  -0.007507   0.538595  -0.000053
    24  H   -0.000091  -0.000017  -0.000005   0.000004  -0.000053   0.481740
    25  H   -0.000007   0.000001  -0.000000  -0.000000  -0.000002  -0.005598
    26  H   -0.000000  -0.000000   0.000000  -0.000000   0.000000   0.000002
    27  H   -0.000000   0.000000  -0.000000   0.000000  -0.000000  -0.000022
    28  H    0.000000   0.000000  -0.000000  -0.000000   0.000000   0.000008
    29  H   -0.000000   0.000000   0.000000   0.000000  -0.000003   0.000026
    30  H   -0.000005   0.000000  -0.000000   0.000000  -0.000067  -0.000066
              25         26         27         28         29         30
     1  O   -0.000011   0.000000   0.000000  -0.000000   0.000004   0.000543
     2  S   -0.000100   0.000001   0.000001  -0.000001  -0.000114  -0.004417
     3  N    0.000031  -0.000000  -0.000000   0.000000   0.000017   0.000276
     4  C    0.000037  -0.000001   0.000003  -0.000000  -0.000007  -0.000183
     5  C   -0.000101   0.000000   0.000000  -0.000000  -0.000002  -0.000018
     6  C    0.000057  -0.000000   0.000000   0.000000   0.000000   0.000007
     7  C    0.000008   0.000000  -0.000000   0.000000  -0.000000  -0.000003
     8  C    0.000072  -0.000001   0.000001   0.000000   0.000003   0.000006
     9  C   -0.000080   0.000001  -0.000002   0.000000  -0.000002  -0.000132
    10  C    0.010720   0.000063   0.000057   0.000160   0.011277  -0.045617
    11  C   -0.048616  -0.000706   0.001921  -0.000728  -0.003857   0.008281
    12  C    0.444590   0.007965  -0.006660  -0.004863   0.012879  -0.002425
    13  C   -0.063208  -0.054987  -0.053182  -0.017392  -0.062029   0.008424
    14  C   -0.006605   0.427696   0.427548   0.390191  -0.006828  -0.000057
    15  C    0.012770  -0.006499   0.006918  -0.004596   0.443119  -0.048526
    16  C   -0.003657   0.001957  -0.000643  -0.000664  -0.048813   0.432601
    17  O    0.000003   0.000000   0.000000  -0.000000  -0.000028   0.013556
    18  H    0.000000   0.000000  -0.000000  -0.000000  -0.000009   0.000364
    19  H   -0.000007  -0.000000  -0.000000   0.000000  -0.000000  -0.000005
    20  H    0.000001  -0.000000   0.000000   0.000000   0.000000   0.000000
    21  H   -0.000000   0.000000  -0.000000  -0.000000   0.000000  -0.000000
    22  H   -0.000000  -0.000000   0.000000  -0.000000   0.000000   0.000000
    23  H   -0.000002   0.000000  -0.000000   0.000000  -0.000003  -0.000067
    24  H   -0.005598   0.000002  -0.000022   0.000008   0.000026  -0.000066
    25  H    0.533604   0.000075   0.000864   0.000256  -0.000049   0.000031
    26  H    0.000075   0.541971  -0.023652  -0.023332   0.001112  -0.000019
    27  H    0.000864  -0.023652   0.540772  -0.024314   0.000057   0.000003
    28  H    0.000256  -0.023332  -0.024314   0.544763   0.000223   0.000007
    29  H   -0.000049   0.001112   0.000057   0.000223   0.533429  -0.005561
    30  H    0.000031  -0.000019   0.000003   0.000007  -0.005561   0.477693
 Mulliken charges:
               1
     1  O   -0.461031
     2  S    0.856461
     3  N   -0.316459
     4  C    0.199923
     5  C   -0.270596
     6  C   -0.072229
     7  C   -0.137602
     8  C   -0.096904
     9  C   -0.217403
    10  C    0.000950
    11  C   -0.135567
    12  C   -0.195653
    13  C    0.160765
    14  C   -0.363481
    15  C   -0.186612
    16  C   -0.174772
    17  O   -0.474536
    18  H    0.248421
    19  H    0.166897
    20  H    0.127570
    21  H    0.123730
    22  H    0.123109
    23  H    0.115490
    24  H    0.165190
    25  H    0.124917
    26  H    0.128354
    27  H    0.130330
    28  H    0.140282
    29  H    0.125156
    30  H    0.165300
 Sum of Mulliken charges =  -0.00000
 Mulliken charges with hydrogens summed into heavy atoms:
               1
     1  O   -0.461031
     2  S    0.856461
     3  N   -0.068038
     4  C    0.199923
     5  C   -0.103699
     6  C    0.055341
     7  C   -0.013872
     8  C    0.026205
     9  C   -0.101913
    10  C    0.000950
    11  C    0.029624
    12  C   -0.070736
    13  C    0.160765
    14  C    0.035485
    15  C   -0.061457
    16  C   -0.009473
    17  O   -0.474536
 Electronic spatial extent (au):  <R**2>=           4366.6334
 Charge=              0.0000 electrons
 Dipole moment (field-independent basis, Debye):
    X=             -1.8217    Y=             -5.3824    Z=             -1.7645  Tot=              5.9500
 Quadrupole moment (field-independent basis, Debye-Ang):
   XX=            -96.8187   YY=           -114.0097   ZZ=           -101.0986
   XY=              0.2830   XZ=              2.6658   YZ=             -4.5458
 Traceless Quadrupole moment (field-independent basis, Debye-Ang):
   XX=              7.1569   YY=            -10.0340   ZZ=              2.8771
   XY=              0.2830   XZ=              2.6658   YZ=             -4.5458
 Octapole moment (field-independent basis, Debye-Ang**2):
  XXX=            -41.9417  YYY=            -42.3737  ZZZ=            -11.7662  XYY=              3.5016
  XXY=            -16.3294  XXZ=              7.5873  XZZ=              2.8443  YZZ=             -0.3953
  YYZ=             -0.7620  XYZ=             -0.8773
 Hexadecapole moment (field-independent basis, Debye-Ang**3):
 XXXX=          -3343.6035 YYYY=          -1978.1183 ZZZZ=           -577.6732 XXXY=             53.3232
 XXXZ=            112.8054 YYYX=            -18.4056 YYYZ=             17.6740 ZZZX=             13.5872
 ZZZY=            -24.0205 XXYY=           -821.9476 XXZZ=           -639.4726 YYZZ=           -410.8899
 XXYZ=            -31.6254 YYXZ=            -12.7944 ZZXY=             -2.1847
 N-N= 1.331930849977D+03 E-N=-5.259233619183D+03  KE= 1.102023915078D+03
 Breneman (CHELPG) radii used.
 Read replacement radii for each type of atom:
 Atom Element Radius
    1     8    1.70
    2    16    2.00
    3     7    1.70
    4     6    1.50
    5     6    1.50
    6     6    1.50
    7     6    1.50
    8     6    1.50
    9     6    1.50
   10     6    1.50
   11     6    1.50
   12     6    1.50
   13     6    1.50
   14     6    1.50
   15     6    1.50
   16     6    1.50
   17     8    1.70
   18     1    1.45
   19     1    1.45
   20     1    1.45
   21     1    1.45
   22     1    1.45
   23     1    1.45
   24     1    1.45
   25     1    1.45
   26     1    1.45
   27     1    1.45
   28     1    1.45
   29     1    1.45
   30     1    1.45
 Generate Potential Derived Charges using the Breneman model, NDens= 1.
 Grid spacing= 0.300 Box extension= 2.800
 NStep X,Y,Z=   49     42     34   Total possible points=       69972
 Number of Points to Fit=   18716

 **********************************************************************

            Electrostatic Properties Using The SCF Density.

 **********************************************************************

       Atomic Center    1 is at   0.759885  2.052996  1.477406
       Atomic Center    2 is at   0.211203  1.955895  0.139121
       Atomic Center    3 is at   1.389714  1.267770 -0.841674
       Atomic Center    4 is at   1.950939  0.004491 -0.532375
       Atomic Center    5 is at   2.685279 -0.166925  0.646440
       Atomic Center    6 is at   3.219252 -1.416565  0.949215
       Atomic Center    7 is at   3.052819 -2.491869  0.076099
       Atomic Center    8 is at   2.334594 -2.314311 -1.105124
       Atomic Center    9 is at   1.772420 -1.075391 -1.403448
       Atomic Center   10 is at  -1.098971  0.752186  0.173421
       Atomic Center   11 is at  -1.042885 -0.301711  1.084438
       Atomic Center   12 is at  -2.036127 -1.275093  1.051200
       Atomic Center   13 is at  -3.088776 -1.207261  0.129501
       Atomic Center   14 is at  -4.177529 -2.246712  0.128477
       Atomic Center   15 is at  -3.122294 -0.132053 -0.767953
       Atomic Center   16 is at  -2.134450  0.847677 -0.754115
       Atomic Center   17 is at  -0.244860  3.115694 -0.602845
       Atomic Center   18 is at   1.147182  1.412330 -1.817977
       Atomic Center   19 is at   2.820790  0.683385  1.314768
       Atomic Center   20 is at   3.787255 -1.545729  1.873056
       Atomic Center   21 is at   3.485468 -3.465517  0.314531
       Atomic Center   22 is at   2.197311 -3.148890 -1.795944
       Atomic Center   23 is at   1.185618 -0.942121 -2.315861
       Atomic Center   24 is at  -0.230623 -0.351418  1.811278
       Atomic Center   25 is at  -1.993571 -2.105555  1.760212
       Atomic Center   26 is at  -4.631715 -2.353916 -0.866507
       Atomic Center   27 is at  -3.795960 -3.228602  0.442155
       Atomic Center   28 is at  -4.979576 -1.964992  0.829740
       Atomic Center   29 is at  -3.939681 -0.058155 -1.489675
       Atomic Center   30 is at  -2.165560  1.692171 -1.445144
   18716 points will be used for fitting atomic charges
 Fitting point charges to electrostatic potential
 Charges from ESP fit, RMS=   0.00358 RRMS=   0.21935:
 ESP charges:
               1
     1  O   -0.468818
     2  S    0.931716
     3  N   -0.644498
     4  C    0.407763
     5  C   -0.219843
     6  C   -0.055486
     7  C   -0.144022
     8  C   -0.056635
     9  C   -0.266860
    10  C   -0.064924
    11  C   -0.035642
    12  C   -0.231426
    13  C    0.239663
    14  C   -0.272321
    15  C   -0.212602
    16  C   -0.067182
    17  O   -0.484806
    18  H    0.354428
    19  H    0.160762
    20  H    0.096875
    21  H    0.103707
    22  H    0.104648
    23  H    0.110389
    24  H    0.099384
    25  H    0.129386
    26  H    0.077537
    27  H    0.078882
    28  H    0.090329
    29  H    0.126982
    30  H    0.112613
 Sum of ESP charges =   0.00000
 ESP charges with hydrogens summed into heavy atoms:
               1
     1  O   -0.468818
     2  S    0.931716
     3  N   -0.290071
     4  C    0.407763
     5  C   -0.059081
     6  C    0.041389
     7  C   -0.040315
     8  C    0.048013
     9  C   -0.156471
    10  C   -0.064924
    11  C    0.063742
    12  C   -0.102040
    13  C    0.239663
    14  C   -0.025573
    15  C   -0.085620
    16  C    0.045432
    17  O   -0.484806
 Charge=   0.00000 Dipole=    -1.7030    -5.2554    -1.7349 Tot=     5.7905
 -----------------------------------------------------------------

              Electrostatic Properties (Atomic Units)

 -----------------------------------------------------------------
    Center     Electric         -------- Electric Field --------
               Potential          X             Y             Z
 -----------------------------------------------------------------
    1 Atom    -22.373377
    2 Atom    -59.026798
    3 Atom    -18.345600
    4 Atom    -14.712675
    5 Atom    -14.763164
    6 Atom    -14.758979
    7 Atom    -14.761226
    8 Atom    -14.756710
    9 Atom    -14.755802
   10 Atom    -14.732022
   11 Atom    -14.745692
   12 Atom    -14.752982
   13 Atom    -14.736847
   14 Atom    -14.755045
   15 Atom    -14.752125
   16 Atom    -14.744875
   17 Atom    -22.373239
   18 Atom     -1.001973
   19 Atom     -1.101925
   20 Atom     -1.099705
   21 Atom     -1.099249
   22 Atom     -1.096081
   23 Atom     -1.087785
   24 Atom     -1.088678
   25 Atom     -1.091438
   26 Atom     -1.100378
   27 Atom     -1.100240
   28 Atom     -1.097642
   29 Atom     -1.090251
   30 Atom     -1.086169
 -----------------------------------------------------------------
 Unable to Open any file for archive entry.
 1\1\GINC-NOTCH205\SP\RwB97XD\def2TZVP\C13H13N1O2S1\U1366379\17-Feb-202
 6\0\\#N Guess=Read Geom=Check Integral(Ultrafine) Density Pop=(ChelpG,
 ReadRadii) NMR wB97XD def2TZVP\\prod_5l_42\\0,1\O,0,0.1724579568,2.449
 2020934,1.0245266975\S,0,-0.0781978767,1.9999712731,-0.3307783167\N,0,
 1.3423491739,1.3099245528,-0.9054476672\C,0,1.9608149237,0.2347479675,
 -0.2213370066\C,0,2.4534306023,0.4193563189,1.0753873466\C,0,3.0452456
 563,-0.6480286119,1.7453466842\C,0,3.1765582698,-1.8915306642,1.126662
 0033\C,0,2.6994568848,-2.0682814892,-0.1709487723\C,0,2.080441012,-1.0
 145707759,-0.8391344937\C,0,-1.2311217428,0.6467620745,-0.2517967335\C
 ,0,-1.249337351,-0.1783901588,0.8718526124\C,0,-2.1047675403,-1.275228
 0696,0.8889560652\C,0,-2.9484536523,-1.5550729118,-0.1936710371\C,0,-3
 .8963136038,-2.7235154331,-0.1473307018\C,0,-2.9133269507,-0.703163484
 7,-1.3052622264\C,0,-2.0598748743,0.3950473583,-1.3433408933\O,0,-0.49
 50223639,2.9023697008,-1.3869858263\H,0,1.2899049364,1.2141499608,-1.9
 158753874\H,0,2.3578964039,1.3987393693,1.5441446029\H,0,3.4234552812,
 -0.4994643521,2.7590915069\H,0,3.6533130724,-2.7201790938,1.6539882977
 \H,0,2.7961668971,-3.0373050913,-0.6651581863\H,0,1.6811676123,-1.1596
 363044,-1.8461764396\H,0,-0.601786118,0.0432892381,1.7216014044\H,0,-2
 .1189092916,-1.9274947137,1.7656105244\H,0,-4.1239285922,-3.0982877956
 ,-1.1550545971\H,0,-3.4837241209,-3.5523969012,0.4449712494\H,0,-4.849
 9682261,-2.4275180364,0.318870464\H,0,-3.5695013468,-0.9011584036,-2.1
 565539671\H,0,-2.0397650317,1.0662723837,-2.2039872065\\Version=ES64L-
 G16RevC.01\State=1-A\HF=-1106.6304771\RMSD=3.937e-09\Dipole=-0.3289265
 ,-2.2975283,-0.3050026\Quadrupole=4.0638321,-7.9284788,3.8646467,2.726
 7018,2.2209111,-0.3775728\PG=C01 [X(C13H13N1O2S1)]\\@
 The archive entry for this job was punched.


 WE DON'T KNOW ONE MILLIONTH OF ONE PERCENT ABOUT
 ANYTHING.
                                     T. A. EDISON.
 Job cpu time:       0 days  1 hours 53 minutes 24.2 seconds.
 Elapsed time:       0 days  0 hours  7 minutes 31.0 seconds.
 File lengths (MBytes):  RWF=    226 Int=      0 D2E=      0 Chk=     33 Scr=      2
 Normal termination of Gaussian 16 at Tue Feb 17 21:52:08 2026.
