 Entering Gaussian System, Link 0=g16
 Input=prod_5g_9.com
 Output=prod_5g_9.log
 Initial command:
 /uufs/chpc.utah.edu/sys/installdir/gaussian16/C01/AVX/g16/l1.exe "/scratch/general/vast/u1366379/GAUSSSCRDIR/11028670-notchpeak.peaks/Gau-2594406.inp" -scrdir="/scratch/general/vast/u1366379/GAUSSSCRDIR/11028670-notchpeak.peaks/"
 Entering Link 1 = /uufs/chpc.utah.edu/sys/installdir/gaussian16/C01/AVX/g16/l1.exe PID=   2594410.
  
 Copyright (c) 1988-2019, Gaussian, Inc.  All Rights Reserved.
  
 This is part of the Gaussian(R) 16 program.  It is based on
 the Gaussian(R) 09 system (copyright 2009, Gaussian, Inc.),
 the Gaussian(R) 03 system (copyright 2003, Gaussian, Inc.),
 the Gaussian(R) 98 system (copyright 1998, Gaussian, Inc.),
 the Gaussian(R) 94 system (copyright 1995, Gaussian, Inc.),
 the Gaussian 92(TM) system (copyright 1992, Gaussian, Inc.),
 the Gaussian 90(TM) system (copyright 1990, Gaussian, Inc.),
 the Gaussian 88(TM) system (copyright 1988, Gaussian, Inc.),
 the Gaussian 86(TM) system (copyright 1986, Carnegie Mellon
 University), and the Gaussian 82(TM) system (copyright 1983,
 Carnegie Mellon University). Gaussian is a federally registered
 trademark of Gaussian, Inc.
  
 This software contains proprietary and confidential information,
 including trade secrets, belonging to Gaussian, Inc.
  
 This software is provided under written license and may be
 used, copied, transmitted, or stored only in accord with that
 written license.
  
 The following legend is applicable only to US Government
 contracts under FAR:
  
                    RESTRICTED RIGHTS LEGEND
  
 Use, reproduction and disclosure by the US Government is
 subject to restrictions as set forth in subparagraphs (a)
 and (c) of the Commercial Computer Software - Restricted
 Rights clause in FAR 52.227-19.
  
 Gaussian, Inc.
 340 Quinnipiac St., Bldg. 40, Wallingford CT 06492
  
  
 ---------------------------------------------------------------
 Warning -- This program may not be used in any manner that
 competes with the business of Gaussian, Inc. or will provide
 assistance to any competitor of Gaussian, Inc.  The licensee
 of this program is prohibited from giving any competitor of
 Gaussian, Inc. access to this program.  By using this program,
 the user acknowledges that Gaussian, Inc. is engaged in the
 business of creating and licensing software in the field of
 computational chemistry and represents and warrants to the
 licensee that it is not a competitor of Gaussian, Inc. and that
 it will not use this program in any manner prohibited above.
 ---------------------------------------------------------------
  

 Cite this work as:
 Gaussian 16, Revision C.01,
 M. J. Frisch, G. W. Trucks, H. B. Schlegel, G. E. Scuseria, 
 M. A. Robb, J. R. Cheeseman, G. Scalmani, V. Barone, 
 G. A. Petersson, H. Nakatsuji, X. Li, M. Caricato, A. V. Marenich, 
 J. Bloino, B. G. Janesko, R. Gomperts, B. Mennucci, H. P. Hratchian, 
 J. V. Ortiz, A. F. Izmaylov, J. L. Sonnenberg, D. Williams-Young, 
 F. Ding, F. Lipparini, F. Egidi, J. Goings, B. Peng, A. Petrone, 
 T. Henderson, D. Ranasinghe, V. G. Zakrzewski, J. Gao, N. Rega, 
 G. Zheng, W. Liang, M. Hada, M. Ehara, K. Toyota, R. Fukuda, 
 J. Hasegawa, M. Ishida, T. Nakajima, Y. Honda, O. Kitao, H. Nakai, 
 T. Vreven, K. Throssell, J. A. Montgomery, Jr., J. E. Peralta, 
 F. Ogliaro, M. J. Bearpark, J. J. Heyd, E. N. Brothers, K. N. Kudin, 
 V. N. Staroverov, T. A. Keith, R. Kobayashi, J. Normand, 
 K. Raghavachari, A. P. Rendell, J. C. Burant, S. S. Iyengar, 
 J. Tomasi, M. Cossi, J. M. Millam, M. Klene, C. Adamo, R. Cammi, 
 J. W. Ochterski, R. L. Martin, K. Morokuma, O. Farkas, 
 J. B. Foresman, and D. J. Fox, Gaussian, Inc., Wallingford CT, 2019.
 
 ******************************************
 Gaussian 16:  ES64L-G16RevC.01  3-Jul-2019
                17-Feb-2026 
 ******************************************
 %NProcShared=8
 Will use up to    8 processors via shared memory.
 %Mem=8GB
 %chk=prod_5g_9.chk
 ------------------------------------------------------
 #N OPT FREQ=NORAMAN Integral(Ultrafine) wB97XD def2SVP
 ------------------------------------------------------
 1/18=20,19=15,26=4,38=1/1,3;
 2/9=110,12=2,17=6,18=5,40=1/2;
 3/5=43,7=101,11=2,25=1,30=1,71=1,74=-58,75=-5/1,2,3;
 4//1;
 5/5=2,38=5/2;
 6/7=2,8=2,9=2,10=2,28=1/1;
 7//1,2,3,16;
 1/18=20,19=15,26=4/3(2);
 2/9=110/2;
 99//99;
 2/9=110/2;
 3/5=43,7=101,11=2,25=1,30=1,71=1,74=-58,75=-5/1,2,3;
 4/5=5,16=3,69=1/1;
 5/5=2,38=5/2;
 7//1,2,3,16;
 1/18=20,19=15,26=4/3(-5);
 2/9=110/2;
 6/7=2,8=2,9=2,10=2,19=2,28=1/1;
 99/9=1/99;
 ---------
 prod_5g_9
 ---------
 Symbolic Z-matrix:
 Charge =  0 Multiplicity = 1
 C                    -5.10402   1.20451  -0.50661 
 O                    -3.91711   1.43923   0.21121 
 C                    -2.83944   0.62028  -0.15237 
 C                    -1.6374    0.80787   0.52592 
 C                    -0.50501   0.05398   0.24261 
 N                     0.71467   0.24776   0.95533 
 C                     0.68263   0.93842   2.24404 
 C                     1.98049  -0.17526   0.43308 
 C                     2.91292  -0.82571   1.24123 
 C                     4.12767  -1.22494   0.73085 
 C                     4.43803  -0.98238  -0.59319 
 C                     3.52692  -0.33818  -1.40729 
 C                     2.31119   0.06187  -0.90098 
 C                    -0.59773  -0.92359  -0.74733 
 C                    -1.77685  -1.12529  -1.4295 
 C                    -2.88865  -0.36494  -1.14236 
 H                    -4.93862   1.3881   -1.56883 
 H                    -5.86995   1.89109  -0.14456 
 H                    -5.44156   0.18053  -0.34256 
 H                    -1.60289   1.56917   1.28094 
 H                     0.42636   1.98615   2.09975 
 H                     1.65443   0.89638   2.7309 
 H                    -0.05404   0.47632   2.89858 
 H                     2.66084  -1.03698   2.26556 
 H                     4.83718  -1.73106   1.36499 
 H                     5.38967  -1.29558  -0.99053 
 H                     3.76926  -0.14615  -2.43977 
 H                     1.60369   0.57807  -1.52621 
 H                     0.26196  -1.53361  -0.961 
 H                    -1.83039  -1.88583  -2.19138 
 H                    -3.80141  -0.53477  -1.68355 
 

 GradGradGradGradGradGradGradGradGradGradGradGradGradGradGradGradGradGrad
 Berny optimization.
 Initialization pass.
                           ----------------------------
                           !    Initial Parameters    !
                           ! (Angstroms and Degrees)  !
 --------------------------                            --------------------------
 ! Name  Definition              Value          Derivative Info.                !
 --------------------------------------------------------------------------------
 ! R1    R(1,2)                  1.4068         estimate D2E/DX2                !
 ! R2    R(1,17)                 1.0906         estimate D2E/DX2                !
 ! R3    R(1,18)                 1.0905         estimate D2E/DX2                !
 ! R4    R(1,19)                 1.0906         estimate D2E/DX2                !
 ! R5    R(2,3)                  1.4015         estimate D2E/DX2                !
 ! R6    R(3,4)                  1.3929         estimate D2E/DX2                !
 ! R7    R(3,16)                 1.3976         estimate D2E/DX2                !
 ! R8    R(4,5)                  1.3896         estimate D2E/DX2                !
 ! R9    R(4,20)                 1.0728         estimate D2E/DX2                !
 ! R10   R(5,6)                  1.4259         estimate D2E/DX2                !
 ! R11   R(5,14)                 1.3944         estimate D2E/DX2                !
 ! R12   R(6,7)                  1.4625         estimate D2E/DX2                !
 ! R13   R(6,8)                  1.4332         estimate D2E/DX2                !
 ! R14   R(7,21)                 1.0882         estimate D2E/DX2                !
 ! R15   R(7,22)                 1.0877         estimate D2E/DX2                !
 ! R16   R(7,23)                 1.0884         estimate D2E/DX2                !
 ! R17   R(8,9)                  1.3949         estimate D2E/DX2                !
 ! R18   R(8,13)                 1.3947         estimate D2E/DX2                !
 ! R19   R(9,10)                 1.3768         estimate D2E/DX2                !
 ! R20   R(9,24)                 1.0758         estimate D2E/DX2                !
 ! R21   R(10,11)                1.3814         estimate D2E/DX2                !
 ! R22   R(10,25)                1.0778         estimate D2E/DX2                !
 ! R23   R(11,12)                1.3813         estimate D2E/DX2                !
 ! R24   R(11,26)                1.0778         estimate D2E/DX2                !
 ! R25   R(12,13)                1.3764         estimate D2E/DX2                !
 ! R26   R(12,27)                1.0778         estimate D2E/DX2                !
 ! R27   R(13,28)                1.0761         estimate D2E/DX2                !
 ! R28   R(14,15)                1.3771         estimate D2E/DX2                !
 ! R29   R(14,29)                1.0756         estimate D2E/DX2                !
 ! R30   R(15,16)                1.3772         estimate D2E/DX2                !
 ! R31   R(15,30)                1.0778         estimate D2E/DX2                !
 ! R32   R(16,31)                1.0746         estimate D2E/DX2                !
 ! A1    A(2,1,17)             109.9338         estimate D2E/DX2                !
 ! A2    A(2,1,18)             108.5503         estimate D2E/DX2                !
 ! A3    A(2,1,19)             109.9394         estimate D2E/DX2                !
 ! A4    A(17,1,18)            108.8997         estimate D2E/DX2                !
 ! A5    A(17,1,19)            110.5797         estimate D2E/DX2                !
 ! A6    A(18,1,19)            108.8948         estimate D2E/DX2                !
 ! A7    A(1,2,3)              114.7638         estimate D2E/DX2                !
 ! A8    A(2,3,4)              117.2935         estimate D2E/DX2                !
 ! A9    A(2,3,16)             124.6541         estimate D2E/DX2                !
 ! A10   A(4,3,16)             118.0524         estimate D2E/DX2                !
 ! A11   A(3,4,5)              122.0667         estimate D2E/DX2                !
 ! A12   A(3,4,20)             117.7791         estimate D2E/DX2                !
 ! A13   A(5,4,20)             120.1518         estimate D2E/DX2                !
 ! A14   A(4,5,6)              121.4281         estimate D2E/DX2                !
 ! A15   A(4,5,14)             118.0943         estimate D2E/DX2                !
 ! A16   A(6,5,14)             120.4663         estimate D2E/DX2                !
 ! A17   A(5,6,7)              119.0713         estimate D2E/DX2                !
 ! A18   A(5,6,8)              122.2249         estimate D2E/DX2                !
 ! A19   A(7,6,8)              118.6755         estimate D2E/DX2                !
 ! A20   A(6,7,21)             110.06           estimate D2E/DX2                !
 ! A21   A(6,7,22)             110.8904         estimate D2E/DX2                !
 ! A22   A(6,7,23)             110.1358         estimate D2E/DX2                !
 ! A23   A(21,7,22)            107.8754         estimate D2E/DX2                !
 ! A24   A(21,7,23)            109.2149         estimate D2E/DX2                !
 ! A25   A(22,7,23)            108.6091         estimate D2E/DX2                !
 ! A26   A(6,8,9)              121.1268         estimate D2E/DX2                !
 ! A27   A(6,8,13)             120.5161         estimate D2E/DX2                !
 ! A28   A(9,8,13)             118.3564         estimate D2E/DX2                !
 ! A29   A(8,9,10)             120.6807         estimate D2E/DX2                !
 ! A30   A(8,9,24)             119.1163         estimate D2E/DX2                !
 ! A31   A(10,9,24)            120.1822         estimate D2E/DX2                !
 ! A32   A(9,10,11)            120.1744         estimate D2E/DX2                !
 ! A33   A(9,10,25)            119.9255         estimate D2E/DX2                !
 ! A34   A(11,10,25)           119.8997         estimate D2E/DX2                !
 ! A35   A(10,11,12)           119.9084         estimate D2E/DX2                !
 ! A36   A(10,11,26)           120.0473         estimate D2E/DX2                !
 ! A37   A(12,11,26)           120.0443         estimate D2E/DX2                !
 ! A38   A(11,12,13)           120.0915         estimate D2E/DX2                !
 ! A39   A(11,12,27)           119.96           estimate D2E/DX2                !
 ! A40   A(13,12,27)           119.9482         estimate D2E/DX2                !
 ! A41   A(8,13,12)            120.7884         estimate D2E/DX2                !
 ! A42   A(8,13,28)            118.7779         estimate D2E/DX2                !
 ! A43   A(12,13,28)           120.427          estimate D2E/DX2                !
 ! A44   A(5,14,15)            120.7519         estimate D2E/DX2                !
 ! A45   A(5,14,29)            119.0467         estimate D2E/DX2                !
 ! A46   A(15,14,29)           120.1924         estimate D2E/DX2                !
 ! A47   A(14,15,16)           120.4701         estimate D2E/DX2                !
 ! A48   A(14,15,30)           119.7383         estimate D2E/DX2                !
 ! A49   A(16,15,30)           119.7913         estimate D2E/DX2                !
 ! A50   A(3,16,15)            120.5622         estimate D2E/DX2                !
 ! A51   A(3,16,31)            119.8711         estimate D2E/DX2                !
 ! A52   A(15,16,31)           119.5664         estimate D2E/DX2                !
 ! D1    D(17,1,2,3)           -61.0092         estimate D2E/DX2                !
 ! D2    D(18,1,2,3)           179.9693         estimate D2E/DX2                !
 ! D3    D(19,1,2,3)            60.9504         estimate D2E/DX2                !
 ! D4    D(1,2,3,4)           -179.9801         estimate D2E/DX2                !
 ! D5    D(1,2,3,16)             0.019          estimate D2E/DX2                !
 ! D6    D(2,3,4,5)           -179.7922         estimate D2E/DX2                !
 ! D7    D(2,3,4,20)            -0.3528         estimate D2E/DX2                !
 ! D8    D(16,3,4,5)             0.2087         estimate D2E/DX2                !
 ! D9    D(16,3,4,20)          179.6481         estimate D2E/DX2                !
 ! D10   D(2,3,16,15)         -179.8433         estimate D2E/DX2                !
 ! D11   D(2,3,16,31)           -0.0335         estimate D2E/DX2                !
 ! D12   D(4,3,16,15)            0.1558         estimate D2E/DX2                !
 ! D13   D(4,3,16,31)          179.9655         estimate D2E/DX2                !
 ! D14   D(3,4,5,6)           -179.3233         estimate D2E/DX2                !
 ! D15   D(3,4,5,14)            -0.5362         estimate D2E/DX2                !
 ! D16   D(20,4,5,6)             1.2502         estimate D2E/DX2                !
 ! D17   D(20,4,5,14)         -179.9626         estimate D2E/DX2                !
 ! D18   D(4,5,6,7)             18.5399         estimate D2E/DX2                !
 ! D19   D(4,5,6,8)           -159.4996         estimate D2E/DX2                !
 ! D20   D(14,5,6,7)          -160.2188         estimate D2E/DX2                !
 ! D21   D(14,5,6,8)            21.7418         estimate D2E/DX2                !
 ! D22   D(4,5,14,15)            0.5103         estimate D2E/DX2                !
 ! D23   D(4,5,14,29)         -178.3994         estimate D2E/DX2                !
 ! D24   D(6,5,14,15)          179.3096         estimate D2E/DX2                !
 ! D25   D(6,5,14,29)            0.3999         estimate D2E/DX2                !
 ! D26   D(5,6,7,21)           -68.3019         estimate D2E/DX2                !
 ! D27   D(5,6,7,22)           172.4144         estimate D2E/DX2                !
 ! D28   D(5,6,7,23)            52.1666         estimate D2E/DX2                !
 ! D29   D(8,6,7,21)           109.8077         estimate D2E/DX2                !
 ! D30   D(8,6,7,22)            -9.476          estimate D2E/DX2                !
 ! D31   D(8,6,7,23)          -129.7238         estimate D2E/DX2                !
 ! D32   D(5,6,8,9)           -136.1667         estimate D2E/DX2                !
 ! D33   D(5,6,8,13)            44.1466         estimate D2E/DX2                !
 ! D34   D(7,6,8,9)             45.7864         estimate D2E/DX2                !
 ! D35   D(7,6,8,13)          -133.9003         estimate D2E/DX2                !
 ! D36   D(6,8,9,10)          -179.8245         estimate D2E/DX2                !
 ! D37   D(6,8,9,24)             1.8335         estimate D2E/DX2                !
 ! D38   D(13,8,9,10)           -0.1312         estimate D2E/DX2                !
 ! D39   D(13,8,9,24)         -178.4732         estimate D2E/DX2                !
 ! D40   D(6,8,13,12)          179.7927         estimate D2E/DX2                !
 ! D41   D(6,8,13,28)            0.724          estimate D2E/DX2                !
 ! D42   D(9,8,13,12)            0.0975         estimate D2E/DX2                !
 ! D43   D(9,8,13,28)         -178.9712         estimate D2E/DX2                !
 ! D44   D(8,9,10,11)            0.0996         estimate D2E/DX2                !
 ! D45   D(8,9,10,25)         -179.693          estimate D2E/DX2                !
 ! D46   D(24,9,10,11)         178.424          estimate D2E/DX2                !
 ! D47   D(24,9,10,25)          -1.3686         estimate D2E/DX2                !
 ! D48   D(9,10,11,12)          -0.0313         estimate D2E/DX2                !
 ! D49   D(9,10,11,26)         179.9849         estimate D2E/DX2                !
 ! D50   D(25,10,11,12)        179.7614         estimate D2E/DX2                !
 ! D51   D(25,10,11,26)         -0.2224         estimate D2E/DX2                !
 ! D52   D(10,11,12,13)         -0.0025         estimate D2E/DX2                !
 ! D53   D(10,11,12,27)        179.8361         estimate D2E/DX2                !
 ! D54   D(26,11,12,13)        179.9813         estimate D2E/DX2                !
 ! D55   D(26,11,12,27)         -0.1801         estimate D2E/DX2                !
 ! D56   D(11,12,13,8)          -0.0319         estimate D2E/DX2                !
 ! D57   D(11,12,13,28)        179.0214         estimate D2E/DX2                !
 ! D58   D(27,12,13,8)        -179.8706         estimate D2E/DX2                !
 ! D59   D(27,12,13,28)         -0.8172         estimate D2E/DX2                !
 ! D60   D(5,14,15,16)          -0.164          estimate D2E/DX2                !
 ! D61   D(5,14,15,30)        -179.9738         estimate D2E/DX2                !
 ! D62   D(29,14,15,16)        178.7332         estimate D2E/DX2                !
 ! D63   D(29,14,15,30)         -1.0766         estimate D2E/DX2                !
 ! D64   D(14,15,16,3)          -0.1778         estimate D2E/DX2                !
 ! D65   D(14,15,16,31)       -179.9881         estimate D2E/DX2                !
 ! D66   D(30,15,16,3)         179.6319         estimate D2E/DX2                !
 ! D67   D(30,15,16,31)         -0.1784         estimate D2E/DX2                !
 --------------------------------------------------------------------------------
 Trust Radius=3.00D-01 FncErr=1.00D-07 GrdErr=1.00D-06 EigMax=2.50D+02 EigMin=1.00D-04
 Number of steps in this run=    161 maximum allowed number of steps=    186.
 GradGradGradGradGradGradGradGradGradGradGradGradGradGradGradGradGradGrad

                          Input orientation:                          
 ---------------------------------------------------------------------
 Center     Atomic      Atomic             Coordinates (Angstroms)
 Number     Number       Type             X           Y           Z
 ---------------------------------------------------------------------
      1          6           0       -5.104020    1.204510   -0.506610
      2          8           0       -3.917110    1.439230    0.211210
      3          6           0       -2.839440    0.620280   -0.152370
      4          6           0       -1.637400    0.807870    0.525920
      5          6           0       -0.505010    0.053980    0.242610
      6          7           0        0.714670    0.247760    0.955330
      7          6           0        0.682630    0.938420    2.244040
      8          6           0        1.980490   -0.175260    0.433080
      9          6           0        2.912920   -0.825710    1.241230
     10          6           0        4.127670   -1.224940    0.730850
     11          6           0        4.438030   -0.982380   -0.593190
     12          6           0        3.526920   -0.338180   -1.407290
     13          6           0        2.311190    0.061870   -0.900980
     14          6           0       -0.597730   -0.923590   -0.747330
     15          6           0       -1.776850   -1.125290   -1.429500
     16          6           0       -2.888650   -0.364940   -1.142360
     17          1           0       -4.938620    1.388100   -1.568830
     18          1           0       -5.869950    1.891090   -0.144560
     19          1           0       -5.441560    0.180530   -0.342560
     20          1           0       -1.602890    1.569170    1.280940
     21          1           0        0.426360    1.986150    2.099750
     22          1           0        1.654430    0.896380    2.730900
     23          1           0       -0.054040    0.476320    2.898580
     24          1           0        2.660840   -1.036980    2.265560
     25          1           0        4.837180   -1.731060    1.364990
     26          1           0        5.389670   -1.295580   -0.990530
     27          1           0        3.769260   -0.146150   -2.439770
     28          1           0        1.603690    0.578070   -1.526210
     29          1           0        0.261960   -1.533610   -0.961000
     30          1           0       -1.830390   -1.885830   -2.191380
     31          1           0       -3.801410   -0.534770   -1.683550
 ---------------------------------------------------------------------
                    Distance matrix (angstroms):
                    1          2          3          4          5
     1  C    0.000000
     2  O    1.406810   0.000000
     3  C    2.365403   1.401514   0.000000
     4  C    3.638804   2.386364   1.392899   0.000000
     5  C    4.799577   3.682707   2.434393   1.389576   0.000000
     6  N    6.075343   4.840114   3.741319   2.455677   1.425882
     7  C    6.412659   5.053792   4.271881   2.889899   2.489668
     8  C    7.278535   6.118618   4.920098   3.750239   2.503306
     9  C    8.452696   7.269127   6.092836   4.887296   3.667880
    10  C    9.625884   8.490366   7.261235   6.116400   4.830708
    11  C    9.789826   8.736110   7.464878   6.431816   5.119204
    12  C    8.813866   7.822551   6.559269   5.632134   4.374062
    13  C    7.513088   6.475014   5.234618   4.264261   3.039546
    14  C    4.989329   4.185690   2.786176   2.387474   1.394353
    15  C    4.165304   3.721479   2.409808   2.753220   2.409192
    16  C    2.788407   2.478893   1.397555   2.392544   2.788436
    17  H    1.090584   2.052959   2.646217   3.952556   4.971729
    18  H    1.090468   2.035764   3.286185   4.420112   5.683965
    19  H    1.090587   2.053031   2.645861   3.952145   4.972722
    20  H    3.947939   2.552806   2.117505   1.072765   2.139923
    21  H    6.163536   4.767750   4.195604   2.850332   2.837199
    22  H    7.500204   6.138858   5.346433   3.963069   3.400648
    23  H    6.134157   4.803380   4.133700   2.871667   2.726889
    24  H    8.544136   7.322663   6.232654   4.990459   3.912177
    25  H   10.533182   9.381873   8.170782   7.005026   5.743266
    26  H   10.798248   9.774432   8.490659   7.490249   6.171645
    27  H    9.181312   8.283804   7.035235   6.239987   5.050208
    28  H    6.813618   5.851449   4.650873   3.843008   2.801787
    29  H    6.041317   5.260844   3.861581   3.361700   2.134798
    30  H    4.806798   4.602484   3.384720   3.831055   3.382869
    31  H    2.471250   2.738645   2.145702   3.371554   3.863026
                    6          7          8          9         10
     6  N    0.000000
     7  C    1.462468   0.000000
     8  C    1.433175   2.490843   0.000000
     9  C    2.463002   3.015290   1.394854   0.000000
    10  C    3.723950   4.340296   2.408501   1.376768   0.000000
    11  C    4.215990   5.083540   2.782836   2.390733   1.381391
    12  C    3.719415   4.801240   2.409346   2.762126   2.391419
    13  C    2.455467   3.648520   1.394743   2.395609   2.760136
    14  C    2.448164   3.748960   2.932675   4.035916   4.960366
    15  C    3.712190   4.878815   4.299926   5.405228   6.288116
    16  C    4.214216   5.091217   5.121183   6.289040   7.312815
    17  H    6.295351   6.807249   7.370605   8.628098   9.711546
    18  H    6.875137   7.039126   8.138358   9.297323  10.508491
    19  H    6.291916   6.691084   7.470946   8.562607   9.731275
    20  H    2.687607   2.559103   4.074618   5.111709   6.399138
    21  H    2.101147   1.088224   3.140828   3.850532   5.087699
    22  H    2.111044   1.087748   2.556307   2.601636   3.823234
    23  H    2.102231   1.088412   3.262294   3.639360   5.007997
    24  H    2.674853   2.795708   2.136216   1.075840   2.131256
    25  H    4.591148   5.015889   3.383733   2.130200   1.077820
    26  H    5.293760   6.132652   3.860608   3.366871   2.135599
    27  H    4.583927   5.713287   3.384348   3.839906   3.368245
    28  H    2.656596   3.897818   2.132675   3.367997   3.836097
    29  H    2.655286   4.069420   2.596521   3.518313   4.230998
    30  H    4.575076   5.827916   4.933219   5.950265   6.668934
    31  H    5.288764   6.140266   6.167636   7.329476   8.317209
                   11         12         13         14         15
    11  C    0.000000
    12  C    1.381258   0.000000
    13  C    2.389276   1.376368   0.000000
    14  C    5.038461   4.217937   3.075151   0.000000
    15  C    6.272525   5.361904   4.289610   1.377085   0.000000
    16  C    7.373131   6.421094   5.222908   2.390910   1.377200
    17  H    9.720731   8.641268   7.400314   4.986191   4.041452
    18  H   10.710395   9.739882   8.417201   6.006834   5.244339
    19  H    9.950953   9.046344   7.773741   4.984537   4.039394
    20  H    6.820226   6.097501   4.727870   3.367206   3.825815
    21  H    5.670766   5.226405   4.032346   4.197763   5.195267
    22  H    4.725224   4.706907   3.783952   4.525771   5.759319
    23  H    5.873581   5.659258   4.494746   3.943096   4.926003
    24  H    3.366576   3.837739   3.369971   4.439442   5.775323
    25  H    2.134083   3.367853   3.837948   5.886608   7.205659
    26  H    1.077772   2.135449   3.365669   6.003872   7.181971
    27  H    2.134571   1.077784   2.130050   4.747564   5.721774
    28  H    3.367345   2.133652   1.076072   2.776308   3.786666
    29  H    4.228321   3.505452   2.597788   1.075568   2.131423
    30  H    6.531732   5.631233   4.755140   2.128529   1.077844
    31  H    8.323317   7.336170   6.191306   3.360246   2.124170
                   16         17         18         19         20
    16  C    0.000000
    17  H    2.730825   0.000000
    18  H    3.869551   1.774520   0.000000
    19  H    2.730305   1.793018   1.774468   0.000000
    20  H    3.356537   4.391022   4.510375   4.393115   0.000000
    21  H    5.198865   6.526803   6.685019   6.607392   2.227595
    22  H    6.101856   7.886557   8.116281   7.766059   3.628383
    23  H    5.007188   6.681932   6.714692   6.294271   2.491990
    24  H    6.546938   8.850726   9.335773   8.598460   5.093220
    25  H    8.236597  10.672522  11.403567  10.593507   7.236925
    26  H    8.331850  10.686915  11.732416  10.950539   7.890644
    27  H    6.786671   8.884798  10.115963   9.452207   6.756182
    28  H    4.606270   6.592404   7.712864   7.155041   4.375446
    29  H    3.365267   5.995989   7.070747   5.987561   4.258075
    30  H    2.129193   4.557113   5.896833   4.552859   4.903650
    31  H    1.074644   2.236926   3.540077   2.236068   4.248324
                   21         22         23         24         25
    21  H    0.000000
    22  H    1.759007   0.000000
    23  H    1.774401   1.767325   0.000000
    24  H    3.762939   2.228740   3.171965   0.000000
    25  H    5.814882   4.347304   5.581080   2.455449   0.000000
    26  H    6.704777   5.710144   6.920895   4.256232   2.458325
    27  H    6.027348   5.682887   6.595686   4.915517   4.257768
    28  H    4.064035   4.269295   4.726223   4.254818   4.913917
    29  H    4.667326   4.633999   4.363030   4.051167   5.136327
    30  H    6.204752   6.641800   5.885819   6.384043   7.558321
    31  H    6.208255   7.162524   6.005081   7.590017   9.238503
                   26         27         28         29         30
    26  H    0.000000
    27  H    2.459108   0.000000
    28  H    4.258070   2.459427   0.000000
    29  H    5.133317   4.051291   2.564936   0.000000
    30  H    7.343004   5.868924   4.278570   2.452717   0.000000
    31  H    9.248517   7.618263   5.520713   4.246261   2.442985
                   31
    31  H    0.000000
 Stoichiometry    C14H15NO
 Framework group  C1[X(C14H15NO)]
 Deg. of freedom    87
 Full point group                 C1      NOp   1
 Largest Abelian subgroup         C1      NOp   1
 Largest concise Abelian subgroup C1      NOp   1
                         Standard orientation:                         
 ---------------------------------------------------------------------
 Center     Atomic      Atomic             Coordinates (Angstroms)
 Number     Number       Type             X           Y           Z
 ---------------------------------------------------------------------
      1          6           0        5.247439   -0.079089    0.280589
      2          8           0        4.083726    0.697706    0.427133
      3          6           0        2.896052    0.051130    0.058877
      4          6           0        1.711101    0.772746    0.182684
      5          6           0        0.477045    0.227405   -0.149928
      6          7           0       -0.726157    0.983298   -0.031308
      7          6           0       -0.644517    2.441363    0.047393
      8          6           0       -2.014278    0.360979    0.055034
      9          6           0       -3.100052    0.846782   -0.673462
     10          6           0       -4.334377    0.243994   -0.580836
     11          6           0       -4.511700   -0.852577    0.240339
     12          6           0       -3.447632   -1.345910    0.969898
     13          6           0       -2.211943   -0.746505    0.879484
     14          6           0        0.445533   -1.080824   -0.631347
     15          6           0        1.605608   -1.811315   -0.761626
     16          6           0        2.820454   -1.259349   -0.420800
     17          1           0        5.185061   -0.965256    0.913196
     18          1           0        6.104776    0.518107    0.592761
     19          1           0        5.376240   -0.362514   -0.764619
     20          1           0        1.773576    1.776238    0.556749
     21          1           0       -0.187948    2.739357    0.989187
     22          1           0       -1.635038    2.888407    0.000340
     23          1           0       -0.049248    2.828373   -0.777544
     24          1           0       -2.955559    1.685061   -1.332128
     25          1           0       -5.163848    0.626474   -1.153010
     26          1           0       -5.478911   -1.322719    0.311484
     27          1           0       -3.585684   -2.199806    1.612877
     28          1           0       -1.383101   -1.116652    1.457361
     29          1           0       -0.498492   -1.509194   -0.917986
     30          1           0        1.562353   -2.821155   -1.135925
     31          1           0        3.716711   -1.842441   -0.528445
 ---------------------------------------------------------------------
 Rotational constants (GHZ):           1.4952966           0.2562249           0.2314382
 Standard basis: def2SVP (5D, 7F)
 There are   315 symmetry adapted cartesian basis functions of A   symmetry.
 There are   299 symmetry adapted basis functions of A   symmetry.
   299 basis functions,   505 primitive gaussians,   315 cartesian basis functions
    57 alpha electrons       57 beta electrons
       nuclear repulsion energy      1022.7352017647 Hartrees.
 NAtoms=   31 NActive=   31 NUniq=   31 SFac= 1.00D+00 NAtFMM=   60 NAOKFM=F Big=F
 Integral buffers will be    131072 words long.
 Raffenetti 2 integral format.
 Two-electron integral symmetry is turned on.
 Nuclear repulsion after empirical dispersion term =     1022.7149716660 Hartrees.
 One-electron integrals computed using PRISM.
   1 Symmetry operations used in ECPInt.
 ECPInt:  NShTT=   10011 NPrTT=   36031 LenC2=    9215 LenP2D=   24025.
 LDataN:  DoStor=T MaxTD1= 4 Len=   56
 NBasis=   299 RedAO= T EigKep=  2.16D-04  NBF=   299
 NBsUse=   299 1.00D-06 EigRej= -1.00D+00 NBFU=   299
 ExpMin= 1.22D-01 ExpMax= 2.27D+03 ExpMxC= 3.41D+02 IAcc=3 IRadAn=         5 AccDes= 0.00D+00
 Harris functional with IExCor= 4639 and IRadAn=       5 diagonalized for initial guess.
 HarFok:  IExCor= 4639 AccDes= 0.00D+00 IRadAn=         5 IDoV= 1 UseB2=F ITyADJ=14
 ICtDFT=  3500011 ScaDFX=  1.000000  1.000000  1.000000  1.000000
 FoFCou: FMM=F IPFlag=           0 FMFlag=      100000 FMFlg1=           0
         NFxFlg=           0 DoJE=T BraDBF=F KetDBF=T FulRan=T
         wScrn=  0.000000 ICntrl=       500 IOpCl=  0 I1Cent=   200000004 NGrid=           0
         NMat0=    1 NMatS0=      1 NMatT0=    0 NMatD0=    1 NMtDS0=    0 NMtDT0=    0
 Petite list used in FoFCou.
 Requested convergence on RMS density matrix=1.00D-08 within 128 cycles.
 Requested convergence on MAX density matrix=1.00D-06.
 Requested convergence on             energy=1.00D-06.
 No special actions if energy rises.
 Integral accuracy reduced to 1.0D-05 until final iterations.
 Initial convergence to 1.0D-05 achieved.  Increase integral accuracy.
 SCF Done:  E(RwB97XD) =  -671.771880320     A.U. after   15 cycles
            NFock= 15  Conv=0.69D-08     -V/T= 2.0105

 **********************************************************************

            Population analysis using the SCF Density.

 **********************************************************************

 Orbital symmetries:
       Occupied  (A) (A) (A) (A) (A) (A) (A) (A) (A) (A) (A) (A)
                 (A) (A) (A) (A) (A) (A) (A) (A) (A) (A) (A) (A)
                 (A) (A) (A) (A) (A) (A) (A) (A) (A) (A) (A) (A)
                 (A) (A) (A) (A) (A) (A) (A) (A) (A) (A) (A) (A)
                 (A) (A) (A) (A) (A) (A) (A) (A) (A)
       Virtual   (A) (A) (A) (A) (A) (A) (A) (A) (A) (A) (A) (A)
                 (A) (A) (A) (A) (A) (A) (A) (A) (A) (A) (A) (A)
                 (A) (A) (A) (A) (A) (A) (A) (A) (A) (A) (A) (A)
                 (A) (A) (A) (A) (A) (A) (A) (A) (A) (A) (A) (A)
                 (A) (A) (A) (A) (A) (A) (A) (A) (A) (A) (A) (A)
                 (A) (A) (A) (A) (A) (A) (A) (A) (A) (A) (A) (A)
                 (A) (A) (A) (A) (A) (A) (A) (A) (A) (A) (A) (A)
                 (A) (A) (A) (A) (A) (A) (A) (A) (A) (A) (A) (A)
                 (A) (A) (A) (A) (A) (A) (A) (A) (A) (A) (A) (A)
                 (A) (A) (A) (A) (A) (A) (A) (A) (A) (A) (A) (A)
                 (A) (A) (A) (A) (A) (A) (A) (A) (A) (A) (A) (A)
                 (A) (A) (A) (A) (A) (A) (A) (A) (A) (A) (A) (A)
                 (A) (A) (A) (A) (A) (A) (A) (A) (A) (A) (A) (A)
                 (A) (A) (A) (A) (A) (A) (A) (A) (A) (A) (A) (A)
                 (A) (A) (A) (A) (A) (A) (A) (A) (A) (A) (A) (A)
                 (A) (A) (A) (A) (A) (A) (A) (A) (A) (A) (A) (A)
                 (A) (A) (A) (A) (A) (A) (A) (A) (A) (A) (A) (A)
                 (A) (A) (A) (A) (A) (A) (A) (A) (A) (A) (A) (A)
                 (A) (A) (A) (A) (A) (A) (A) (A) (A) (A) (A) (A)
                 (A) (A) (A) (A) (A) (A) (A) (A) (A) (A) (A) (A)
                 (A) (A)
 The electronic state is 1-A.
 Alpha  occ. eigenvalues --  -19.28122 -14.46489 -10.35678 -10.34513 -10.34042
 Alpha  occ. eigenvalues --  -10.34018 -10.32816 -10.29910 -10.29806 -10.29680
 Alpha  occ. eigenvalues --  -10.29633 -10.29422 -10.29312 -10.28578 -10.28576
 Alpha  occ. eigenvalues --  -10.28227  -1.14449  -1.04099  -0.95537  -0.93786
 Alpha  occ. eigenvalues --   -0.85153  -0.84856  -0.84071  -0.83047  -0.78134
 Alpha  occ. eigenvalues --   -0.77139  -0.70890  -0.69713  -0.69180  -0.66052
 Alpha  occ. eigenvalues --   -0.63274  -0.60681  -0.57928  -0.56852  -0.56436
 Alpha  occ. eigenvalues --   -0.55899  -0.55559  -0.53775  -0.52905  -0.51940
 Alpha  occ. eigenvalues --   -0.51293  -0.50979  -0.49649  -0.47668  -0.46706
 Alpha  occ. eigenvalues --   -0.46555  -0.45230  -0.44760  -0.43530  -0.42805
 Alpha  occ. eigenvalues --   -0.40946  -0.40725  -0.37500  -0.33556  -0.33486
 Alpha  occ. eigenvalues --   -0.30123  -0.26125
 Alpha virt. eigenvalues --    0.05591   0.06024   0.07658   0.09538   0.14123
 Alpha virt. eigenvalues --    0.15141   0.16072   0.16967   0.18383   0.19865
 Alpha virt. eigenvalues --    0.20190   0.20550   0.20743   0.21327   0.22153
 Alpha virt. eigenvalues --    0.22825   0.23070   0.23577   0.23877   0.24723
 Alpha virt. eigenvalues --    0.25080   0.26145   0.26996   0.31189   0.33091
 Alpha virt. eigenvalues --    0.34803   0.37032   0.37253   0.37415   0.37895
 Alpha virt. eigenvalues --    0.39732   0.40964   0.41947   0.43029   0.43373
 Alpha virt. eigenvalues --    0.45475   0.47884   0.49230   0.49327   0.49767
 Alpha virt. eigenvalues --    0.51000   0.53141   0.53556   0.54191   0.54547
 Alpha virt. eigenvalues --    0.56180   0.56411   0.56763   0.57965   0.58417
 Alpha virt. eigenvalues --    0.58922   0.59010   0.59656   0.61564   0.62650
 Alpha virt. eigenvalues --    0.63739   0.65160   0.65493   0.66223   0.67480
 Alpha virt. eigenvalues --    0.68477   0.69592   0.71630   0.71670   0.72321
 Alpha virt. eigenvalues --    0.73196   0.73436   0.74076   0.74370   0.74713
 Alpha virt. eigenvalues --    0.75318   0.75613   0.76465   0.76786   0.77013
 Alpha virt. eigenvalues --    0.77881   0.78103   0.78866   0.79965   0.80208
 Alpha virt. eigenvalues --    0.82111   0.82894   0.83689   0.84892   0.85280
 Alpha virt. eigenvalues --    0.86853   0.87400   0.88457   0.89397   0.90477
 Alpha virt. eigenvalues --    0.91727   0.92877   0.94182   0.96621   0.99303
 Alpha virt. eigenvalues --    1.01222   1.02653   1.03335   1.06001   1.08069
 Alpha virt. eigenvalues --    1.11054   1.13685   1.14413   1.17074   1.17543
 Alpha virt. eigenvalues --    1.21190   1.24313   1.26611   1.28420   1.29469
 Alpha virt. eigenvalues --    1.30645   1.31579   1.33016   1.33287   1.34680
 Alpha virt. eigenvalues --    1.35742   1.37259   1.37781   1.39056   1.39486
 Alpha virt. eigenvalues --    1.39967   1.40915   1.41902   1.44961   1.47453
 Alpha virt. eigenvalues --    1.55530   1.55871   1.58088   1.60481   1.61202
 Alpha virt. eigenvalues --    1.63988   1.64169   1.68087   1.71021   1.75116
 Alpha virt. eigenvalues --    1.76505   1.77364   1.78161   1.78940   1.79742
 Alpha virt. eigenvalues --    1.81046   1.82243   1.82866   1.83542   1.83934
 Alpha virt. eigenvalues --    1.84887   1.85472   1.86171   1.86589   1.87013
 Alpha virt. eigenvalues --    1.88951   1.89371   1.90134   1.90532   1.91494
 Alpha virt. eigenvalues --    1.92109   1.92734   1.93139   1.94609   1.96475
 Alpha virt. eigenvalues --    1.98279   1.98931   2.00510   2.01748   2.02543
 Alpha virt. eigenvalues --    2.04426   2.05230   2.06764   2.07379   2.08477
 Alpha virt. eigenvalues --    2.09933   2.11023   2.13496   2.16109   2.17294
 Alpha virt. eigenvalues --    2.20081   2.21418   2.23562   2.24999   2.26570
 Alpha virt. eigenvalues --    2.27435   2.28532   2.29231   2.29972   2.30811
 Alpha virt. eigenvalues --    2.32223   2.32969   2.34710   2.37137   2.38442
 Alpha virt. eigenvalues --    2.39934   2.40295   2.40970   2.42208   2.43476
 Alpha virt. eigenvalues --    2.44429   2.45593   2.46077   2.50297   2.52086
 Alpha virt. eigenvalues --    2.54466   2.57344   2.62685   2.65312   2.69229
 Alpha virt. eigenvalues --    2.70477   2.70825   2.72818   2.74089   2.75419
 Alpha virt. eigenvalues --    2.76872   2.77411   2.78440   2.82627   2.84627
 Alpha virt. eigenvalues --    2.85254   2.86600   2.87834   2.90447   2.92738
 Alpha virt. eigenvalues --    2.96150   2.97031   2.98149   2.98865   3.00646
 Alpha virt. eigenvalues --    3.00992   3.05245   3.05963   3.09012   3.11731
 Alpha virt. eigenvalues --    3.14772   3.15116   3.18530   3.25016   3.25238
 Alpha virt. eigenvalues --    3.29021   3.38863   3.42073   3.54226   3.55711
 Alpha virt. eigenvalues --    3.79253   3.82377
          Condensed to atoms (all electrons):
               1          2          3          4          5          6
     1  C    4.392140   0.301174  -0.058582   0.007082  -0.000240   0.000001
     2  O    0.301174   7.910139   0.398953  -0.079832   0.003848  -0.000004
     3  C   -0.058582   0.398953   5.032234   0.222768   0.166314   0.009815
     4  C    0.007082  -0.079832   0.222768   5.370720   0.223856  -0.098863
     5  C   -0.000240   0.003848   0.166314   0.223856   5.073896   0.348638
     6  N    0.000001  -0.000004   0.009815  -0.098863   0.348638   6.812862
     7  C    0.000001  -0.000018   0.000326   0.006342  -0.051973   0.337440
     8  C   -0.000000   0.000000  -0.000035   0.007294  -0.046460   0.307254
     9  C    0.000000  -0.000000   0.000003  -0.000429   0.004221  -0.075608
    10  C   -0.000000   0.000000  -0.000000   0.000001  -0.000181   0.008336
    11  C   -0.000000   0.000000  -0.000000   0.000001   0.000026  -0.000411
    12  C    0.000000   0.000000   0.000002  -0.000046   0.000101   0.009254
    13  C    0.000000   0.000000  -0.000029   0.000289  -0.005964  -0.077012
    14  C    0.000089  -0.000299  -0.180091   0.096021   0.223815  -0.088493
    15  C    0.001017   0.004834   0.148276  -0.153430   0.147147   0.009767
    16  C    0.000509  -0.082799   0.161080   0.056774  -0.180415  -0.001208
    17  H    0.403549  -0.030703  -0.009371  -0.000384   0.000045   0.000000
    18  H    0.397249  -0.020771   0.005066  -0.000011   0.000008  -0.000000
    19  H    0.403545  -0.030730  -0.009363  -0.000353   0.000032   0.000000
    20  H   -0.000220   0.003357  -0.068199   0.446214  -0.082897  -0.016991
    21  H    0.000000  -0.000012   0.001028   0.003442  -0.011739  -0.031461
    22  H    0.000000  -0.000000  -0.000068   0.000658   0.006118  -0.018315
    23  H    0.000000  -0.000000   0.000974   0.004771  -0.006224  -0.028063
    24  H   -0.000000   0.000000   0.000000  -0.000022  -0.000320  -0.010009
    25  H    0.000000  -0.000000   0.000000  -0.000000   0.000007  -0.000143
    26  H    0.000000   0.000000  -0.000000   0.000000   0.000001   0.000008
    27  H    0.000000  -0.000000   0.000000   0.000000  -0.000021  -0.000135
    28  H    0.000000   0.000000   0.000042  -0.000952   0.004120  -0.011878
    29  H   -0.000000   0.000004  -0.002227   0.016476  -0.070958  -0.015045
    30  H   -0.000034  -0.000060   0.014390  -0.002372   0.015474  -0.000121
    31  H    0.008155  -0.008073  -0.090814   0.014164  -0.001737   0.000008
               7          8          9         10         11         12
     1  C    0.000001  -0.000000   0.000000  -0.000000  -0.000000   0.000000
     2  O   -0.000018   0.000000  -0.000000   0.000000   0.000000   0.000000
     3  C    0.000326  -0.000035   0.000003  -0.000000  -0.000000   0.000002
     4  C    0.006342   0.007294  -0.000429   0.000001   0.000001  -0.000046
     5  C   -0.051973  -0.046460   0.004221  -0.000181   0.000026   0.000101
     6  N    0.337440   0.307254  -0.075608   0.008336  -0.000411   0.009254
     7  C    4.432063  -0.049540  -0.008205   0.000447   0.000003  -0.000106
     8  C   -0.049540   5.121311   0.279294   0.113646  -0.165808   0.119911
     9  C   -0.008205   0.279294   5.156930   0.279273   0.086187  -0.148944
    10  C    0.000447   0.113646   0.279273   5.046958   0.282554   0.099010
    11  C    0.000003  -0.165808   0.086187   0.282554   5.105468   0.272882
    12  C   -0.000106   0.119911  -0.148944   0.099010   0.272882   5.072798
    13  C    0.003976   0.274111   0.058841  -0.148336   0.088956   0.264219
    14  C    0.006579  -0.007205   0.000880   0.000052   0.000040  -0.001662
    15  C   -0.000270  -0.000362  -0.000052   0.000004  -0.000003   0.000030
    16  C    0.000079   0.000080  -0.000000  -0.000000   0.000000  -0.000003
    17  H   -0.000000   0.000000   0.000000  -0.000000   0.000000  -0.000000
    18  H    0.000000   0.000000  -0.000000   0.000000   0.000000  -0.000000
    19  H   -0.000000  -0.000000  -0.000000   0.000000  -0.000000   0.000000
    20  H    0.010693  -0.000027   0.000010   0.000000   0.000000  -0.000001
    21  H    0.400764   0.004318   0.000042   0.000032  -0.000003  -0.000073
    22  H    0.399792  -0.008278   0.003587   0.000462  -0.000071   0.000008
    23  H    0.402035   0.002447   0.001163  -0.000060   0.000000   0.000029
    24  H    0.001052  -0.071217   0.452286  -0.066502   0.014969  -0.002600
    25  H   -0.000013   0.015241  -0.065432   0.450159  -0.070790   0.014112
    26  H    0.000000  -0.001696   0.014659  -0.069818   0.453002  -0.069643
    27  H    0.000005   0.015316  -0.002187   0.014381  -0.072489   0.453134
    28  H   -0.000145  -0.068832   0.016252  -0.002525   0.014836  -0.070541
    29  H   -0.000099   0.006390  -0.001136   0.000041   0.000048  -0.000542
    30  H    0.000006  -0.000009   0.000001  -0.000000  -0.000000   0.000001
    31  H   -0.000001   0.000001   0.000000   0.000000  -0.000000  -0.000000
              13         14         15         16         17         18
     1  C    0.000000   0.000089   0.001017   0.000509   0.403549   0.397249
     2  O    0.000000  -0.000299   0.004834  -0.082799  -0.030703  -0.020771
     3  C   -0.000029  -0.180091   0.148276   0.161080  -0.009371   0.005066
     4  C    0.000289   0.096021  -0.153430   0.056774  -0.000384  -0.000011
     5  C   -0.005964   0.223815   0.147147  -0.180415   0.000045   0.000008
     6  N   -0.077012  -0.088493   0.009767  -0.001208   0.000000  -0.000000
     7  C    0.003976   0.006579  -0.000270   0.000079  -0.000000   0.000000
     8  C    0.274111  -0.007205  -0.000362   0.000080   0.000000   0.000000
     9  C    0.058841   0.000880  -0.000052  -0.000000   0.000000  -0.000000
    10  C   -0.148336   0.000052   0.000004  -0.000000  -0.000000   0.000000
    11  C    0.088956   0.000040  -0.000003   0.000000   0.000000   0.000000
    12  C    0.264219  -0.001662   0.000030  -0.000003  -0.000000  -0.000000
    13  C    5.161903  -0.004565  -0.000517  -0.000020  -0.000000   0.000000
    14  C   -0.004565   5.260207   0.244045   0.107284  -0.000099   0.000005
    15  C   -0.000517   0.244045   5.075673   0.200761   0.000717  -0.000036
    16  C   -0.000020   0.107284   0.200761   5.418886   0.006357   0.000221
    17  H   -0.000000  -0.000099   0.000717   0.006357   0.661150  -0.023797
    18  H    0.000000   0.000005  -0.000036   0.000221  -0.023797   0.615082
    19  H    0.000000  -0.000120   0.000700   0.006522  -0.043183  -0.023769
    20  H   -0.000021   0.017774  -0.003789   0.022877   0.000100  -0.000121
    21  H    0.000975  -0.000707   0.000079  -0.000088  -0.000000   0.000000
    22  H   -0.000019  -0.000102   0.000003   0.000004  -0.000000   0.000000
    23  H   -0.000564   0.000236  -0.000058  -0.000079   0.000000   0.000000
    24  H    0.016410  -0.000029   0.000002   0.000000  -0.000000  -0.000000
    25  H   -0.002036  -0.000002  -0.000000   0.000000   0.000000  -0.000000
    26  H    0.014778  -0.000001  -0.000000   0.000000  -0.000000   0.000000
    27  H   -0.067077   0.000035   0.000002  -0.000000  -0.000000   0.000000
    28  H    0.460968   0.002792  -0.000067  -0.000057  -0.000000  -0.000000
    29  H    0.002546   0.462359  -0.072006   0.016110   0.000001  -0.000000
    30  H    0.000032  -0.070115   0.455642  -0.070702   0.000031  -0.000001
    31  H    0.000000   0.016219  -0.062773   0.461054   0.000184  -0.000246
              19         20         21         22         23         24
     1  C    0.403545  -0.000220   0.000000   0.000000   0.000000  -0.000000
     2  O   -0.030730   0.003357  -0.000012  -0.000000  -0.000000   0.000000
     3  C   -0.009363  -0.068199   0.001028  -0.000068   0.000974   0.000000
     4  C   -0.000353   0.446214   0.003442   0.000658   0.004771  -0.000022
     5  C    0.000032  -0.082897  -0.011739   0.006118  -0.006224  -0.000320
     6  N    0.000000  -0.016991  -0.031461  -0.018315  -0.028063  -0.010009
     7  C   -0.000000   0.010693   0.400764   0.399792   0.402035   0.001052
     8  C   -0.000000  -0.000027   0.004318  -0.008278   0.002447  -0.071217
     9  C   -0.000000   0.000010   0.000042   0.003587   0.001163   0.452286
    10  C    0.000000   0.000000   0.000032   0.000462  -0.000060  -0.066502
    11  C   -0.000000   0.000000  -0.000003  -0.000071   0.000000   0.014969
    12  C    0.000000  -0.000001  -0.000073   0.000008   0.000029  -0.002600
    13  C    0.000000  -0.000021   0.000975  -0.000019  -0.000564   0.016410
    14  C   -0.000120   0.017774  -0.000707  -0.000102   0.000236  -0.000029
    15  C    0.000700  -0.003789   0.000079   0.000003  -0.000058   0.000002
    16  C    0.006522   0.022877  -0.000088   0.000004  -0.000079   0.000000
    17  H   -0.043183   0.000100  -0.000000  -0.000000   0.000000  -0.000000
    18  H   -0.023769  -0.000121   0.000000   0.000000   0.000000  -0.000000
    19  H    0.660953   0.000101  -0.000000  -0.000000  -0.000000   0.000000
    20  H    0.000101   0.692166  -0.002045  -0.000009  -0.001367  -0.000003
    21  H   -0.000000  -0.002045   0.652643  -0.021538  -0.038180   0.000306
    22  H   -0.000000  -0.000009  -0.021538   0.606174  -0.019202   0.000777
    23  H   -0.000000  -0.001367  -0.038180  -0.019202   0.640257  -0.000680
    24  H    0.000000  -0.000003   0.000306   0.000777  -0.000680   0.678761
    25  H   -0.000000  -0.000000  -0.000002   0.000050   0.000002  -0.013133
    26  H    0.000000   0.000000  -0.000000  -0.000001   0.000000  -0.000229
    27  H    0.000000  -0.000000   0.000001   0.000000  -0.000000   0.000026
    28  H    0.000000  -0.000014   0.000021  -0.000035   0.000001  -0.000196
    29  H   -0.000001  -0.000156  -0.000029  -0.000008   0.000030  -0.000039
    30  H    0.000028   0.000022  -0.000000  -0.000000   0.000000  -0.000000
    31  H    0.000069  -0.000222  -0.000000  -0.000000  -0.000000   0.000000
              25         26         27         28         29         30
     1  C    0.000000   0.000000   0.000000   0.000000  -0.000000  -0.000034
     2  O   -0.000000   0.000000  -0.000000   0.000000   0.000004  -0.000060
     3  C    0.000000  -0.000000   0.000000   0.000042  -0.002227   0.014390
     4  C   -0.000000   0.000000   0.000000  -0.000952   0.016476  -0.002372
     5  C    0.000007   0.000001  -0.000021   0.004120  -0.070958   0.015474
     6  N   -0.000143   0.000008  -0.000135  -0.011878  -0.015045  -0.000121
     7  C   -0.000013   0.000000   0.000005  -0.000145  -0.000099   0.000006
     8  C    0.015241  -0.001696   0.015316  -0.068832   0.006390  -0.000009
     9  C   -0.065432   0.014659  -0.002187   0.016252  -0.001136   0.000001
    10  C    0.450159  -0.069818   0.014381  -0.002525   0.000041  -0.000000
    11  C   -0.070790   0.453002  -0.072489   0.014836   0.000048  -0.000000
    12  C    0.014112  -0.069643   0.453134  -0.070541  -0.000542   0.000001
    13  C   -0.002036   0.014778  -0.067077   0.460968   0.002546   0.000032
    14  C   -0.000002  -0.000001   0.000035   0.002792   0.462359  -0.070115
    15  C   -0.000000  -0.000000   0.000002  -0.000067  -0.072006   0.455642
    16  C    0.000000   0.000000  -0.000000  -0.000057   0.016110  -0.070702
    17  H    0.000000  -0.000000  -0.000000  -0.000000   0.000001   0.000031
    18  H   -0.000000   0.000000   0.000000  -0.000000  -0.000000  -0.000001
    19  H   -0.000000   0.000000   0.000000   0.000000  -0.000001   0.000028
    20  H   -0.000000   0.000000  -0.000000  -0.000014  -0.000156   0.000022
    21  H   -0.000002  -0.000000   0.000001   0.000021  -0.000029  -0.000000
    22  H    0.000050  -0.000001   0.000000  -0.000035  -0.000008  -0.000000
    23  H    0.000002   0.000000  -0.000000   0.000001   0.000030   0.000000
    24  H   -0.013133  -0.000229   0.000026  -0.000196  -0.000039  -0.000000
    25  H    0.673322  -0.012341  -0.000267   0.000021  -0.000004   0.000000
    26  H   -0.012341   0.674467  -0.012333  -0.000223   0.000000   0.000000
    27  H   -0.000267  -0.012333   0.671720  -0.012537   0.000024  -0.000000
    28  H    0.000021  -0.000223  -0.012537   0.656259  -0.002602   0.000016
    29  H   -0.000004   0.000000   0.000024  -0.002602   0.661374  -0.012873
    30  H    0.000000   0.000000  -0.000000   0.000016  -0.012873   0.674127
    31  H    0.000000  -0.000000   0.000000  -0.000000  -0.000242  -0.013856
              31
     1  C    0.008155
     2  O   -0.008073
     3  C   -0.090814
     4  C    0.014164
     5  C   -0.001737
     6  N    0.000008
     7  C   -0.000001
     8  C    0.000001
     9  C    0.000000
    10  C    0.000000
    11  C   -0.000000
    12  C   -0.000000
    13  C    0.000000
    14  C    0.016219
    15  C   -0.062773
    16  C    0.461054
    17  H    0.000184
    18  H   -0.000246
    19  H    0.000069
    20  H   -0.000222
    21  H   -0.000000
    22  H   -0.000000
    23  H   -0.000000
    24  H    0.000000
    25  H    0.000000
    26  H   -0.000000
    27  H    0.000000
    28  H   -0.000000
    29  H   -0.000242
    30  H   -0.013856
    31  H    0.690065
 Mulliken charges:
               1
     1  C    0.144566
     2  O   -0.369008
     3  C    0.257508
     4  C   -0.140178
     5  C    0.241462
     6  N   -0.369625
     7  C    0.108765
     8  C    0.152855
     9  C   -0.051637
    10  C   -0.007935
    11  C   -0.009398
    12  C   -0.011332
    13  C   -0.041843
    14  C   -0.084943
    15  C    0.004663
    16  C   -0.123228
    17  H    0.035403
    18  H    0.051120
    19  H    0.035571
    20  H   -0.017230
    21  H    0.042229
    22  H    0.050015
    23  H    0.042533
    24  H    0.000391
    25  H    0.011247
    26  H    0.009369
    27  H    0.012401
    28  H    0.015277
    29  H    0.012564
    30  H    0.010372
    31  H   -0.011954
 Sum of Mulliken charges =  -0.00000
 Mulliken charges with hydrogens summed into heavy atoms:
               1
     1  C    0.266659
     2  O   -0.369008
     3  C    0.257508
     4  C   -0.157408
     5  C    0.241462
     6  N   -0.369625
     7  C    0.243543
     8  C    0.152855
     9  C   -0.051246
    10  C    0.003312
    11  C   -0.000030
    12  C    0.001069
    13  C   -0.026566
    14  C   -0.072379
    15  C    0.015035
    16  C   -0.135182
 Electronic spatial extent (au):  <R**2>=           4674.5770
 Charge=             -0.0000 electrons
 Dipole moment (field-independent basis, Debye):
    X=              0.1872    Y=             -0.1255    Z=             -0.1877  Tot=              0.2933
 Quadrupole moment (field-independent basis, Debye-Ang):
   XX=            -80.3998   YY=            -87.8201   ZZ=            -96.6925
   XY=             -4.5407   XZ=              0.9551   YZ=             -1.8245
 Traceless Quadrupole moment (field-independent basis, Debye-Ang):
   XX=              7.9043   YY=              0.4840   ZZ=             -8.3884
   XY=             -4.5407   XZ=              0.9551   YZ=             -1.8245
 Octapole moment (field-independent basis, Debye-Ang**2):
  XXX=             70.1145  YYY=             10.6039  ZZZ=              4.6244  XYY=             -0.6793
  XXY=            -22.8994  XXZ=             -7.9701  XZZ=              4.3488  YZZ=              1.3201
  YYZ=             -0.8097  XYZ=             11.1631
 Hexadecapole moment (field-independent basis, Debye-Ang**3):
 XXXX=          -4446.8010 YYYY=           -835.4563 ZZZZ=           -294.2487 XXXY=            -26.9227
 XXXZ=             72.4304 YYYX=             -6.7647 YYYZ=              3.7321 ZZZX=             16.3204
 ZZZY=             -8.2738 XXYY=           -991.8266 XXZZ=           -924.9028 YYZZ=           -183.8000
 XXYZ=            -41.9461 YYXZ=            -10.1184 ZZXY=              4.1497
 N-N= 1.022714971666D+03 E-N=-3.603353788595D+03  KE= 6.648072747115D+02
   1 Symmetry operations used in ECPInt.
 ECPInt:  NShTT=   10011 NPrTT=   36031 LenC2=    9215 LenP2D=   24025.
 LDataN:  DoStor=T MaxTD1= 5 Len=  102
 Calling FoFJK, ICntrl=      2127 FMM=F ISym2X=0 I1Cent= 0 IOpClX= 0 NMat=1 NMatS=1 NMatT=0.
 ***** Axes restored to original set *****
 -------------------------------------------------------------------
 Center     Atomic                   Forces (Hartrees/Bohr)
 Number     Number              X              Y              Z
 -------------------------------------------------------------------
      1        6           0.008611302    0.004198666    0.007604773
      2        8           0.026284236   -0.021419918   -0.010279675
      3        6          -0.015040685    0.010138981    0.005112493
      4        6          -0.003885093    0.007029320    0.006136593
      5        6           0.024106416    0.003808092    0.010336724
      6        7          -0.000101060   -0.004681165   -0.003396918
      7        6          -0.002064723   -0.008465135   -0.017645079
      8        6          -0.020044601    0.004977724    0.004648269
      9        6          -0.010047619    0.002484157    0.001284999
     10        6           0.004034370    0.000643188   -0.001202082
     11        6           0.006227118   -0.002475460   -0.001743726
     12        6           0.001356982   -0.001729360   -0.001223909
     13        6          -0.005332836    0.004164865    0.004094207
     14        6           0.004687378   -0.006274717   -0.002287384
     15        6           0.008112068    0.002521126    0.004492860
     16        6          -0.019259995    0.012086644    0.003438133
     17        1          -0.002764776   -0.000278978   -0.009171408
     18        1          -0.001000898    0.004126553    0.003624680
     19        1          -0.005718006   -0.007416333   -0.001883948
     20        1          -0.001422935    0.009607461    0.008602871
     21        1          -0.002447811    0.010575265    0.001914973
     22        1           0.005289182   -0.000939124    0.000305611
     23        1          -0.006154348   -0.002094902    0.006625542
     24        1          -0.002034257   -0.002799354    0.011291923
     25        1           0.006352075   -0.004982010    0.006560003
     26        1           0.009201566   -0.003096373   -0.003771941
     27        1           0.001902409    0.002422808   -0.009974662
     28        1          -0.007130103    0.005228455   -0.007045125
     29        1           0.007446787   -0.006925695   -0.003135300
     30        1          -0.000783389   -0.007205060   -0.006800799
     31        1          -0.008378754   -0.003229722   -0.006512701
 -------------------------------------------------------------------
 Cartesian Forces:  Max     0.026284236 RMS     0.007973346

 GradGradGradGradGradGradGradGradGradGradGradGradGradGradGradGradGradGrad
 Berny optimization.
 FormGI is forming the generalized inverse of G from B-inverse, IUseBI=4.
 Internal  Forces:  Max     0.034309382 RMS     0.006533138
 Search for a local minimum.
 Step number   1 out of a maximum of  161
 All quantities printed in internal units (Hartrees-Bohrs-Radians)
 Mixed Optimization -- RFO/linear search
 Second derivative matrix not updated -- first step.
 ITU=  0
     Eigenvalues ---    0.00865   0.01124   0.01253   0.01349   0.01602
     Eigenvalues ---    0.01672   0.01884   0.01931   0.02069   0.02172
     Eigenvalues ---    0.02185   0.02198   0.02210   0.02254   0.02267
     Eigenvalues ---    0.02286   0.02288   0.02335   0.02336   0.02343
     Eigenvalues ---    0.02354   0.02368   0.02374   0.02391   0.07388
     Eigenvalues ---    0.07449   0.10345   0.10571   0.15994   0.15997
     Eigenvalues ---    0.15998   0.15999   0.16000   0.16000   0.16000
     Eigenvalues ---    0.16000   0.16000   0.16000   0.16000   0.16000
     Eigenvalues ---    0.16000   0.16000   0.16000   0.22000   0.22000
     Eigenvalues ---    0.22000   0.23452   0.23468   0.23481   0.24987
     Eigenvalues ---    0.24992   0.24994   0.25000   0.25000   0.25000
     Eigenvalues ---    0.34745   0.34745   0.34759   0.34997   0.35019
     Eigenvalues ---    0.35074   0.36256   0.36259   0.36263   0.36265
     Eigenvalues ---    0.36473   0.36502   0.36535   0.36649   0.36657
     Eigenvalues ---    0.36883   0.40536   0.41587   0.42652   0.43059
     Eigenvalues ---    0.43394   0.43770   0.44510   0.45371   0.46297
     Eigenvalues ---    0.46982   0.47335   0.47918   0.48651   0.49076
     Eigenvalues ---    0.49284   0.49736
 RFO step:  Lambda=-1.73326234D-02 EMin= 8.65454792D-03
 Linear search not attempted -- first point.
 Iteration  1 RMS(Cart)=  0.07549601 RMS(Int)=  0.00267507
 Iteration  2 RMS(Cart)=  0.00482581 RMS(Int)=  0.00015630
 Iteration  3 RMS(Cart)=  0.00001944 RMS(Int)=  0.00015596
 Iteration  4 RMS(Cart)=  0.00000001 RMS(Int)=  0.00015596
 Variable       Old X    -DE/DX   Delta X   Delta X   Delta X     New X
                                 (Linear)    (Quad)   (Total)
    R1        2.65849   0.00054   0.00000   0.00117   0.00117   2.65966
    R2        2.06091   0.00847   0.00000   0.02321   0.02321   2.08411
    R3        2.06069   0.00450   0.00000   0.01234   0.01234   2.07303
    R4        2.06091   0.00845   0.00000   0.02316   0.02316   2.08408
    R5        2.64848  -0.03431   0.00000  -0.07284  -0.07284   2.57564
    R6        2.63220   0.00373   0.00000   0.00673   0.00677   2.63897
    R7        2.64100   0.00046   0.00000   0.00040   0.00046   2.64146
    R8        2.62592   0.00933   0.00000   0.01858   0.01857   2.64448
    R9        2.02723   0.01283   0.00000   0.03322   0.03322   2.06045
   R10        2.69453  -0.02270   0.00000  -0.05240  -0.05240   2.64213
   R11        2.63495   0.01379   0.00000   0.02911   0.02906   2.66400
   R12        2.76366  -0.00807   0.00000  -0.02103  -0.02103   2.74264
   R13        2.70831  -0.01619   0.00000  -0.03831  -0.03831   2.67000
   R14        2.05645   0.01050   0.00000   0.02858   0.02858   2.08503
   R15        2.05555   0.00490   0.00000   0.01331   0.01331   2.06885
   R16        2.05680   0.00904   0.00000   0.02461   0.02461   2.08141
   R17        2.63589   0.00721   0.00000   0.01435   0.01435   2.65024
   R18        2.63568   0.00843   0.00000   0.01692   0.01692   2.65260
   R19        2.60171   0.01666   0.00000   0.03236   0.03236   2.63408
   R20        2.03304   0.01178   0.00000   0.03080   0.03080   2.06385
   R21        2.61045   0.01260   0.00000   0.02543   0.02544   2.63589
   R22        2.03678   0.01038   0.00000   0.02732   0.02732   2.06411
   R23        2.61020   0.01391   0.00000   0.02805   0.02805   2.63825
   R24        2.03669   0.01042   0.00000   0.02741   0.02741   2.06410
   R25        2.60096   0.01588   0.00000   0.03086   0.03086   2.63182
   R26        2.03672   0.01042   0.00000   0.02741   0.02741   2.06413
   R27        2.03348   0.01129   0.00000   0.02955   0.02955   2.06303
   R28        2.60231   0.01070   0.00000   0.02173   0.02169   2.62400
   R29        2.03253   0.01050   0.00000   0.02745   0.02745   2.05997
   R30        2.60253   0.01840   0.00000   0.03622   0.03623   2.63876
   R31        2.03683   0.00993   0.00000   0.02614   0.02614   2.06297
   R32        2.03078   0.01091   0.00000   0.02842   0.02842   2.05920
    A1        1.91871   0.00654   0.00000   0.03827   0.03792   1.95663
    A2        1.89456  -0.00750   0.00000  -0.04502  -0.04477   1.84979
    A3        1.91881   0.00648   0.00000   0.03795   0.03759   1.95640
    A4        1.90066  -0.00073   0.00000  -0.00682  -0.00657   1.89408
    A5        1.92998  -0.00431   0.00000  -0.01913  -0.01994   1.91004
    A6        1.90057  -0.00070   0.00000  -0.00670  -0.00645   1.89412
    A7        2.00301   0.01733   0.00000   0.06481   0.06481   2.06782
    A8        2.04716  -0.01208   0.00000  -0.04425  -0.04431   2.00285
    A9        2.17562   0.00071   0.00000   0.00358   0.00353   2.17915
   A10        2.06040   0.01136   0.00000   0.04067   0.04077   2.10118
   A11        2.13047  -0.00434   0.00000  -0.01999  -0.01995   2.11051
   A12        2.05563   0.00020   0.00000  -0.00113  -0.00115   2.05449
   A13        2.09705   0.00414   0.00000   0.02112   0.02111   2.11815
   A14        2.11932  -0.00780   0.00000  -0.02994  -0.02995   2.08937
   A15        2.06114   0.00248   0.00000   0.01043   0.01029   2.07143
   A16        2.10253   0.00531   0.00000   0.01911   0.01906   2.12160
   A17        2.07819  -0.00388   0.00000  -0.01467  -0.01471   2.06347
   A18        2.13323   0.00045   0.00000   0.00153   0.00148   2.13470
   A19        2.07128   0.00341   0.00000   0.01260   0.01255   2.08383
   A20        1.92091   0.00497   0.00000   0.02922   0.02911   1.95002
   A21        1.93540  -0.00466   0.00000  -0.02858  -0.02843   1.90697
   A22        1.92223   0.00281   0.00000   0.01696   0.01680   1.93903
   A23        1.88278  -0.00074   0.00000  -0.00642  -0.00622   1.87656
   A24        1.90616  -0.00292   0.00000  -0.01189  -0.01227   1.89389
   A25        1.89559   0.00039   0.00000  -0.00009   0.00000   1.89559
   A26        2.11406  -0.00313   0.00000  -0.01071  -0.01074   2.10332
   A27        2.10340   0.00088   0.00000   0.00429   0.00426   2.10766
   A28        2.06571   0.00224   0.00000   0.00634   0.00628   2.07199
   A29        2.10628  -0.00042   0.00000  -0.00287  -0.00289   2.10338
   A30        2.07897   0.00109   0.00000   0.00651   0.00650   2.08547
   A31        2.09758  -0.00067   0.00000  -0.00342  -0.00342   2.09415
   A32        2.09744   0.00104   0.00000   0.00560   0.00558   2.10302
   A33        2.09310  -0.00118   0.00000  -0.00653  -0.00654   2.08655
   A34        2.09265   0.00014   0.00000   0.00090   0.00088   2.09353
   A35        2.09280  -0.00327   0.00000  -0.01126  -0.01126   2.08154
   A36        2.09522   0.00154   0.00000   0.00513   0.00513   2.10035
   A37        2.09517   0.00172   0.00000   0.00614   0.00613   2.10130
   A38        2.09599   0.00135   0.00000   0.00711   0.00710   2.10309
   A39        2.09370  -0.00003   0.00000   0.00010   0.00008   2.09377
   A40        2.09349  -0.00133   0.00000  -0.00724  -0.00726   2.08624
   A41        2.10816  -0.00095   0.00000  -0.00490  -0.00492   2.10324
   A42        2.07307   0.00106   0.00000   0.00579   0.00579   2.07885
   A43        2.10185  -0.00011   0.00000  -0.00079  -0.00079   2.10105
   A44        2.10752  -0.00507   0.00000  -0.01716  -0.01726   2.09026
   A45        2.07776   0.00427   0.00000   0.01835   0.01840   2.09616
   A46        2.09775   0.00080   0.00000  -0.00118  -0.00113   2.09662
   A47        2.10260   0.00425   0.00000   0.02179   0.02175   2.12435
   A48        2.08983  -0.00193   0.00000  -0.00978  -0.00978   2.08005
   A49        2.09075  -0.00233   0.00000  -0.01203  -0.01203   2.07872
   A50        2.10421  -0.00869   0.00000  -0.03582  -0.03575   2.06845
   A51        2.09215   0.00640   0.00000   0.02948   0.02944   2.12158
   A52        2.08683   0.00229   0.00000   0.00633   0.00629   2.09311
    D1       -1.06481  -0.00155   0.00000  -0.01237  -0.01320  -1.07801
    D2        3.14106   0.00002   0.00000   0.00058   0.00058  -3.14155
    D3        1.06379   0.00159   0.00000   0.01357   0.01439   1.07817
    D4       -3.14124  -0.00012   0.00000  -0.00294  -0.00293   3.13901
    D5        0.00033   0.00005   0.00000   0.00105   0.00104   0.00137
    D6       -3.13797   0.00001   0.00000   0.00089   0.00083  -3.13714
    D7       -0.00616   0.00006   0.00000   0.00204   0.00191  -0.00425
    D8        0.00364  -0.00014   0.00000  -0.00282  -0.00294   0.00070
    D9        3.13545  -0.00009   0.00000  -0.00167  -0.00186   3.13359
   D10       -3.13886   0.00009   0.00000   0.00261   0.00251  -3.13635
   D11       -0.00059  -0.00013   0.00000  -0.00327  -0.00335  -0.00394
   D12        0.00272   0.00025   0.00000   0.00662   0.00668   0.00940
   D13        3.14099   0.00003   0.00000   0.00074   0.00082  -3.14138
   D14       -3.12978   0.00049   0.00000   0.01467   0.01434  -3.11544
   D15       -0.00936  -0.00024   0.00000  -0.00658  -0.00669  -0.01605
   D16        0.02182   0.00046   0.00000   0.01362   0.01335   0.03517
   D17       -3.14094  -0.00027   0.00000  -0.00763  -0.00768   3.13456
   D18        0.32358  -0.00026   0.00000  -0.00820  -0.00809   0.31549
   D19       -2.78379   0.00021   0.00000   0.01026   0.01024  -2.77355
   D20       -2.79634   0.00053   0.00000   0.01367   0.01369  -2.78265
   D21        0.37947   0.00100   0.00000   0.03213   0.03202   0.41149
   D22        0.00891   0.00047   0.00000   0.01235   0.01236   0.02127
   D23       -3.11366   0.00050   0.00000   0.01189   0.01202  -3.10164
   D24        3.12954  -0.00041   0.00000  -0.00930  -0.00970   3.11985
   D25        0.00698  -0.00039   0.00000  -0.00977  -0.01004  -0.00306
   D26       -1.19209  -0.00044   0.00000   0.00096   0.00073  -1.19137
   D27        3.00920   0.00023   0.00000   0.00827   0.00830   3.01750
   D28        0.91048   0.00092   0.00000   0.01574   0.01592   0.92640
   D29        1.91651  -0.00095   0.00000  -0.01703  -0.01725   1.89925
   D30       -0.16539  -0.00027   0.00000  -0.00973  -0.00968  -0.17506
   D31       -2.26411   0.00041   0.00000  -0.00225  -0.00206  -2.26617
   D32       -2.37656   0.00064   0.00000   0.02378   0.02374  -2.35282
   D33        0.77050   0.00126   0.00000   0.04130   0.04120   0.81170
   D34        0.79912   0.00124   0.00000   0.04269   0.04279   0.84191
   D35       -2.33700   0.00187   0.00000   0.06021   0.06025  -2.27675
   D36       -3.13853   0.00080   0.00000   0.02092   0.02083  -3.11770
   D37        0.03200   0.00045   0.00000   0.01234   0.01225   0.04425
   D38       -0.00229   0.00018   0.00000   0.00377   0.00372   0.00143
   D39       -3.11495  -0.00016   0.00000  -0.00481  -0.00487  -3.11981
   D40        3.13798  -0.00026   0.00000  -0.00758  -0.00771   3.13026
   D41        0.01264  -0.00051   0.00000  -0.01391  -0.01402  -0.00138
   D42        0.00170   0.00036   0.00000   0.00951   0.00950   0.01120
   D43       -3.12364   0.00011   0.00000   0.00318   0.00319  -3.12045
   D44        0.00174  -0.00054   0.00000  -0.01306  -0.01309  -0.01135
   D45       -3.13623  -0.00013   0.00000  -0.00295  -0.00296  -3.13920
   D46        3.11409  -0.00017   0.00000  -0.00422  -0.00430   3.10979
   D47       -0.02389   0.00024   0.00000   0.00589   0.00583  -0.01806
   D48       -0.00055   0.00037   0.00000   0.00911   0.00911   0.00857
   D49        3.14133   0.00028   0.00000   0.00678   0.00679  -3.13506
   D50        3.13743  -0.00005   0.00000  -0.00102  -0.00107   3.13636
   D51       -0.00388  -0.00014   0.00000  -0.00335  -0.00339  -0.00727
   D52       -0.00004   0.00017   0.00000   0.00411   0.00413   0.00409
   D53        3.13873  -0.00028   0.00000  -0.00718  -0.00721   3.13153
   D54        3.14127   0.00026   0.00000   0.00644   0.00645  -3.13547
   D55       -0.00314  -0.00020   0.00000  -0.00485  -0.00489  -0.00803
   D56       -0.00056  -0.00054   0.00000  -0.01350  -0.01351  -0.01407
   D57        3.12451  -0.00027   0.00000  -0.00700  -0.00706   3.11746
   D58       -3.13933  -0.00008   0.00000  -0.00222  -0.00223  -3.14156
   D59       -0.01426   0.00018   0.00000   0.00427   0.00422  -0.01004
   D60       -0.00286  -0.00034   0.00000  -0.00865  -0.00864  -0.01150
   D61       -3.14114   0.00004   0.00000   0.00034   0.00042  -3.14072
   D62        3.11948  -0.00032   0.00000  -0.00797  -0.00808   3.11140
   D63       -0.01879   0.00005   0.00000   0.00102   0.00097  -0.01782
   D64       -0.00310  -0.00001   0.00000  -0.00100  -0.00088  -0.00398
   D65       -3.14139   0.00020   0.00000   0.00482   0.00484  -3.13654
   D66        3.13517  -0.00038   0.00000  -0.00999  -0.00992   3.12525
   D67       -0.00311  -0.00017   0.00000  -0.00417  -0.00420  -0.00731
         Item               Value     Threshold  Converged?
 Maximum Force            0.034309     0.000450     NO 
 RMS     Force            0.006533     0.000300     NO 
 Maximum Displacement     0.309400     0.001800     NO 
 RMS     Displacement     0.078521     0.001200     NO 
 Predicted change in Energy=-9.212619D-03
 GradGradGradGradGradGradGradGradGradGradGradGradGradGradGradGradGradGrad

                          Input orientation:                          
 ---------------------------------------------------------------------
 Center     Atomic      Atomic             Coordinates (Angstroms)
 Number     Number       Type             X           Y           Z
 ---------------------------------------------------------------------
      1          6           0       -5.083617    1.263718   -0.434334
      2          8           0       -3.833464    1.404230    0.196723
      3          6           0       -2.818184    0.577060   -0.181012
      4          6           0       -1.612611    0.785846    0.492163
      5          6           0       -0.483455    0.011852    0.201882
      6          7           0        0.701834    0.221318    0.913250
      7          6           0        0.628181    0.934332    2.175223
      8          6           0        1.961958   -0.180251    0.416136
      9          6           0        2.877612   -0.841429    1.247565
     10          6           0        4.131714   -1.212354    0.765299
     11          6           0        4.489955   -0.943538   -0.555692
     12          6           0        3.581649   -0.288437   -1.389316
     13          6           0        2.332901    0.097971   -0.908762
     14          6           0       -0.589636   -1.000754   -0.773152
     15          6           0       -1.792808   -1.192942   -1.439143
     16          6           0       -2.918283   -0.414602   -1.161026
     17          1           0       -5.025199    1.456522   -1.518643
     18          1           0       -5.737518    2.018808    0.019168
     19          1           0       -5.525754    0.268205   -0.261895
     20          1           0       -1.581270    1.575983    1.242861
     21          1           0        0.361162    1.995004    2.030114
     22          1           0        1.607197    0.904894    2.664331
     23          1           0       -0.114312    0.475554    2.847076
     24          1           0        2.594542   -1.082451    2.274477
     25          1           0        4.831788   -1.728666    1.425897
     26          1           0        5.471068   -1.240757   -0.932714
     27          1           0        3.853837   -0.063797   -2.423021
     28          1           0        1.632801    0.630078   -1.555717
     29          1           0        0.264709   -1.641856   -0.990826
     30          1           0       -1.864622   -1.980392   -2.191820
     31          1           0       -3.849335   -0.593688   -1.698124
 ---------------------------------------------------------------------
                    Distance matrix (angstroms):
                    1          2          3          4          5
     1  C    0.000000
     2  O    1.407430   0.000000
     3  C    2.380726   1.362970   0.000000
     4  C    3.624174   2.324192   1.396482   0.000000
     5  C    4.809722   3.627851   2.432494   1.399401   0.000000
     6  N    6.031087   4.741478   3.703307   2.419227   1.398152
     7  C    6.288316   4.903217   4.190097   2.806401   2.445563
     8  C    7.242131   6.012124   4.876460   3.703602   2.462286
     9  C    8.404855   7.154425   6.041112   4.835365   3.621921
    10  C    9.617296   8.403205   7.238687   6.088077   4.807900
    11  C    9.825476   8.680867   7.474055   6.428848   5.120693
    12  C    8.854830   7.769463   6.570156   5.628000   4.375747
    13  C    7.522552   6.399412   5.224254   4.242974   3.028665
    14  C    5.043659   4.152955   2.794022   2.416494   1.409729
    15  C    4.227795   3.685871   2.401500   2.770923   2.420515
    16  C    2.834345   2.447282   1.397799   2.424641   2.822723
    17  H    1.102866   2.089365   2.726467   4.017325   5.067022
    18  H    1.097001   2.008644   3.262088   4.331140   5.627293
    19  H    1.102845   2.089194   2.726329   4.018612   5.070067
    20  H    3.895757   2.489233   2.134295   1.090342   2.176084
    21  H    6.021121   4.615759   4.124062   2.779054   2.826430
    22  H    7.382240   5.994933   5.271380   3.885827   3.351419
    23  H    6.006900   4.660354   4.060855   2.808344   2.710782
    24  H    8.473269   7.198604   6.170981   4.936326   3.868749
    25  H   10.522836   9.295833   8.149884   6.980323   5.725332
    26  H   10.859197   9.738886   8.519461   7.504393   6.189724
    27  H    9.251770   8.253046   7.067756   6.253179   5.070300
    28  H    6.838806   5.792272   4.658744   3.840674   2.819557
    29  H    6.112008   5.242513   3.883764   3.408420   2.171878
    30  H    4.896421   4.586627   3.390161   3.862557   3.406827
    31  H    2.563314   2.753612   2.176133   3.421024   3.912269
                    6          7          8          9         10
     6  N    0.000000
     7  C    1.451341   0.000000
     8  C    1.412902   2.472983   0.000000
     9  C    2.444424   3.012277   1.402445   0.000000
    10  C    3.720401   4.344064   2.427961   1.393893   0.000000
    11  C    4.226646   5.088967   2.813863   2.421118   1.394854
    12  C    3.722230   4.787909   2.427913   2.784710   2.408020
    13  C    2.448535   3.621675   1.403695   2.414317   2.784809
    14  C    2.450572   3.731026   2.932279   4.016278   4.970186
    15  C    3.709059   4.842532   4.308812   5.399516   6.321384
    16  C    4.220457   5.052483   5.134112   6.290936   7.351843
    17  H    6.343401   6.773332   7.432547   8.682563   9.807566
    18  H    6.745042   6.807847   8.017192   9.160260  10.411477
    19  H    6.337666   6.652382   7.531711   8.609664   9.824147
    20  H    2.675130   2.482476   4.040086   5.072034   6.375035
    21  H    2.123536   1.103349   3.146300   3.871725   5.109204
    22  H    2.086443   1.094790   2.521464   2.582794   3.802926
    23  H    2.114335   1.101435   3.263502   3.639298   5.021112
    24  H    2.671161   2.818482   2.160454   1.092140   2.158099
    25  H    4.595843   5.032232   3.413669   2.153555   1.092278
    26  H    5.318913   6.151734   3.906139   3.411612   2.162851
    27  H    4.598599   5.704819   3.413734   3.876974   3.400263
    28  H    2.670128   3.875789   2.157123   3.401952   3.876369
    29  H    2.699630   4.097892   2.645086   3.532469   4.268744
    30  H    4.590826   5.812121   4.968365   5.967863   6.729821
    31  H    5.310051   6.114394   6.197753   7.347807   8.375461
                   11         12         13         14         15
    11  C    0.000000
    12  C    1.396103   0.000000
    13  C    2.421215   1.392701   0.000000
    14  C    5.084565   4.276292   3.125190   0.000000
    15  C    6.349472   5.450266   4.355368   1.388561   0.000000
    16  C    7.451724   6.505164   5.282168   2.432410   1.396373
    17  H    9.860310   8.782906   7.507280   5.125250   4.180232
    18  H   10.663355   9.703302   8.347594   6.020483   5.291762
    19  H   10.093020   9.193787   7.887070   5.122197   4.178008
[...]
    17  H   -0.000002   0.000002   0.000000  -0.000000   0.000000  -0.000000
    18  H    0.000001  -0.000000  -0.000000   0.000000  -0.000000   0.000000
    19  H   -0.000002  -0.000001   0.000000   0.000000   0.000000   0.000000
    20  H    0.001690  -0.000585  -0.000008   0.000006   0.000001  -0.000018
    21  H    0.406837  -0.006315   0.003308   0.000179   0.000078  -0.000939
    22  H    0.406365  -0.007941  -0.004466  -0.000084  -0.000178   0.000525
    23  H    0.415382   0.014213  -0.000674  -0.000265  -0.000034   0.000172
    24  H   -0.002474  -0.051937   0.425936  -0.034339   0.008160  -0.002770
    25  H    0.000028   0.014648  -0.055786   0.442101  -0.057878   0.011613
    26  H   -0.000002  -0.003631   0.010995  -0.055666   0.443504  -0.055974
    27  H    0.000004   0.012807  -0.003395   0.010537  -0.056970   0.440870
    28  H    0.000078  -0.041087   0.008585  -0.002136   0.008018  -0.042994
    29  H   -0.000153   0.002455   0.000097   0.000284   0.000111  -0.000454
    30  H    0.000015   0.000079  -0.000014   0.000003  -0.000003   0.000012
    31  H   -0.000006   0.000007   0.000000  -0.000000   0.000000  -0.000000
              13         14         15         16         17         18
     1  C   -0.000001   0.002454  -0.006654   0.019759   0.414610   0.400172
     2  O    0.000003  -0.000979   0.009495  -0.093881  -0.042285  -0.030737
     3  C    0.000479  -0.103910   0.103222   0.214298  -0.016934   0.006775
     4  C    0.000911   0.027602  -0.090629   0.043802   0.000220  -0.000107
     5  C    0.027427   0.335669   0.039941  -0.144110  -0.000370   0.000145
     6  N   -0.054675  -0.068909   0.005461  -0.001348  -0.000000   0.000000
     7  C   -0.003493   0.012631  -0.000572  -0.000012  -0.000002   0.000001
     8  C    0.405024   0.006313  -0.004388   0.001312   0.000002  -0.000000
     9  C    0.021025   0.005041  -0.000047   0.000096   0.000000  -0.000000
    10  C   -0.058977  -0.000081  -0.000036  -0.000001  -0.000000   0.000000
    11  C    0.033968   0.000408  -0.000004   0.000003   0.000000  -0.000000
    12  C    0.399807  -0.001550   0.000266  -0.000044  -0.000000   0.000000
    13  C    5.120626  -0.000658   0.003371  -0.000333  -0.000001   0.000000
    14  C   -0.000658   5.162145   0.410932   0.090565   0.000313  -0.000085
    15  C    0.003371   0.410932   5.008120   0.274102  -0.001257   0.000382
    16  C   -0.000333   0.090565   0.274102   5.476252   0.013274  -0.002429
    17  H   -0.000001   0.000313  -0.001257   0.013274   0.588279  -0.020262
    18  H    0.000000  -0.000085   0.000382  -0.002429  -0.020262   0.529437
    19  H    0.000000   0.000200  -0.001057   0.013945  -0.056587  -0.020339
    20  H    0.000103   0.009903  -0.006501   0.020966   0.000184  -0.000294
    21  H    0.003917  -0.000619  -0.000110   0.000110  -0.000000  -0.000000
    22  H   -0.000184  -0.000545   0.000096  -0.000045  -0.000000   0.000000
    23  H   -0.001335   0.000931  -0.000048  -0.000183   0.000001  -0.000000
    24  H    0.008950  -0.000165   0.000008   0.000001   0.000000  -0.000000
    25  H   -0.004557   0.000008   0.000001  -0.000000   0.000000  -0.000000
    26  H    0.011604   0.000001  -0.000000   0.000000  -0.000000  -0.000000
    27  H   -0.054124  -0.000116  -0.000011  -0.000001   0.000000   0.000000
    28  H    0.432473  -0.000670   0.000008   0.000062   0.000000  -0.000000
    29  H   -0.003966   0.438339  -0.042167   0.010401   0.000003  -0.000000
    30  H   -0.000063  -0.047311   0.427141  -0.048248  -0.000022   0.000002
    31  H   -0.000002   0.008247  -0.026664   0.436319   0.000312  -0.000240
              19         20         21         22         23         24
     1  C    0.415138   0.000061  -0.000001   0.000000   0.000001   0.000000
     2  O   -0.042317   0.014304   0.000004  -0.000002  -0.000005   0.000000
     3  C   -0.017100  -0.032261  -0.001402   0.000181   0.001695  -0.000004
     4  C   -0.000606   0.428372   0.011066   0.000149  -0.004514   0.000033
     5  C   -0.000323  -0.074504  -0.008532   0.008054  -0.005937   0.000810
     6  N    0.000000  -0.006923  -0.050975  -0.026187  -0.045588   0.006246
     7  C   -0.000002   0.001690   0.406837   0.406365   0.415382  -0.002474
     8  C   -0.000001  -0.000585  -0.006315  -0.007941   0.014213  -0.051937
     9  C    0.000000  -0.000008   0.003308  -0.004466  -0.000674   0.425936
    10  C    0.000000   0.000006   0.000179  -0.000084  -0.000265  -0.034339
    11  C    0.000000   0.000001   0.000078  -0.000178  -0.000034   0.008160
    12  C    0.000000  -0.000018  -0.000939   0.000525   0.000172  -0.002770
    13  C    0.000000   0.000103   0.003917  -0.000184  -0.001335   0.008950
    14  C    0.000200   0.009903  -0.000619  -0.000545   0.000931  -0.000165
    15  C   -0.001057  -0.006501  -0.000110   0.000096  -0.000048   0.000008
    16  C    0.013945   0.020966   0.000110  -0.000045  -0.000183   0.000001
    17  H   -0.056587   0.000184  -0.000000  -0.000000   0.000001   0.000000
    18  H   -0.020339  -0.000294  -0.000000   0.000000  -0.000000  -0.000000
    19  H    0.587806   0.000173   0.000000  -0.000000  -0.000000  -0.000000
    20  H    0.000173   0.523018   0.003132   0.000209  -0.006582   0.000005
    21  H    0.000000   0.003132   0.585525  -0.025550  -0.047598   0.000620
    22  H   -0.000000   0.000209  -0.025550   0.518491  -0.013130  -0.002960
    23  H   -0.000000  -0.006582  -0.047598  -0.013130   0.553994  -0.000718
    24  H   -0.000000   0.000005   0.000620  -0.002960  -0.000718   0.512002
    25  H   -0.000000  -0.000000  -0.000009   0.000036   0.000007  -0.007170
    26  H    0.000000   0.000000  -0.000000  -0.000001   0.000000  -0.000090
    27  H   -0.000000   0.000000   0.000002   0.000002  -0.000001   0.000032
    28  H   -0.000000   0.000020   0.000470  -0.000175  -0.000031  -0.000142
    29  H   -0.000000  -0.000053   0.000022  -0.000020  -0.000006  -0.000030
    30  H   -0.000028   0.000029  -0.000000  -0.000000  -0.000000  -0.000000
    31  H    0.000144  -0.000002   0.000002  -0.000000   0.000000   0.000000
              25         26         27         28         29         30
     1  C    0.000000  -0.000000  -0.000000   0.000000   0.000003  -0.000161
     2  O   -0.000000   0.000000  -0.000000  -0.000002   0.000010  -0.000076
     3  C    0.000000  -0.000000   0.000000  -0.000089  -0.002681   0.007179
     4  C   -0.000003   0.000000   0.000005   0.001281   0.007924  -0.000865
     5  C   -0.000022   0.000004   0.000070   0.001201  -0.052434   0.010601
     6  N   -0.000244   0.000013  -0.000223  -0.004000  -0.003698  -0.000171
     7  C    0.000028  -0.000002   0.000004   0.000078  -0.000153   0.000015
     8  C    0.014648  -0.003631   0.012807  -0.041087   0.002455   0.000079
     9  C   -0.055786   0.010995  -0.003395   0.008585   0.000097  -0.000014
    10  C    0.442101  -0.055666   0.010537  -0.002136   0.000284   0.000003
    11  C   -0.057878   0.443504  -0.056970   0.008018   0.000111  -0.000003
    12  C    0.011613  -0.055974   0.440870  -0.042994  -0.000454   0.000012
    13  C   -0.004557   0.011604  -0.054124   0.432473  -0.003966  -0.000063
    14  C    0.000008   0.000001  -0.000116  -0.000670   0.438339  -0.047311
    15  C    0.000001  -0.000000  -0.000011   0.000008  -0.042167   0.427141
    16  C   -0.000000   0.000000  -0.000001   0.000062   0.010401  -0.048248
    17  H    0.000000  -0.000000   0.000000   0.000000   0.000003  -0.000022
    18  H   -0.000000  -0.000000   0.000000  -0.000000  -0.000000   0.000002
    19  H   -0.000000   0.000000  -0.000000  -0.000000  -0.000000  -0.000028
    20  H   -0.000000   0.000000   0.000000   0.000020  -0.000053   0.000029
    21  H   -0.000009  -0.000000   0.000002   0.000470   0.000022  -0.000000
    22  H    0.000036  -0.000001   0.000002  -0.000175  -0.000020  -0.000000
    23  H    0.000007   0.000000  -0.000001  -0.000031  -0.000006  -0.000000
    24  H   -0.007170  -0.000090   0.000032  -0.000142  -0.000030  -0.000000
    25  H    0.544083  -0.006877  -0.000141   0.000015  -0.000006   0.000000
    26  H   -0.006877   0.542331  -0.006810  -0.000079   0.000003  -0.000000
    27  H   -0.000141  -0.006810   0.541674  -0.006438   0.000005   0.000001
    28  H    0.000015  -0.000079  -0.006438   0.499574  -0.000814  -0.000001
    29  H   -0.000006   0.000003   0.000005  -0.000814   0.508395  -0.006788
    30  H    0.000000  -0.000000   0.000001  -0.000001  -0.006788   0.548113
    31  H   -0.000000   0.000000   0.000000   0.000002  -0.000124  -0.004957
              31
     1  C    0.009050
     2  O   -0.005841
     3  C   -0.066681
     4  C    0.006218
     5  C   -0.001973
     6  N    0.000009
     7  C   -0.000006
     8  C    0.000007
     9  C    0.000000
    10  C   -0.000000
    11  C    0.000000
    12  C   -0.000000
    13  C   -0.000002
    14  C    0.008247
    15  C   -0.026664
    16  C    0.436319
    17  H    0.000312
    18  H   -0.000240
    19  H    0.000144
    20  H   -0.000002
    21  H    0.000002
    22  H   -0.000000
    23  H    0.000000
    24  H    0.000000
    25  H   -0.000000
    26  H    0.000000
    27  H    0.000000
    28  H    0.000002
    29  H   -0.000124
    30  H   -0.004957
    31  H    0.520157
 Mulliken charges:
               1
     1  C   -0.209909
     2  O   -0.285322
     3  C    0.363956
     4  C   -0.393852
     5  C    0.279446
     6  N   -0.057999
     7  C   -0.311225
     8  C    0.207309
     9  C   -0.277493
    10  C   -0.064881
    11  C   -0.144601
    12  C   -0.060790
    13  C   -0.287322
    14  C   -0.286103
    15  C   -0.102399
    16  C   -0.324631
    17  H    0.120524
    18  H    0.137579
    19  H    0.120954
    20  H    0.125555
    21  H    0.126780
    22  H    0.147359
    23  H    0.140252
    24  H    0.139996
    25  H    0.120153
    26  H    0.120677
    27  H    0.122218
    28  H    0.146867
    29  H    0.145341
    30  H    0.115533
    31  H    0.126026
 Sum of Mulliken charges =  -0.00000
 Mulliken charges with hydrogens summed into heavy atoms:
               1
     1  C    0.169148
     2  O   -0.285322
     3  C    0.363956
     4  C   -0.268297
     5  C    0.279446
     6  N   -0.057999
     7  C    0.103166
     8  C    0.207309
     9  C   -0.137497
    10  C    0.055272
    11  C   -0.023924
    12  C    0.061429
    13  C   -0.140455
    14  C   -0.140762
    15  C    0.013134
    16  C   -0.198604
 Electronic spatial extent (au):  <R**2>=           4636.4173
 Charge=              0.0000 electrons
 Dipole moment (field-independent basis, Debye):
    X=             -0.0390    Y=              0.0795    Z=              0.1435  Tot=              0.1686
 Quadrupole moment (field-independent basis, Debye-Ang):
   XX=            -79.3561   YY=            -89.7607   ZZ=            -96.2578
   XY=             -2.6492   XZ=              1.7083   YZ=             -1.9925
 Traceless Quadrupole moment (field-independent basis, Debye-Ang):
   XX=              9.1021   YY=             -1.3025   ZZ=             -7.7996
   XY=             -2.6492   XZ=              1.7083   YZ=             -1.9925
 Octapole moment (field-independent basis, Debye-Ang**2):
  XXX=             64.3327  YYY=             10.6218  ZZZ=              6.0783  XYY=              4.5554
  XXY=            -21.2884  XXZ=             -4.8833  XZZ=             -0.6414  YZZ=              1.2924
  YYZ=             -1.1354  XYZ=             13.1036
 Hexadecapole moment (field-independent basis, Debye-Ang**3):
 XXXX=          -4414.1736 YYYY=           -823.9760 ZZZZ=           -345.7973 XXXY=             20.5321
 XXXZ=             86.1677 YYYX=             -6.0654 YYYZ=              6.7461 ZZZX=             18.1308
 ZZZY=            -16.3478 XXYY=           -990.4695 XXZZ=           -914.9511 YYZZ=           -190.0943
 XXYZ=            -43.5507 YYXZ=            -10.2359 ZZXY=              8.4175
 N-N= 1.023127665502D+03 E-N=-3.609696691039D+03  KE= 6.688024770004D+02
 Breneman (CHELPG) radii used.
 Read replacement radii for each type of atom:
 Atom Element Radius
    1     6    1.50
    2     8    1.70
    3     6    1.50
    4     6    1.50
    5     6    1.50
    6     7    1.70
    7     6    1.50
    8     6    1.50
    9     6    1.50
   10     6    1.50
   11     6    1.50
   12     6    1.50
   13     6    1.50
   14     6    1.50
   15     6    1.50
   16     6    1.50
   17     1    1.45
   18     1    1.45
   19     1    1.45
   20     1    1.45
   21     1    1.45
   22     1    1.45
   23     1    1.45
   24     1    1.45
   25     1    1.45
   26     1    1.45
   27     1    1.45
   28     1    1.45
   29     1    1.45
   30     1    1.45
   31     1    1.45
 Generate Potential Derived Charges using the Breneman model, NDens= 1.
 Grid spacing= 0.300 Box extension= 2.800
 NStep X,Y,Z=   58     39     31   Total possible points=       70122
 Number of Points to Fit=   18967

 **********************************************************************

            Electrostatic Properties Using The SCF Density.

 **********************************************************************

       Atomic Center    1 is at   5.225642 -0.007812  0.337254
       Atomic Center    2 is at   4.003720  0.672608  0.394616
       Atomic Center    3 is at   2.874384  0.020732  0.036752
       Atomic Center    4 is at   1.695245  0.772143  0.135768
       Atomic Center    5 is at   0.455969  0.216652 -0.203401
       Atomic Center    6 is at  -0.709585  0.977084 -0.142947
       Atomic Center    7 is at  -0.620345  2.400320  0.102438
       Atomic Center    8 is at  -1.978329  0.360020  0.002494
       Atomic Center    9 is at  -3.032815  0.719660 -0.844844
       Atomic Center   10 is at  -4.293917  0.149208 -0.685010
       Atomic Center   11 is at  -4.513669 -0.803649  0.308452
       Atomic Center   12 is at  -3.463403 -1.174272  1.148578
       Atomic Center   13 is at  -2.207554 -0.590690  1.005856
       Atomic Center   14 is at   0.421807 -1.123679 -0.653006
       Atomic Center   15 is at   1.594883 -1.853225 -0.736186
       Atomic Center   16 is at   2.836682 -1.305289 -0.397201
       Atomic Center   17 is at   5.238268 -0.887598  1.004568
       Atomic Center   18 is at   5.996273  0.698933  0.669232
       Atomic Center   19 is at   5.464399 -0.338625 -0.688889
       Atomic Center   20 is at   1.792675  1.794940  0.495793
       Atomic Center   21 is at  -0.273289  2.631245  1.127432
       Atomic Center   22 is at  -1.611415  2.852452 -0.023311
       Atomic Center   23 is at   0.069535  2.879476 -0.609690
       Atomic Center   24 is at  -2.852046  1.446697 -1.639740
       Atomic Center   25 is at  -5.106786  0.441264 -1.353646
       Atomic Center   26 is at  -5.499678 -1.257413  0.427270
       Atomic Center   27 is at  -3.626227 -1.916400  1.933408
       Atomic Center   28 is at  -1.387145 -0.873289  1.668716
       Atomic Center   29 is at  -0.525264 -1.577224 -0.945149
       Atomic Center   30 is at   1.551387 -2.886440 -1.089090
       Atomic Center   31 is at   3.739175 -1.909179 -0.480864
   18967 points will be used for fitting atomic charges
 Fitting point charges to electrostatic potential
 Charges from ESP fit, RMS=   0.00373 RRMS=   0.34985:
 ESP charges:
               1
     1  C    0.141712
     2  O   -0.371121
     3  C    0.449771
     4  C   -0.435096
     5  C    0.423110
     6  N   -0.425613
     7  C    0.087019
     8  C    0.347621
     9  C   -0.218856
    10  C   -0.063440
    11  C   -0.143470
    12  C   -0.080977
    13  C   -0.146406
    14  C   -0.306346
    15  C   -0.032532
    16  C   -0.352402
    17  H    0.008666
    18  H    0.048488
    19  H    0.008079
    20  H    0.153176
    21  H    0.015966
    22  H    0.015023
    23  H    0.033777
    24  H    0.126952
    25  H    0.091498
    26  H    0.101495
    27  H    0.096337
    28  H    0.084686
    29  H    0.095584
    30  H    0.107226
    31  H    0.140072
 Sum of ESP charges =  -0.00000
 ESP charges with hydrogens summed into heavy atoms:
               1
     1  C    0.206945
     2  O   -0.371121
     3  C    0.449771
     4  C   -0.281920
     5  C    0.423110
     6  N   -0.425613
     7  C    0.151786
     8  C    0.347621
     9  C   -0.091904
    10  C    0.028058
    11  C   -0.041976
    12  C    0.015360
    13  C   -0.061719
    14  C   -0.210761
    15  C    0.074694
    16  C   -0.212329
 Charge=  -0.00000 Dipole=    -0.0769     0.0844     0.1162 Tot=     0.1629
 -----------------------------------------------------------------

              Electrostatic Properties (Atomic Units)

 -----------------------------------------------------------------
    Center     Electric         -------- Electric Field --------
               Potential          X             Y             Z
 -----------------------------------------------------------------
    1 Atom    -14.717805
    2 Atom    -22.330788
    3 Atom    -14.714221
    4 Atom    -14.786078
    5 Atom    -14.728556
    6 Atom    -18.361354
    7 Atom    -14.737728
    8 Atom    -14.727280
    9 Atom    -14.768212
   10 Atom    -14.765395
   11 Atom    -14.768777
   12 Atom    -14.766133
   13 Atom    -14.769602
   14 Atom    -14.787384
   15 Atom    -14.774426
   16 Atom    -14.785667
   17 Atom     -1.110501
   18 Atom     -1.108225
   19 Atom     -1.110579
   20 Atom     -1.110491
   21 Atom     -1.116731
   22 Atom     -1.105887
   23 Atom     -1.112899
   24 Atom     -1.101548
   25 Atom     -1.104482
   26 Atom     -1.106221
   27 Atom     -1.105567
   28 Atom     -1.104849
   29 Atom     -1.117950
   30 Atom     -1.115421
   31 Atom     -1.109944
 -----------------------------------------------------------------
 Unable to Open any file for archive entry.
 1\1\GINC-NOTCH480\SP\RwB97XD\def2TZVP\C14H15N1O1\U1366379\17-Feb-2026\
 0\\#N Guess=Read Geom=Check Integral(Ultrafine) Density Pop=(ChelpG,Re
 adRadii) NMR wB97XD def2TZVP\\prod_5g_9\\0,1\C,0,-5.0750256398,1.22960
 77847,-0.4664670329\O,0,-3.8443102582,1.3663146667,0.1862239779\C,0,-2
 .8240964458,0.5506378652,-0.1634095401\C,0,-1.6252717574,0.7638312315,
 0.530968848\C,0,-0.4906780334,-0.0117185718,0.2652015259\N,0,0.6877560
 937,0.17449322,0.9842610719\C,0,0.6903080044,1.0537185434,2.1334929934
 \C,0,1.9415622161,-0.2124928295,0.4458898108\C,0,2.8261041912,-0.97935
 96622,1.213199669\C,0,4.0765732984,-1.3311506172,0.7093019885\C,0,4.45
 20857113,-0.9408038093,-0.5751476211\C,0,3.5699771979,-0.1860005396,-1
 .348703324\C,0,2.3283197257,0.185721116,-0.8405673303\C,0,-0.583590268
 1,-1.0209012005,-0.7210619846\C,0,-1.7727850823,-1.2114396507,-1.40280
 48313\C,0,-2.9101200216,-0.4390350267,-1.1438262339\H,0,-4.9873437906,
 1.4117719471,-1.5521089153\H,0,-5.7465033667,1.9821246575,-0.034717117
 \H,0,-5.5145905678,0.228747445,-0.3100276809\H,0,-1.6211753143,1.56173
 93865,1.2716106446\H,0,0.5517643276,2.1152204409,1.8534831351\H,0,1.65
 26974485,0.9690705791,2.6522385621\H,0,-0.1074754981,0.7783434738,2.84
 08553032\H,0,2.5197192026,-1.3069164041,2.2091689379\H,0,4.7559519199,
 -1.9289981804,1.3209803711\H,0,5.4283742381,-1.2247468341,-0.973231090
 4\H,0,3.8563787399,0.1291906844,-2.3546129127\H,0,1.6407329271,0.78423
 26879,-1.4416703699\H,0,0.2763277859,-1.6555207145,-0.9350539628\H,0,-
 1.8287701545,-1.9980277712,-2.1591852341\H,0,-3.8300568298,-0.62219391
 8,-1.6973116576\\Version=ES64L-G16RevC.01\State=1-A\HF=-672.4944501\RM
 SD=1.487e-09\Dipole=0.026752,0.0606052,0.0031545\Quadrupole=5.9320208,
 -5.4738448,-0.458176,-2.5277728,2.9158938,0.5416665\PG=C01 [X(C14H15N1
 O1)]\\@
 The archive entry for this job was punched.


 MOST BUREAUCRACIES FUNCTION LIKE A SEPTIC TANK.
 THE LARGE CHUNKS RISE TO THE TOP.
 Job cpu time:       0 days  0 hours 41 minutes 38.7 seconds.
 Elapsed time:       0 days  0 hours  5 minutes 23.0 seconds.
 File lengths (MBytes):  RWF=    209 Int=      0 D2E=      0 Chk=     32 Scr=      2
 Normal termination of Gaussian 16 at Tue Feb 17 16:10:29 2026.
