 Entering Gaussian System, Link 0=g16
 Input=prod_3c_2.com
 Output=prod_3c_2.log
 Initial command:
 /uufs/chpc.utah.edu/sys/installdir/gaussian16/C01/AVX/g16/l1.exe "/scratch/general/vast/u1366379/GAUSSSCRDIR/11028601-notchpeak.peaks/Gau-2692930.inp" -scrdir="/scratch/general/vast/u1366379/GAUSSSCRDIR/11028601-notchpeak.peaks/"
 Entering Link 1 = /uufs/chpc.utah.edu/sys/installdir/gaussian16/C01/AVX/g16/l1.exe PID=   2692931.
  
 Copyright (c) 1988-2019, Gaussian, Inc.  All Rights Reserved.
  
 This is part of the Gaussian(R) 16 program.  It is based on
 the Gaussian(R) 09 system (copyright 2009, Gaussian, Inc.),
 the Gaussian(R) 03 system (copyright 2003, Gaussian, Inc.),
 the Gaussian(R) 98 system (copyright 1998, Gaussian, Inc.),
 the Gaussian(R) 94 system (copyright 1995, Gaussian, Inc.),
 the Gaussian 92(TM) system (copyright 1992, Gaussian, Inc.),
 the Gaussian 90(TM) system (copyright 1990, Gaussian, Inc.),
 the Gaussian 88(TM) system (copyright 1988, Gaussian, Inc.),
 the Gaussian 86(TM) system (copyright 1986, Carnegie Mellon
 University), and the Gaussian 82(TM) system (copyright 1983,
 Carnegie Mellon University). Gaussian is a federally registered
 trademark of Gaussian, Inc.
  
 This software contains proprietary and confidential information,
 including trade secrets, belonging to Gaussian, Inc.
  
 This software is provided under written license and may be
 used, copied, transmitted, or stored only in accord with that
 written license.
  
 The following legend is applicable only to US Government
 contracts under FAR:
  
                    RESTRICTED RIGHTS LEGEND
  
 Use, reproduction and disclosure by the US Government is
 subject to restrictions as set forth in subparagraphs (a)
 and (c) of the Commercial Computer Software - Restricted
 Rights clause in FAR 52.227-19.
  
 Gaussian, Inc.
 340 Quinnipiac St., Bldg. 40, Wallingford CT 06492
  
  
 ---------------------------------------------------------------
 Warning -- This program may not be used in any manner that
 competes with the business of Gaussian, Inc. or will provide
 assistance to any competitor of Gaussian, Inc.  The licensee
 of this program is prohibited from giving any competitor of
 Gaussian, Inc. access to this program.  By using this program,
 the user acknowledges that Gaussian, Inc. is engaged in the
 business of creating and licensing software in the field of
 computational chemistry and represents and warrants to the
 licensee that it is not a competitor of Gaussian, Inc. and that
 it will not use this program in any manner prohibited above.
 ---------------------------------------------------------------
  

 Cite this work as:
 Gaussian 16, Revision C.01,
 M. J. Frisch, G. W. Trucks, H. B. Schlegel, G. E. Scuseria, 
 M. A. Robb, J. R. Cheeseman, G. Scalmani, V. Barone, 
 G. A. Petersson, H. Nakatsuji, X. Li, M. Caricato, A. V. Marenich, 
 J. Bloino, B. G. Janesko, R. Gomperts, B. Mennucci, H. P. Hratchian, 
 J. V. Ortiz, A. F. Izmaylov, J. L. Sonnenberg, D. Williams-Young, 
 F. Ding, F. Lipparini, F. Egidi, J. Goings, B. Peng, A. Petrone, 
 T. Henderson, D. Ranasinghe, V. G. Zakrzewski, J. Gao, N. Rega, 
 G. Zheng, W. Liang, M. Hada, M. Ehara, K. Toyota, R. Fukuda, 
 J. Hasegawa, M. Ishida, T. Nakajima, Y. Honda, O. Kitao, H. Nakai, 
 T. Vreven, K. Throssell, J. A. Montgomery, Jr., J. E. Peralta, 
 F. Ogliaro, M. J. Bearpark, J. J. Heyd, E. N. Brothers, K. N. Kudin, 
 V. N. Staroverov, T. A. Keith, R. Kobayashi, J. Normand, 
 K. Raghavachari, A. P. Rendell, J. C. Burant, S. S. Iyengar, 
 J. Tomasi, M. Cossi, J. M. Millam, M. Klene, C. Adamo, R. Cammi, 
 J. W. Ochterski, R. L. Martin, K. Morokuma, O. Farkas, 
 J. B. Foresman, and D. J. Fox, Gaussian, Inc., Wallingford CT, 2019.
 
 ******************************************
 Gaussian 16:  ES64L-G16RevC.01  3-Jul-2019
                17-Feb-2026 
 ******************************************
 %NProcShared=8
 Will use up to    8 processors via shared memory.
 %Mem=8GB
 %chk=prod_3c_2.chk
 ------------------------------------------------------
 #N OPT FREQ=NORAMAN Integral(Ultrafine) wB97XD def2SVP
 ------------------------------------------------------
 1/18=20,19=15,26=4,38=1/1,3;
 2/9=110,12=2,17=6,18=5,40=1/2;
 3/5=43,7=101,11=2,25=1,30=1,71=1,74=-58,75=-5/1,2,3;
 4//1;
 5/5=2,38=5/2;
 6/7=2,8=2,9=2,10=2,28=1/1;
 7//1,2,3,16;
 1/18=20,19=15,26=4/3(2);
 2/9=110/2;
 99//99;
 2/9=110/2;
 3/5=43,7=101,11=2,25=1,30=1,71=1,74=-58,75=-5/1,2,3;
 4/5=5,16=3,69=1/1;
 5/5=2,38=5/2;
 7//1,2,3,16;
 1/18=20,19=15,26=4/3(-5);
 2/9=110/2;
 6/7=2,8=2,9=2,10=2,19=2,28=1/1;
 99/9=1/99;
 ---------
 prod_3c_2
 ---------
 Symbolic Z-matrix:
 Charge =  0 Multiplicity = 1
 F                     4.27002   1.22607   0.66498 
 C                     3.18755   0.45951   0.37284 
 C                     1.96102   1.04667   0.14379 
 C                     0.83585   0.27906  -0.148 
 N                    -0.40146   0.91312  -0.39675 
 C                    -1.70095   0.37157  -0.2791 
 C                    -2.75593   0.93254  -0.9978 
 C                    -4.03159   0.42906  -0.88245 
 C                    -4.2828   -0.63667  -0.04087 
 C                    -3.25258  -1.19354   0.69101 
 C                    -1.97529  -0.69401   0.57685 
 C                     0.98184  -1.10462  -0.22942 
 C                     2.20446  -1.69445  -0.00376 
 C                     3.30365  -0.91786   0.30088 
 H                     1.87849   2.11529   0.20494 
 H                    -0.34979   1.88331  -0.69783 
 H                    -2.55561   1.76118  -1.6542 
 H                    -4.83625   0.86773  -1.44939 
 H                    -5.28232  -1.02917   0.04926 
 H                    -3.45061  -2.0168    1.35762 
 H                    -1.18117  -1.09998   1.17764 
 H                     0.13466  -1.70572  -0.50696 
 H                     2.30622  -2.76516  -0.07074 
 H                     4.26566  -1.36424   0.47973 
 

 GradGradGradGradGradGradGradGradGradGradGradGradGradGradGradGradGradGrad
 Berny optimization.
 Initialization pass.
                           ----------------------------
                           !    Initial Parameters    !
                           ! (Angstroms and Degrees)  !
 --------------------------                            --------------------------
 ! Name  Definition              Value          Derivative Info.                !
 --------------------------------------------------------------------------------
 ! R1    R(1,2)                  1.3582         estimate D2E/DX2                !
 ! R2    R(2,3)                  1.379          estimate D2E/DX2                !
 ! R3    R(2,14)                 1.3841         estimate D2E/DX2                !
 ! R4    R(3,4)                  1.393          estimate D2E/DX2                !
 ! R5    R(3,15)                 1.0735         estimate D2E/DX2                !
 ! R6    R(4,5)                  1.4124         estimate D2E/DX2                !
 ! R7    R(4,12)                 1.3937         estimate D2E/DX2                !
 ! R8    R(5,6)                  1.4127         estimate D2E/DX2                !
 ! R9    R(5,16)                 1.0171         estimate D2E/DX2                !
 ! R10   R(6,7)                  1.3943         estimate D2E/DX2                !
 ! R11   R(6,11)                 1.394          estimate D2E/DX2                !
 ! R12   R(7,8)                  1.3763         estimate D2E/DX2                !
 ! R13   R(7,17)                 1.0759         estimate D2E/DX2                !
 ! R14   R(8,9)                  1.381          estimate D2E/DX2                !
 ! R15   R(8,18)                 1.0777         estimate D2E/DX2                !
 ! R16   R(9,10)                 1.381          estimate D2E/DX2                !
 ! R17   R(9,19)                 1.0776         estimate D2E/DX2                !
 ! R18   R(10,11)                1.3762         estimate D2E/DX2                !
 ! R19   R(10,20)                1.0777         estimate D2E/DX2                !
 ! R20   R(11,21)                1.0754         estimate D2E/DX2                !
 ! R21   R(12,13)                1.3761         estimate D2E/DX2                !
 ! R22   R(12,22)                1.0752         estimate D2E/DX2                !
 ! R23   R(13,14)                1.3799         estimate D2E/DX2                !
 ! R24   R(13,23)                1.0776         estimate D2E/DX2                !
 ! R25   R(14,24)                1.0755         estimate D2E/DX2                !
 ! A1    A(1,2,3)              120.2843         estimate D2E/DX2                !
 ! A2    A(1,2,14)             120.3959         estimate D2E/DX2                !
 ! A3    A(3,2,14)             119.3198         estimate D2E/DX2                !
 ! A4    A(2,3,4)              121.2386         estimate D2E/DX2                !
 ! A5    A(2,3,15)             118.8654         estimate D2E/DX2                !
 ! A6    A(4,3,15)             119.8919         estimate D2E/DX2                !
 ! A7    A(3,4,5)              119.81           estimate D2E/DX2                !
 ! A8    A(3,4,12)             118.3404         estimate D2E/DX2                !
 ! A9    A(5,4,12)             121.8138         estimate D2E/DX2                !
 ! A10   A(4,5,6)              128.2479         estimate D2E/DX2                !
 ! A11   A(4,5,16)             115.8383         estimate D2E/DX2                !
 ! A12   A(6,5,16)             115.9138         estimate D2E/DX2                !
 ! A13   A(5,6,7)              119.9219         estimate D2E/DX2                !
 ! A14   A(5,6,11)             121.6795         estimate D2E/DX2                !
 ! A15   A(7,6,11)             118.3663         estimate D2E/DX2                !
 ! A16   A(6,7,8)              120.7254         estimate D2E/DX2                !
 ! A17   A(6,7,17)             118.9101         estimate D2E/DX2                !
 ! A18   A(8,7,17)             120.3614         estimate D2E/DX2                !
 ! A19   A(7,8,9)              120.1324         estimate D2E/DX2                !
 ! A20   A(7,8,18)             119.9397         estimate D2E/DX2                !
 ! A21   A(9,8,18)             119.9278         estimate D2E/DX2                !
 ! A22   A(8,9,10)             119.8975         estimate D2E/DX2                !
 ! A23   A(8,9,19)             120.0516         estimate D2E/DX2                !
 ! A24   A(10,9,19)            120.0497         estimate D2E/DX2                !
 ! A25   A(9,10,11)            120.1354         estimate D2E/DX2                !
 ! A26   A(9,10,20)            119.9201         estimate D2E/DX2                !
 ! A27   A(11,10,20)           119.9433         estimate D2E/DX2                !
 ! A28   A(6,11,10)            120.7319         estimate D2E/DX2                !
 ! A29   A(6,11,21)            119.0964         estimate D2E/DX2                !
 ! A30   A(10,11,21)           120.1328         estimate D2E/DX2                !
 ! A31   A(4,12,13)            120.5985         estimate D2E/DX2                !
 ! A32   A(4,12,22)            119.1809         estimate D2E/DX2                !
 ! A33   A(13,12,22)           120.1823         estimate D2E/DX2                !
 ! A34   A(12,13,14)           120.1796         estimate D2E/DX2                !
 ! A35   A(12,13,23)           119.9726         estimate D2E/DX2                !
 ! A36   A(14,13,23)           119.8467         estimate D2E/DX2                !
 ! A37   A(2,14,13)            120.3116         estimate D2E/DX2                !
 ! A38   A(2,14,24)            118.6462         estimate D2E/DX2                !
 ! A39   A(13,14,24)           121.0407         estimate D2E/DX2                !
 ! D1    D(1,2,3,4)           -179.5393         estimate D2E/DX2                !
 ! D2    D(1,2,3,15)            -0.2658         estimate D2E/DX2                !
 ! D3    D(14,2,3,4)             0.5095         estimate D2E/DX2                !
 ! D4    D(14,2,3,15)          179.783          estimate D2E/DX2                !
 ! D5    D(1,2,14,13)         -179.6197         estimate D2E/DX2                !
 ! D6    D(1,2,14,24)           -0.0579         estimate D2E/DX2                !
 ! D7    D(3,2,14,13)            0.3315         estimate D2E/DX2                !
 ! D8    D(3,2,14,24)          179.8933         estimate D2E/DX2                !
 ! D9    D(2,3,4,5)           -179.0743         estimate D2E/DX2                !
 ! D10   D(2,3,4,12)            -1.2095         estimate D2E/DX2                !
 ! D11   D(15,3,4,5)             1.6596         estimate D2E/DX2                !
 ! D12   D(15,3,4,12)          179.5244         estimate D2E/DX2                !
 ! D13   D(3,4,5,6)           -157.3892         estimate D2E/DX2                !
 ! D14   D(3,4,5,16)            22.5343         estimate D2E/DX2                !
 ! D15   D(12,4,5,6)            24.8224         estimate D2E/DX2                !
 ! D16   D(12,4,5,16)         -155.2542         estimate D2E/DX2                !
 ! D17   D(3,4,12,13)            1.0917         estimate D2E/DX2                !
 ! D18   D(3,4,12,22)         -176.661          estimate D2E/DX2                !
 ! D19   D(5,4,12,13)          178.9114         estimate D2E/DX2                !
 ! D20   D(5,4,12,22)            1.1588         estimate D2E/DX2                !
 ! D21   D(4,5,6,7)           -156.7562         estimate D2E/DX2                !
 ! D22   D(4,5,6,11)            25.3437         estimate D2E/DX2                !
 ! D23   D(16,5,6,7)            23.3204         estimate D2E/DX2                !
 ! D24   D(16,5,6,11)         -154.5797         estimate D2E/DX2                !
 ! D25   D(5,6,7,8)           -179.1607         estimate D2E/DX2                !
 ! D26   D(5,6,7,17)             1.4793         estimate D2E/DX2                !
 ! D27   D(11,6,7,8)            -1.1914         estimate D2E/DX2                !
 ! D28   D(11,6,7,17)          179.4485         estimate D2E/DX2                !
 ! D29   D(5,6,11,10)          179.0301         estimate D2E/DX2                !
 ! D30   D(5,6,11,21)            1.2973         estimate D2E/DX2                !
 ! D31   D(7,6,11,10)            1.0984         estimate D2E/DX2                !
 ! D32   D(7,6,11,21)         -176.6344         estimate D2E/DX2                !
 ! D33   D(6,7,8,9)              0.4982         estimate D2E/DX2                !
 ! D34   D(6,7,8,18)          -179.5469         estimate D2E/DX2                !
 ! D35   D(17,7,8,9)           179.849          estimate D2E/DX2                !
 ! D36   D(17,7,8,18)           -0.1962         estimate D2E/DX2                !
 ! D37   D(7,8,9,10)             0.3159         estimate D2E/DX2                !
 ! D38   D(7,8,9,19)           179.9338         estimate D2E/DX2                !
 ! D39   D(18,8,9,10)         -179.639          estimate D2E/DX2                !
 ! D40   D(18,8,9,19)           -0.0211         estimate D2E/DX2                !
 ! D41   D(8,9,10,11)           -0.4087         estimate D2E/DX2                !
 ! D42   D(8,9,10,20)          179.1962         estimate D2E/DX2                !
 ! D43   D(19,9,10,11)         179.9735         estimate D2E/DX2                !
 ! D44   D(19,9,10,20)          -0.4217         estimate D2E/DX2                !
 ! D45   D(9,10,11,6)           -0.312          estimate D2E/DX2                !
 ! D46   D(9,10,11,21)         177.3974         estimate D2E/DX2                !
 ! D47   D(20,10,11,6)        -179.9167         estimate D2E/DX2                !
 ! D48   D(20,10,11,21)         -2.2074         estimate D2E/DX2                !
 ! D49   D(4,12,13,14)          -0.2839         estimate D2E/DX2                !
 ! D50   D(4,12,13,23)        -179.9128         estimate D2E/DX2                !
 ! D51   D(22,12,13,14)        177.4462         estimate D2E/DX2                !
 ! D52   D(22,12,13,23)         -2.1827         estimate D2E/DX2                !
 ! D53   D(12,13,14,2)          -0.4435         estimate D2E/DX2                !
 ! D54   D(12,13,14,24)       -179.9946         estimate D2E/DX2                !
 ! D55   D(23,13,14,2)         179.1859         estimate D2E/DX2                !
 ! D56   D(23,13,14,24)         -0.3653         estimate D2E/DX2                !
 --------------------------------------------------------------------------------
 Trust Radius=3.00D-01 FncErr=1.00D-07 GrdErr=1.00D-06 EigMax=2.50D+02 EigMin=1.00D-04
 Number of steps in this run=    130 maximum allowed number of steps=    144.
 GradGradGradGradGradGradGradGradGradGradGradGradGradGradGradGradGradGrad

                          Input orientation:                          
 ---------------------------------------------------------------------
 Center     Atomic      Atomic             Coordinates (Angstroms)
 Number     Number       Type             X           Y           Z
 ---------------------------------------------------------------------
      1          9           0        4.270020    1.226070    0.664980
      2          6           0        3.187550    0.459510    0.372840
      3          6           0        1.961020    1.046670    0.143790
      4          6           0        0.835850    0.279060   -0.148000
      5          7           0       -0.401460    0.913120   -0.396750
      6          6           0       -1.700950    0.371570   -0.279100
      7          6           0       -2.755930    0.932540   -0.997800
      8          6           0       -4.031590    0.429060   -0.882450
      9          6           0       -4.282800   -0.636670   -0.040870
     10          6           0       -3.252580   -1.193540    0.691010
     11          6           0       -1.975290   -0.694010    0.576850
     12          6           0        0.981840   -1.104620   -0.229420
     13          6           0        2.204460   -1.694450   -0.003760
     14          6           0        3.303650   -0.917860    0.300880
     15          1           0        1.878490    2.115290    0.204940
     16          1           0       -0.349790    1.883310   -0.697830
     17          1           0       -2.555610    1.761180   -1.654200
     18          1           0       -4.836250    0.867730   -1.449390
     19          1           0       -5.282320   -1.029170    0.049260
     20          1           0       -3.450610   -2.016800    1.357620
     21          1           0       -1.181170   -1.099980    1.177640
     22          1           0        0.134660   -1.705720   -0.506960
     23          1           0        2.306220   -2.765160   -0.070740
     24          1           0        4.265660   -1.364240    0.479730
 ---------------------------------------------------------------------
                    Distance matrix (angstroms):
                    1          2          3          4          5
     1  F    0.000000
     2  C    1.358198   0.000000
     3  C    2.373880   1.378984   0.000000
     4  C    3.653941   2.415436   1.392973   0.000000
     5  N    4.800826   3.698516   2.427206   1.412390   0.000000
     6  C    6.105239   4.932564   3.747615   2.541869   1.412725
     7  C    7.225993   6.117791   4.854469   3.748344   2.430055
     8  C    8.482128   7.327528   6.111136   4.924824   3.694328
     9  C    8.781728   7.561673   6.469391   5.201021   4.194437
    10  C    7.902196   6.656507   5.700843   4.425805   3.708116
    11  C    6.534399   5.294067   4.325742   3.061826   2.451062
    12  C    4.128462   2.770266   2.392933   1.393741   2.452100
    13  C    3.639119   2.397465   2.755862   2.405959   3.707382
    14  C    2.379680   1.384126   2.384683   2.779235   4.191302
    15  H    2.592637   2.117413   1.073545   2.140889   2.646775
    16  H    4.861261   3.960595   2.597717   2.069220   1.017147
    17  H    7.228704   6.227931   4.913577   3.995913   2.634530
    18  H    9.355379   8.238236   6.983776   5.849177   4.558231
    19  H    9.834247   8.605787   7.535517   6.259583   5.272021
    20  H    8.402624   7.153116   6.335927   5.090344   4.578161
    21  H    5.948849   4.708017   3.943388   2.779828   2.671932
    22  H    5.202887   3.844790   3.366707   2.135386   2.675424
    23  H    4.508626   3.372240   3.833436   3.381602   4.579035
    24  H    2.596929   2.121276   3.352120   3.854618   5.266554
                    6          7          8          9         10
     6  C    0.000000
     7  C    1.394346   0.000000
     8  C    2.408157   1.376265   0.000000
     9  C    2.781951   2.389449   1.380994   0.000000
    10  C    2.407953   2.760246   2.390704   1.380980   0.000000
    11  C    1.394049   2.394700   2.760292   2.389449   1.376239
    12  C    3.062510   4.325662   5.283285   5.288758   4.334214
    13  C    4.426791   5.700409   6.646030   6.573037   5.523848
    14  C    5.200483   6.467539   7.551173   7.599348   6.573610
    15  H    4.010891   4.931869   6.241381   6.752422   6.124745
    16  H    2.070344   2.604507   3.962900   4.717040   4.452199
    17  H    2.133626   1.075934   2.132758   3.366854   3.836163
    18  H    3.383173   2.129757   1.077650   2.133883   3.367218
    19  H    3.859547   3.365604   2.135145   1.077599   2.135112
    20  H    3.382968   3.837863   3.367148   2.133793   1.077656
    21  H    2.134882   3.368018   3.834948   3.364451   2.129860
    22  H    2.781460   3.944217   4.696373   4.568814   3.629167
    23  H    5.093123   6.337017   7.143511   6.924344   5.826707
    24  H    6.260135   7.533991   8.597431   8.595147   7.523145
                   11         12         13         14         15
    11  C    0.000000
    12  C    3.092457   0.000000
    13  C    4.336853   1.376089   0.000000
    14  C    5.290886   2.388912   1.379897   0.000000
    15  H    4.783524   3.370530   3.829351   3.352653   0.000000
    16  H    3.302974   3.304599   4.450426   4.710796   2.415376
    17  H    3.367835   4.770363   6.109304   6.732794   4.821103
    18  H    3.837939   6.263279   7.630610   8.515266   7.027158
    19  H    3.365580   6.270810   7.516467   8.590377   7.822344
    20  H    2.129776   4.795558   5.825554   6.924189   6.841209
    21  H    1.075354   2.580398   3.634775   4.573345   4.543746
    22  H    2.578777   1.075204   2.130120   3.363900   4.260031
    23  H    4.800038   2.129919   1.077618   2.132014   4.906908
    24  H    6.277587   3.369536   2.142743   1.075503   4.228619
                   16         17         18         19         20
    16  H    0.000000
    17  H    2.407322   0.000000
    18  H    4.660962   2.457950   0.000000
    19  H    5.776724   4.257085   2.458284   0.000000
    20  H    5.389881   4.913778   4.256738   2.458125   0.000000
    21  H    3.620580   4.253779   4.912513   4.254138   2.454243
    22  H    3.626604   4.535759   5.676334   5.487328   4.053096
    23  H    5.390353   6.828799   8.131017   7.785499   5.978407
    24  H    5.765033   7.800746   9.568070   9.563551   7.793417
                   21         22         23         24
    21  H    0.000000
    22  H    2.221758   0.000000
    23  H    4.061178   2.455275   0.000000
    24  H    5.497715   4.260907   2.470830   0.000000
 Stoichiometry    C12H10FN
 Framework group  C1[X(C12H10FN)]
 Deg. of freedom    66
 Full point group                 C1      NOp   1
 Largest Abelian subgroup         C1      NOp   1
 Largest concise Abelian subgroup C1      NOp   1
                         Standard orientation:                         
 ---------------------------------------------------------------------
 Center     Atomic      Atomic             Coordinates (Angstroms)
 Number     Number       Type             X           Y           Z
 ---------------------------------------------------------------------
      1          9           0       -4.431457   -0.947850    0.539522
      2          6           0       -3.294199   -0.299256    0.178039
      3          6           0       -2.080658   -0.953425    0.209343
      4          6           0       -0.900882   -0.304756   -0.148050
      5          7           0        0.322929   -1.009413   -0.123769
      6          6           0        1.630992   -0.486864   -0.015579
      7          6           0        2.716728   -1.228144   -0.480208
      8          6           0        3.999534   -0.742532   -0.367524
      9          6           0        4.226406    0.486663    0.219632
     10          6           0        3.164003    1.226507    0.700295
     11          6           0        1.879654    0.745053    0.587681
     12          6           0       -0.976156    1.022774   -0.565795
     13          6           0       -2.185394    1.678633   -0.600641
     14          6           0       -3.340817    1.023682   -0.226272
     15          1           0       -2.052453   -1.978365    0.527464
     16          1           0        0.252935   -2.021866   -0.191795
     17          1           0        2.535529   -2.184250   -0.939186
     18          1           0        4.828760   -1.322887   -0.737527
     19          1           0        5.231455    0.865162    0.308150
     20          1           0        3.341807    2.179878    1.170202
     21          1           0        1.056542    1.301471    0.999107
     22          1           0       -0.081874    1.519865   -0.896288
     23          1           0       -2.232146    2.704676   -0.926695
     24          1           0       -4.293216    1.522840   -0.248274
 ---------------------------------------------------------------------
 Rotational constants (GHZ):           2.2079333           0.3174223           0.2891466
 Standard basis: def2SVP (5D, 7F)
 There are   260 symmetry adapted cartesian basis functions of A   symmetry.
 There are   246 symmetry adapted basis functions of A   symmetry.
   246 basis functions,   420 primitive gaussians,   260 cartesian basis functions
    49 alpha electrons       49 beta electrons
       nuclear repulsion energy       792.2645536948 Hartrees.
 NAtoms=   24 NActive=   24 NUniq=   24 SFac= 1.00D+00 NAtFMM=   60 NAOKFM=F Big=F
 Integral buffers will be    131072 words long.
 Raffenetti 2 integral format.
 Two-electron integral symmetry is turned on.
 Nuclear repulsion after empirical dispersion term =      792.2507623118 Hartrees.
 One-electron integrals computed using PRISM.
   1 Symmetry operations used in ECPInt.
 ECPInt:  NShTT=    6555 NPrTT=   24083 LenC2=    6129 LenP2D=   16563.
 LDataN:  DoStor=T MaxTD1= 4 Len=   56
 NBasis=   246 RedAO= T EigKep=  2.28D-04  NBF=   246
 NBsUse=   246 1.00D-06 EigRej= -1.00D+00 NBFU=   246
 ExpMin= 1.22D-01 ExpMax= 2.89D+03 ExpMxC= 4.35D+02 IAcc=3 IRadAn=         5 AccDes= 0.00D+00
 Harris functional with IExCor= 4639 and IRadAn=       5 diagonalized for initial guess.
 HarFok:  IExCor= 4639 AccDes= 0.00D+00 IRadAn=         5 IDoV= 1 UseB2=F ITyADJ=14
 ICtDFT=  3500011 ScaDFX=  1.000000  1.000000  1.000000  1.000000
 FoFCou: FMM=F IPFlag=           0 FMFlag=      100000 FMFlg1=           0
         NFxFlg=           0 DoJE=T BraDBF=F KetDBF=T FulRan=T
         wScrn=  0.000000 ICntrl=       500 IOpCl=  0 I1Cent=   200000004 NGrid=           0
         NMat0=    1 NMatS0=      1 NMatT0=    0 NMatD0=    1 NMtDS0=    0 NMtDT0=    0
 Petite list used in FoFCou.
 Requested convergence on RMS density matrix=1.00D-08 within 128 cycles.
 Requested convergence on MAX density matrix=1.00D-06.
 Requested convergence on             energy=1.00D-06.
 No special actions if energy rises.
 Integral accuracy reduced to 1.0D-05 until final iterations.
 Initial convergence to 1.0D-05 achieved.  Increase integral accuracy.
 SCF Done:  E(RwB97XD) =  -617.239724131     A.U. after   15 cycles
            NFock= 15  Conv=0.53D-08     -V/T= 2.0097

 **********************************************************************

            Population analysis using the SCF Density.

 **********************************************************************

 Orbital symmetries:
       Occupied  (A) (A) (A) (A) (A) (A) (A) (A) (A) (A) (A) (A)
                 (A) (A) (A) (A) (A) (A) (A) (A) (A) (A) (A) (A)
                 (A) (A) (A) (A) (A) (A) (A) (A) (A) (A) (A) (A)
                 (A) (A) (A) (A) (A) (A) (A) (A) (A) (A) (A) (A)
                 (A)
       Virtual   (A) (A) (A) (A) (A) (A) (A) (A) (A) (A) (A) (A)
                 (A) (A) (A) (A) (A) (A) (A) (A) (A) (A) (A) (A)
                 (A) (A) (A) (A) (A) (A) (A) (A) (A) (A) (A) (A)
                 (A) (A) (A) (A) (A) (A) (A) (A) (A) (A) (A) (A)
                 (A) (A) (A) (A) (A) (A) (A) (A) (A) (A) (A) (A)
                 (A) (A) (A) (A) (A) (A) (A) (A) (A) (A) (A) (A)
                 (A) (A) (A) (A) (A) (A) (A) (A) (A) (A) (A) (A)
                 (A) (A) (A) (A) (A) (A) (A) (A) (A) (A) (A) (A)
                 (A) (A) (A) (A) (A) (A) (A) (A) (A) (A) (A) (A)
                 (A) (A) (A) (A) (A) (A) (A) (A) (A) (A) (A) (A)
                 (A) (A) (A) (A) (A) (A) (A) (A) (A) (A) (A) (A)
                 (A) (A) (A) (A) (A) (A) (A) (A) (A) (A) (A) (A)
                 (A) (A) (A) (A) (A) (A) (A) (A) (A) (A) (A) (A)
                 (A) (A) (A) (A) (A) (A) (A) (A) (A) (A) (A) (A)
                 (A) (A) (A) (A) (A) (A) (A) (A) (A) (A) (A) (A)
                 (A) (A) (A) (A) (A) (A) (A) (A) (A) (A) (A) (A)
                 (A) (A) (A) (A) (A)
 The electronic state is 1-A.
 Alpha  occ. eigenvalues --  -24.82373 -14.47665 -10.38664 -10.35800 -10.34994
 Alpha  occ. eigenvalues --  -10.31059 -10.30484 -10.30257 -10.30169 -10.30034
 Alpha  occ. eigenvalues --  -10.29874 -10.29873 -10.29724 -10.29341  -1.30277
 Alpha  occ. eigenvalues --   -1.04695  -0.96735  -0.94519  -0.86246  -0.85232
 Alpha  occ. eigenvalues --   -0.84476  -0.81825  -0.72939  -0.72268  -0.70264
 Alpha  occ. eigenvalues --   -0.68533  -0.64476  -0.62910  -0.60147  -0.58774
 Alpha  occ. eigenvalues --   -0.57169  -0.56645  -0.55578  -0.53949  -0.52796
 Alpha  occ. eigenvalues --   -0.52344  -0.51522  -0.49645  -0.48467  -0.46875
 Alpha  occ. eigenvalues --   -0.46322  -0.44474  -0.44085  -0.43129  -0.41073
 Alpha  occ. eigenvalues --   -0.34480  -0.33922  -0.33285  -0.27390
 Alpha virt. eigenvalues --    0.04698   0.05769   0.06187   0.09102   0.13572
 Alpha virt. eigenvalues --    0.14778   0.14944   0.18532   0.19458   0.20199
 Alpha virt. eigenvalues --    0.20850   0.22817   0.22979   0.23337   0.24332
 Alpha virt. eigenvalues --    0.24512   0.26005   0.30342   0.33308   0.35307
 Alpha virt. eigenvalues --    0.36022   0.36708   0.37856   0.38532   0.39136
 Alpha virt. eigenvalues --    0.39983   0.41401   0.42882   0.45454   0.47654
 Alpha virt. eigenvalues --    0.48313   0.49083   0.49554   0.50872   0.52315
 Alpha virt. eigenvalues --    0.54102   0.54673   0.55695   0.56345   0.57265
 Alpha virt. eigenvalues --    0.57838   0.58001   0.60087   0.61092   0.61767
 Alpha virt. eigenvalues --    0.62877   0.63754   0.64803   0.64930   0.67252
 Alpha virt. eigenvalues --    0.68777   0.69377   0.71239   0.71748   0.73571
 Alpha virt. eigenvalues --    0.74290   0.74892   0.75306   0.76700   0.77635
 Alpha virt. eigenvalues --    0.77946   0.78488   0.79254   0.79973   0.80925
 Alpha virt. eigenvalues --    0.82365   0.82953   0.84229   0.84473   0.85667
 Alpha virt. eigenvalues --    0.86738   0.88580   0.89105   0.92022   0.92342
 Alpha virt. eigenvalues --    0.94279   0.95043   0.95686   1.02210   1.02618
 Alpha virt. eigenvalues --    1.05908   1.08496   1.14948   1.17483   1.18233
 Alpha virt. eigenvalues --    1.22121   1.24377   1.26050   1.27703   1.29411
 Alpha virt. eigenvalues --    1.30609   1.31867   1.33064   1.33950   1.35268
 Alpha virt. eigenvalues --    1.36036   1.37166   1.37973   1.38863   1.40340
 Alpha virt. eigenvalues --    1.41388   1.43777   1.52220   1.56410   1.57628
 Alpha virt. eigenvalues --    1.59197   1.60495   1.68501   1.73134   1.74463
 Alpha virt. eigenvalues --    1.76456   1.77488   1.78126   1.80108   1.80854
 Alpha virt. eigenvalues --    1.81637   1.82610   1.83275   1.84654   1.85254
 Alpha virt. eigenvalues --    1.85862   1.86113   1.87715   1.88410   1.89137
 Alpha virt. eigenvalues --    1.89475   1.90593   1.92200   1.94744   1.95483
 Alpha virt. eigenvalues --    1.96461   2.00370   2.02988   2.04180   2.05924
 Alpha virt. eigenvalues --    2.06258   2.08104   2.09944   2.12473   2.15736
 Alpha virt. eigenvalues --    2.17404   2.18891   2.20175   2.21683   2.22286
 Alpha virt. eigenvalues --    2.23481   2.23847   2.26247   2.27491   2.29536
 Alpha virt. eigenvalues --    2.33228   2.33576   2.35385   2.36773   2.37809
 Alpha virt. eigenvalues --    2.39015   2.39337   2.40864   2.43548   2.45264
 Alpha virt. eigenvalues --    2.47877   2.50417   2.54317   2.58702   2.65900
 Alpha virt. eigenvalues --    2.66357   2.69350   2.70177   2.72341   2.73658
 Alpha virt. eigenvalues --    2.77492   2.78107   2.79370   2.83102   2.84443
 Alpha virt. eigenvalues --    2.85119   2.85422   2.92178   2.96831   2.98190
 Alpha virt. eigenvalues --    3.00510   3.04274   3.07713   3.12056   3.16525
 Alpha virt. eigenvalues --    3.17114   3.20072   3.21191   3.24258   3.29533
 Alpha virt. eigenvalues --    3.39295   3.39665   3.51729   3.65203   3.68063
 Alpha virt. eigenvalues --    3.80161   3.98229
          Condensed to atoms (all electrons):
               1          2          3          4          5          6
     1  F    8.977424   0.362705  -0.065590   0.005478  -0.000007   0.000000
     2  C    0.362705   4.832177   0.223633   0.157889   0.007380  -0.000275
     3  C   -0.065590   0.223633   5.478625   0.171945  -0.084819   0.007538
     4  C    0.005478   0.157889   0.171945   5.120305   0.360478  -0.037145
     5  N   -0.000007   0.007380  -0.084819   0.360478   6.451971   0.349190
     6  C    0.000000  -0.000275   0.007538  -0.037145   0.349190   5.082936
     7  C    0.000000  -0.000009  -0.000125   0.007542  -0.083652   0.274474
     8  C    0.000000   0.000000  -0.000008  -0.000306   0.007645   0.114104
     9  C    0.000000  -0.000000   0.000000   0.000049  -0.000303  -0.161377
    10  C   -0.000000   0.000000   0.000002   0.000235   0.007249   0.116170
    11  C   -0.000000   0.000077  -0.000108  -0.010758  -0.077213   0.250525
    12  C   -0.000301  -0.160269   0.068960   0.224317  -0.078338  -0.010235
    13  C    0.005085   0.135945  -0.140565   0.131690   0.008048   0.000187
    14  C   -0.063690   0.237122   0.029420  -0.157792  -0.000731   0.000092
    15  H    0.001035  -0.053229   0.433437  -0.073837  -0.010837   0.000050
    16  H   -0.000006   0.000507  -0.016563  -0.019698   0.362449  -0.019602
    17  H    0.000000  -0.000001  -0.000026  -0.000043  -0.010011  -0.080061
    18  H   -0.000000   0.000000  -0.000000   0.000005  -0.000116   0.015214
    19  H    0.000000  -0.000000   0.000000   0.000000   0.000009  -0.001647
    20  H   -0.000000  -0.000000   0.000000  -0.000018  -0.000114   0.015244
    21  H    0.000000   0.000052  -0.000775   0.003849  -0.011186  -0.073571
    22  H    0.000002  -0.002248   0.015707  -0.072968  -0.011074   0.003910
    23  H   -0.000048   0.013536  -0.002752   0.015445  -0.000116  -0.000013
    24  H    0.000999  -0.064359   0.018649  -0.002365   0.000009   0.000000
               7          8          9         10         11         12
     1  F    0.000000   0.000000   0.000000  -0.000000  -0.000000  -0.000301
     2  C   -0.000009   0.000000  -0.000000   0.000000   0.000077  -0.160269
     3  C   -0.000125  -0.000008   0.000000   0.000002  -0.000108   0.068960
     4  C    0.007542  -0.000306   0.000049   0.000235  -0.010758   0.224317
     5  N   -0.083652   0.007645  -0.000303   0.007249  -0.077213  -0.078338
     6  C    0.274474   0.114104  -0.161377   0.116170   0.250525  -0.010235
     7  C    5.171034   0.297117   0.080543  -0.145851   0.057857   0.000033
     8  C    0.297117   5.017180   0.288808   0.094740  -0.145324   0.000066
     9  C    0.080543   0.288808   5.097807   0.287982   0.080051  -0.000043
    10  C   -0.145851   0.094740   0.287982   5.020258   0.294332  -0.000387
    11  C    0.057857  -0.145324   0.080051   0.294332   5.196110  -0.005165
    12  C    0.000033   0.000066  -0.000043  -0.000387  -0.005165   5.244074
    13  C    0.000001   0.000000   0.000001  -0.000013  -0.000331   0.259820
    14  C    0.000001  -0.000000  -0.000000   0.000000  -0.000056   0.095048
    15  H   -0.000020  -0.000001   0.000000   0.000000  -0.000007   0.017170
    16  H   -0.016380   0.000435  -0.000038  -0.000144   0.008380   0.008330
    17  H    0.451331  -0.061195   0.015198  -0.002541   0.017017  -0.000006
    18  H   -0.067090   0.451575  -0.069314   0.013960  -0.001916  -0.000000
    19  H    0.014631  -0.070208   0.453425  -0.069512   0.014983   0.000000
    20  H   -0.001937   0.014158  -0.071202   0.453879  -0.067998   0.000037
    21  H    0.015044  -0.002302   0.014593  -0.063328   0.459631   0.002580
    22  H   -0.000650   0.000037  -0.000131   0.001041   0.002588   0.461937
    23  H    0.000000  -0.000000   0.000000  -0.000002   0.000034  -0.067490
    24  H    0.000000  -0.000000   0.000000  -0.000000   0.000000   0.014944
              13         14         15         16         17         18
     1  F    0.005085  -0.063690   0.001035  -0.000006   0.000000  -0.000000
     2  C    0.135945   0.237122  -0.053229   0.000507  -0.000001   0.000000
     3  C   -0.140565   0.029420   0.433437  -0.016563  -0.000026  -0.000000
     4  C    0.131690  -0.157792  -0.073837  -0.019698  -0.000043   0.000005
     5  N    0.008048  -0.000731  -0.010837   0.362449  -0.010011  -0.000116
     6  C    0.000187   0.000092   0.000050  -0.019602  -0.080061   0.015214
     7  C    0.000001   0.000001  -0.000020  -0.016380   0.451331  -0.067090
     8  C    0.000000  -0.000000  -0.000001   0.000435  -0.061195   0.451575
     9  C    0.000001  -0.000000   0.000000  -0.000038   0.015198  -0.069314
    10  C   -0.000013   0.000000   0.000000  -0.000144  -0.002541   0.013960
    11  C   -0.000331  -0.000056  -0.000007   0.008380   0.017017  -0.001916
    12  C    0.259820   0.095048   0.017170   0.008330  -0.000006  -0.000000
    13  C    5.067878   0.203553  -0.003229  -0.000129   0.000000  -0.000000
    14  C    0.203553   5.349925   0.019258  -0.000079   0.000000  -0.000000
    15  H   -0.003229   0.019258   0.668359   0.004774  -0.000014   0.000000
    16  H   -0.000129  -0.000079   0.004774   0.543614   0.005367  -0.000016
    17  H    0.000000   0.000000  -0.000014   0.005367   0.689936  -0.013196
    18  H   -0.000000  -0.000000   0.000000  -0.000016  -0.013196   0.669781
    19  H   -0.000000   0.000000   0.000000  -0.000001  -0.000238  -0.012360
    20  H   -0.000002   0.000000  -0.000000   0.000010   0.000025  -0.000264
    21  H    0.001101  -0.000179  -0.000020  -0.000201  -0.000199   0.000021
    22  H   -0.064715   0.014701  -0.000164  -0.000172  -0.000015  -0.000001
    23  H    0.456296  -0.068422   0.000022   0.000009  -0.000000   0.000000
    24  H   -0.065760   0.439673  -0.000355  -0.000001   0.000000   0.000000
              19         20         21         22         23         24
     1  F    0.000000  -0.000000   0.000000   0.000002  -0.000048   0.000999
     2  C   -0.000000  -0.000000   0.000052  -0.002248   0.013536  -0.064359
     3  C    0.000000   0.000000  -0.000775   0.015707  -0.002752   0.018649
     4  C    0.000000  -0.000018   0.003849  -0.072968   0.015445  -0.002365
     5  N    0.000009  -0.000114  -0.011186  -0.011074  -0.000116   0.000009
     6  C   -0.001647   0.015244  -0.073571   0.003910  -0.000013   0.000000
     7  C    0.014631  -0.001937   0.015044  -0.000650   0.000000   0.000000
     8  C   -0.070208   0.014158  -0.002302   0.000037  -0.000000  -0.000000
     9  C    0.453425  -0.071202   0.014593  -0.000131   0.000000   0.000000
    10  C   -0.069512   0.453879  -0.063328   0.001041  -0.000002  -0.000000
    11  C    0.014983  -0.067998   0.459631   0.002588   0.000034   0.000000
    12  C    0.000000   0.000037   0.002580   0.461937  -0.067490   0.014944
    13  C   -0.000000  -0.000002   0.001101  -0.064715   0.456296  -0.065760
    14  C    0.000000   0.000000  -0.000179   0.014701  -0.068422   0.439673
    15  H    0.000000  -0.000000  -0.000020  -0.000164   0.000022  -0.000355
    16  H   -0.000001   0.000010  -0.000201  -0.000172   0.000009  -0.000001
    17  H   -0.000238   0.000025  -0.000199  -0.000015  -0.000000   0.000000
    18  H   -0.012360  -0.000264   0.000021  -0.000001   0.000000   0.000000
    19  H    0.674121  -0.012333  -0.000229  -0.000001   0.000000  -0.000000
    20  H   -0.012333   0.669992  -0.012909   0.000059  -0.000000   0.000000
    21  H   -0.000229  -0.012909   0.658034  -0.004000   0.000048  -0.000001
    22  H   -0.000001   0.000059  -0.004000   0.653065  -0.012577  -0.000183
    23  H    0.000000  -0.000000   0.000048  -0.012577   0.657746  -0.012850
    24  H   -0.000000   0.000000  -0.000001  -0.000183  -0.012850   0.653149
 Mulliken charges:
               1
     1  F   -0.223089
     2  C    0.309366
     3  C   -0.136587
     4  C    0.175702
     5  N   -0.185912
     6  C    0.154293
     7  C   -0.053894
     8  C   -0.006521
     9  C   -0.016050
    10  C   -0.008071
    11  C   -0.072712
    12  C   -0.075083
    13  C    0.005137
    14  C   -0.097845
    15  H   -0.002393
    16  H    0.139153
    17  H   -0.011328
    18  H    0.013719
    19  H    0.009359
    20  H    0.013372
    21  H    0.013947
    22  H    0.015853
    23  H    0.021133
    24  H    0.018451
 Sum of Mulliken charges =  -0.00000
 Mulliken charges with hydrogens summed into heavy atoms:
               1
     1  F   -0.223089
     2  C    0.309366
     3  C   -0.138981
     4  C    0.175702
     5  N   -0.046760
     6  C    0.154293
     7  C   -0.065222
     8  C    0.007198
     9  C   -0.006690
    10  C    0.005301
    11  C   -0.058765
    12  C   -0.059230
    13  C    0.026270
    14  C   -0.079394
 Electronic spatial extent (au):  <R**2>=           3570.3178
 Charge=             -0.0000 electrons
 Dipole moment (field-independent basis, Debye):
    X=              1.5196    Y=             -0.0951    Z=             -0.4620  Tot=              1.5911
 Quadrupole moment (field-independent basis, Debye-Ang):
   XX=            -83.4891   YY=            -71.0041   ZZ=            -84.1380
   XY=             -3.8813   XZ=              0.7054   YZ=              1.5280
 Traceless Quadrupole moment (field-independent basis, Debye-Ang):
   XX=             -3.9453   YY=              8.5396   ZZ=             -4.5943
   XY=             -3.8813   XZ=              0.7054   YZ=              1.5280
 Octapole moment (field-independent basis, Debye-Ang**2):
  XXX=             27.3996  YYY=            -13.8025  ZZZ=              5.5708  XYY=             -9.1350
  XXY=             17.6075  XXZ=             -8.6687  XZZ=            -12.1288  YZZ=             -2.1262
  YYZ=             -2.1194  XYZ=             10.7006
 Hexadecapole moment (field-independent basis, Debye-Ang**3):
 XXXX=          -3835.8732 YYYY=           -546.8612 ZZZZ=           -193.3031 XXXY=            -60.1269
 XXXZ=             -3.9824 YYYX=             19.6399 YYYZ=             -2.0576 ZZZX=            -25.9654
 ZZZY=             -1.4875 XXYY=           -709.7495 XXZZ=           -713.8133 YYZZ=           -127.6128
 XXYZ=             30.1908 YYXZ=              1.3450 ZZXY=             13.7334
 N-N= 7.922507623118D+02 E-N=-3.020373397316D+03  KE= 6.113245453849D+02
   1 Symmetry operations used in ECPInt.
 ECPInt:  NShTT=    6555 NPrTT=   24083 LenC2=    6129 LenP2D=   16563.
 LDataN:  DoStor=T MaxTD1= 5 Len=  102
 Calling FoFJK, ICntrl=      2127 FMM=F ISym2X=0 I1Cent= 0 IOpClX= 0 NMat=1 NMatS=1 NMatT=0.
 ***** Axes restored to original set *****
 -------------------------------------------------------------------
 Center     Atomic                   Forces (Hartrees/Bohr)
 Number     Number              X              Y              Z
 -------------------------------------------------------------------
      1        9          -0.018594914   -0.012126699   -0.004985625
      2        6           0.007441130    0.001353544    0.000106543
      3        6           0.000800535    0.011047624    0.002093640
      4        6          -0.018949052    0.004951551   -0.004555326
      5        7           0.003602929   -0.001955124    0.001148102
      6        6           0.018362841    0.004743561    0.000371821
      7        6           0.008999959    0.002003420   -0.001236214
      8        6          -0.002400082   -0.000051804    0.001602805
      9        6          -0.007548194   -0.003365086    0.000244653
     10        6          -0.002582426   -0.000394076   -0.001367548
     11        6           0.006799236    0.002849759    0.001718261
     12        6          -0.007797460   -0.000336777   -0.003267425
     13        6           0.000384572    0.004853213    0.001459072
     14        6           0.017581244    0.002379543    0.004548894
     15        1          -0.000833391    0.014078002    0.001481566
     16        1          -0.000316650   -0.005721408    0.001923179
     17        1           0.001767457    0.009493555   -0.008253650
     18        1          -0.007288583    0.004813351   -0.005711771
     19        1          -0.009677232   -0.003862537    0.000660834
     20        1          -0.001150301   -0.007753193    0.006910316
     21        1           0.007152372   -0.005076675    0.006523234
     22        1          -0.007560010   -0.007005071   -0.002555901
     23        1           0.001220581   -0.009730062   -0.000886845
     24        1           0.010585439   -0.005188608    0.002027385
 -------------------------------------------------------------------
 Cartesian Forces:  Max     0.018949052 RMS     0.006815766

 GradGradGradGradGradGradGradGradGradGradGradGradGradGradGradGradGradGrad
 Berny optimization.
 FormGI is forming the generalized inverse of G from B-inverse, IUseBI=4.
 Internal  Forces:  Max     0.022736586 RMS     0.006333835
 Search for a local minimum.
 Step number   1 out of a maximum of  130
 All quantities printed in internal units (Hartrees-Bohrs-Radians)
 Mixed Optimization -- RFO/linear search
 Second derivative matrix not updated -- first step.
 ITU=  0
     Eigenvalues ---    0.01523   0.01526   0.01528   0.01977   0.01985
     Eigenvalues ---    0.02194   0.02201   0.02266   0.02273   0.02293
     Eigenvalues ---    0.02294   0.02319   0.02324   0.02340   0.02340
     Eigenvalues ---    0.02340   0.02356   0.02358   0.02373   0.02377
     Eigenvalues ---    0.02382   0.15988   0.15988   0.15999   0.15999
     Eigenvalues ---    0.16000   0.16000   0.16000   0.16000   0.16000
     Eigenvalues ---    0.16000   0.21999   0.22000   0.22000   0.22000
     Eigenvalues ---    0.23458   0.23464   0.23486   0.24981   0.24983
     Eigenvalues ---    0.25000   0.36279   0.36280   0.36284   0.36286
     Eigenvalues ---    0.36490   0.36543   0.36562   0.36580   0.36786
     Eigenvalues ---    0.43131   0.43207   0.43575   0.43627   0.43835
     Eigenvalues ---    0.43931   0.44796   0.47378   0.47417   0.47887
     Eigenvalues ---    0.47991   0.48976   0.49137   0.49602   0.49794
     Eigenvalues ---    0.53313
 RFO step:  Lambda=-1.26140478D-02 EMin= 1.52345182D-02
 Linear search not attempted -- first point.
 Iteration  1 RMS(Cart)=  0.08087408 RMS(Int)=  0.00124645
 Iteration  2 RMS(Cart)=  0.00273424 RMS(Int)=  0.00009875
 Iteration  3 RMS(Cart)=  0.00000412 RMS(Int)=  0.00009874
 Iteration  4 RMS(Cart)=  0.00000000 RMS(Int)=  0.00009874
 Variable       Old X    -DE/DX   Delta X   Delta X   Delta X     New X
                                 (Linear)    (Quad)   (Total)
    R1        2.56662  -0.02274   0.00000  -0.04166  -0.04166   2.52496
    R2        2.60590   0.00778   0.00000   0.01477   0.01484   2.62075
    R3        2.61562   0.00422   0.00000   0.00822   0.00831   2.62393
    R4        2.63234   0.00836   0.00000   0.01704   0.01702   2.64936
    R5        2.02871   0.01416   0.00000   0.03722   0.03722   2.06593
    R6        2.66903  -0.01649   0.00000  -0.03673  -0.03673   2.63230
    R7        2.63379   0.01188   0.00000   0.02509   0.02501   2.65879
    R8        2.66966  -0.01262   0.00000  -0.02815  -0.02815   2.64151
    R9        1.92213  -0.00604   0.00000  -0.01312  -0.01312   1.90901
   R10        2.63493   0.00859   0.00000   0.01746   0.01745   2.65238
   R11        2.63437   0.01051   0.00000   0.02159   0.02158   2.65596
   R12        2.60076   0.01590   0.00000   0.03102   0.03102   2.63178
   R13        2.03322   0.01268   0.00000   0.03358   0.03358   2.06680
   R14        2.60970   0.01332   0.00000   0.02688   0.02689   2.63659
   R15        2.03646   0.01041   0.00000   0.02772   0.02772   2.06418
   R16        2.60967   0.01376   0.00000   0.02790   0.02791   2.63758
   R17        2.03637   0.01044   0.00000   0.02780   0.02780   2.06417
   R18        2.60071   0.01659   0.00000   0.03262   0.03262   2.63334
   R19        2.03647   0.01041   0.00000   0.02773   0.02773   2.06420
   R20        2.03213   0.01084   0.00000   0.02867   0.02867   2.06079
   R21        2.60043   0.01701   0.00000   0.03390   0.03383   2.63426
   R22        2.03184   0.01053   0.00000   0.02783   0.02783   2.05967
   R23        2.60763   0.01270   0.00000   0.02553   0.02555   2.63318
   R24        2.03640   0.00984   0.00000   0.02620   0.02620   2.06261
   R25        2.03241   0.01196   0.00000   0.03163   0.03163   2.06404
    A1        2.09936  -0.00805   0.00000  -0.03038  -0.03046   2.06889
    A2        2.10130  -0.00586   0.00000  -0.02203  -0.02211   2.07919
    A3        2.08252   0.01391   0.00000   0.05241   0.05254   2.13506
    A4        2.11601  -0.00644   0.00000  -0.02840  -0.02836   2.08765
    A5        2.07459   0.00282   0.00000   0.01191   0.01189   2.08648
    A6        2.09251   0.00362   0.00000   0.01652   0.01650   2.10901
    A7        2.09108  -0.00841   0.00000  -0.03267  -0.03261   2.05847
    A8        2.06543   0.00210   0.00000   0.00897   0.00884   2.07427
    A9        2.12605   0.00630   0.00000   0.02335   0.02337   2.14942
   A10        2.23835   0.00457   0.00000   0.01965   0.01965   2.25800
   A11        2.02176  -0.00228   0.00000  -0.00979  -0.00979   2.01197
   A12        2.02308  -0.00229   0.00000  -0.00985  -0.00986   2.01322
   A13        2.09303  -0.00754   0.00000  -0.02810  -0.02810   2.06493
   A14        2.12371   0.00553   0.00000   0.02166   0.02163   2.14534
   A15        2.06588   0.00199   0.00000   0.00598   0.00593   2.07181
   A16        2.10705  -0.00024   0.00000  -0.00217  -0.00220   2.10485
   A17        2.07537   0.00083   0.00000   0.00521   0.00523   2.08060
   A18        2.10070  -0.00059   0.00000  -0.00300  -0.00299   2.09772
   A19        2.09671   0.00153   0.00000   0.00721   0.00718   2.10388
   A20        2.09334  -0.00156   0.00000  -0.00822  -0.00822   2.08512
   A21        2.09314   0.00003   0.00000   0.00102   0.00101   2.09414
   A22        2.09261  -0.00374   0.00000  -0.01416  -0.01416   2.07845
   A23        2.09530   0.00177   0.00000   0.00650   0.00649   2.10179
   A24        2.09526   0.00197   0.00000   0.00765   0.00764   2.10290
   A25        2.09676   0.00240   0.00000   0.01178   0.01177   2.10853
   A26        2.09300  -0.00034   0.00000  -0.00089  -0.00090   2.09210
   A27        2.09341  -0.00207   0.00000  -0.01094  -0.01096   2.08245
   A28        2.10717  -0.00195   0.00000  -0.00869  -0.00869   2.09848
   A29        2.07862   0.00238   0.00000   0.01256   0.01256   2.09118
   A30        2.09671  -0.00043   0.00000  -0.00370  -0.00371   2.09301
   A31        2.10484  -0.00295   0.00000  -0.00934  -0.00950   2.09534
   A32        2.08010   0.00285   0.00000   0.01267   0.01275   2.09285
   A33        2.09758   0.00010   0.00000  -0.00322  -0.00315   2.09443
   A34        2.09753   0.00375   0.00000   0.01951   0.01943   2.11696
   A35        2.09392  -0.00165   0.00000  -0.00845  -0.00843   2.08548
   A36        2.09172  -0.00211   0.00000  -0.01112  -0.01110   2.08062
   A37        2.09983  -0.01037   0.00000  -0.04313  -0.04304   2.05680
   A38        2.07077   0.00543   0.00000   0.02298   0.02294   2.09370
   A39        2.11256   0.00494   0.00000   0.02013   0.02008   2.13264
    D1       -3.13355  -0.00019   0.00000  -0.00477  -0.00475  -3.13830
    D2       -0.00464  -0.00007   0.00000  -0.00125  -0.00136  -0.00600
    D3        0.00889  -0.00060   0.00000  -0.01540  -0.01552  -0.00663
    D4        3.13780  -0.00048   0.00000  -0.01189  -0.01214   3.12567
    D5       -3.13495  -0.00005   0.00000  -0.00057  -0.00063  -3.13559
    D6       -0.00101  -0.00013   0.00000  -0.00330  -0.00332  -0.00433
    D7        0.00579   0.00036   0.00000   0.01007   0.01020   0.01598
    D8        3.13973   0.00028   0.00000   0.00733   0.00751  -3.13594
    D9       -3.12544   0.00050   0.00000   0.01752   0.01715  -3.10829
   D10       -0.02111   0.00029   0.00000   0.00752   0.00728  -0.01383
   D11        0.02897   0.00039   0.00000   0.01400   0.01376   0.04273
   D12        3.13329   0.00018   0.00000   0.00400   0.00389   3.13718
   D13       -2.74696   0.00099   0.00000   0.03594   0.03594  -2.71102
   D14        0.39330   0.00102   0.00000   0.03711   0.03712   0.43041
   D15        0.43323   0.00131   0.00000   0.04667   0.04666   0.47990
   D16       -2.70970   0.00135   0.00000   0.04784   0.04784  -2.66186
   D17        0.01905   0.00023   0.00000   0.00570   0.00553   0.02458
   D18       -3.08332   0.00017   0.00000   0.00229   0.00228  -3.08103
   D19        3.12259  -0.00032   0.00000  -0.00578  -0.00616   3.11643
   D20        0.02022  -0.00038   0.00000  -0.00919  -0.00941   0.01082
   D21       -2.73591   0.00112   0.00000   0.04071   0.04072  -2.69519
   D22        0.44233   0.00156   0.00000   0.05535   0.05534   0.49767
   D23        0.40702   0.00108   0.00000   0.03953   0.03955   0.44657
   D24       -2.69792   0.00153   0.00000   0.05418   0.05417  -2.64376
   D25       -3.12694   0.00050   0.00000   0.01764   0.01740  -3.10954
   D26        0.02582   0.00036   0.00000   0.01334   0.01314   0.03895
   D27       -0.02079   0.00015   0.00000   0.00384   0.00378  -0.01702
   D28        3.13197   0.00001   0.00000  -0.00047  -0.00049   3.13148
   D29        3.12466  -0.00032   0.00000  -0.00644  -0.00669   3.11797
   D30        0.02264  -0.00044   0.00000  -0.01133  -0.01154   0.01110
   D31        0.01917   0.00031   0.00000   0.00869   0.00867   0.02784
   D32       -3.08285   0.00019   0.00000   0.00380   0.00382  -3.07903
   D33        0.00869  -0.00057   0.00000  -0.01470  -0.01477  -0.00608
   D34       -3.13369  -0.00017   0.00000  -0.00418  -0.00422  -3.13790
   D35        3.13896  -0.00042   0.00000  -0.01028  -0.01041   3.12854
   D36       -0.00342  -0.00001   0.00000   0.00024   0.00014  -0.00328
   D37        0.00551   0.00046   0.00000   0.01283   0.01285   0.01836
   D38        3.14044   0.00034   0.00000   0.00907   0.00911  -3.13364
   D39       -3.13529   0.00006   0.00000   0.00232   0.00224  -3.13305
   D40       -0.00037  -0.00006   0.00000  -0.00144  -0.00150  -0.00186
   D41       -0.00713   0.00001   0.00000  -0.00032  -0.00027  -0.00741
   D42        3.12756  -0.00032   0.00000  -0.00910  -0.00913   3.11843
   D43        3.14113   0.00014   0.00000   0.00344   0.00347  -3.13858
   D44       -0.00736  -0.00019   0.00000  -0.00534  -0.00538  -0.01274
   D45       -0.00544  -0.00037   0.00000  -0.01042  -0.01043  -0.01588
   D46        3.09617  -0.00019   0.00000  -0.00511  -0.00521   3.09096
   D47       -3.14014  -0.00005   0.00000  -0.00167  -0.00166   3.14138
   D48       -0.03853   0.00013   0.00000   0.00364   0.00356  -0.03497
   D49       -0.00496  -0.00036   0.00000  -0.01044  -0.01042  -0.01538
   D50       -3.14007   0.00002   0.00000  -0.00010   0.00004  -3.14003
   D51        3.09702  -0.00024   0.00000  -0.00664  -0.00682   3.09020
   D52       -0.03809   0.00014   0.00000   0.00370   0.00365  -0.03445
   D53       -0.00774   0.00013   0.00000   0.00273   0.00292  -0.00482
   D54       -3.14150   0.00021   0.00000   0.00553   0.00566  -3.13583
   D55        3.12738  -0.00025   0.00000  -0.00759  -0.00751   3.11987
   D56       -0.00638  -0.00017   0.00000  -0.00479  -0.00477  -0.01114
         Item               Value     Threshold  Converged?
 Maximum Force            0.022737     0.000450     NO 
 RMS     Force            0.006334     0.000300     NO 
 Maximum Displacement     0.245651     0.001800     NO 
 RMS     Displacement     0.082419     0.001200     NO 
 Predicted change in Energy=-6.639135D-03
 GradGradGradGradGradGradGradGradGradGradGradGradGradGradGradGradGradGrad

                          Input orientation:                          
 ---------------------------------------------------------------------
 Center     Atomic      Atomic             Coordinates (Angstroms)
 Number     Number       Type             X           Y           Z
 ---------------------------------------------------------------------
      1          9           0        4.196242    1.269846    0.682872
      2          6           0        3.168320    0.474547    0.372750
      3          6           0        1.921505    1.049321    0.176759
      4          6           0        0.826396    0.235458   -0.145592
      5          7           0       -0.400866    0.853230   -0.374714
      6          6           0       -1.692292    0.332456   -0.252488
      7          6           0       -2.717066    0.906652   -1.020720
      8          6           0       -4.028074    0.450443   -0.908099
      9          6           0       -4.343989   -0.590566   -0.034519
     10          6           0       -3.331358   -1.155031    0.742700
     11          6           0       -2.018775   -0.696982    0.646965
     12          6           0        1.026829   -1.150763   -0.278983
     13          6           0        2.290790   -1.697412   -0.062678
     14          6           0        3.379730   -0.893877    0.269209
     15          1           0        1.803519    2.130845    0.284299
     16          1           0       -0.349644    1.817293   -0.672155
     17          1           0       -2.473801    1.714845   -1.716301
     18          1           0       -4.810573    0.908288   -1.517389
     19          1           0       -5.371623   -0.951810    0.046801
     20          1           0       -3.568315   -1.955953    1.446657
     21          1           0       -1.247916   -1.115721    1.294790
     22          1           0        0.200496   -1.792495   -0.584443
     23          1           0        2.436213   -2.773818   -0.170112
     24          1           0        4.377320   -1.305906    0.436662
 ---------------------------------------------------------------------
                    Distance matrix (angstroms):
                    1          2          3          4          5
     1  F    0.000000
     2  C    1.336152   0.000000
     3  C    2.340771   1.386839   0.000000
     4  C    3.621073   2.410487   1.401980   0.000000
     5  N    4.735553   3.666223   2.394991   1.392951   0.000000
     6  C    6.035597   4.902720   3.709135   2.522821   1.397829
     7  C    7.129373   6.063517   4.792771   3.711129   2.405194
     8  C    8.416768   7.309530   6.077257   4.918690   3.688275
     9  C    8.769911   7.598363   6.479992   5.237131   4.212897
    10  C    7.908753   6.711050   5.724686   4.473191   3.724179
    11  C    6.518906   5.324812   4.335490   3.097190   2.462643
    12  C    4.102401   2.766292   2.418370   1.406973   2.462410
    13  C    3.604333   2.382659   2.781770   2.426377   3.721311
    14  C    2.349363   1.388525   2.431252   2.822582   4.214253
    15  H    2.573966   2.147981   1.093242   2.175332   2.631713
    16  H    4.775026   3.907794   2.543335   2.040231   1.010204
    17  H    7.102360   6.142963   4.831698   3.942970   2.615204
    18  H    9.278717   8.211180   6.943407   5.840372   4.555683
    19  H    9.842987   8.664373   7.563804   6.313641   5.305117
    20  H    8.442600   7.241743   6.386113   5.162463   4.608864
    21  H    5.975302   4.783539   3.997828   2.864115   2.716892
    22  H    5.191340   3.855344   3.408405   2.167241   2.721302
    23  H    4.491826   3.373804   3.873194   3.412894   4.609377
    24  H    2.593822   2.153087   3.412576   3.914573   5.305777
                    6          7          8          9         10
     6  C    0.000000
     7  C    1.403582   0.000000
     8  C    2.428913   1.392678   0.000000
     9  C    2.816199   2.420978   1.395222   0.000000
    10  C    2.426840   2.781644   2.405846   1.395748   0.000000
    11  C    1.405472   2.416697   2.787846   2.425359   1.393502
    12  C    3.097460   4.335883   5.339633   5.405485   4.476343
    13  C    4.474521   5.725174   6.727262   6.726529   5.705379
    14  C    5.244185   6.486659   7.620289   7.735638   6.732837
    15  H    3.967750   4.861832   6.184904   6.730497   6.113434
    16  H    2.045377   2.560362   3.931259   4.707352   4.441525
    17  H    2.159745   1.093703   2.160478   3.411879   3.875342
    18  H    3.413976   2.151617   1.092320   2.159437   3.399024
    19  H    3.908502   3.411768   2.164087   1.092310   2.165239
    20  H    3.412238   3.873897   3.398086   2.158664   1.092328
    21  H    2.165354   3.407342   3.877481   3.410061   2.155708
    22  H    2.865006   3.998487   4.797533   4.732800   3.826442
    23  H    5.167231   6.389497   7.261369   7.124333   6.059585
    24  H    6.324504   7.572958   8.691593   8.763273   7.716225
                   11         12         13         14         15
    11  C    0.000000
    12  C    3.215432   0.000000
    13  C    4.480714   1.393991   0.000000
    14  C    5.415286   2.429537   1.393417   0.000000
    15  H    4.768444   3.418988   3.874710   3.410808   0.000000
    16  H    3.293578   3.295241   4.438074   4.705830   2.376811
    17  H    3.407195   4.746788   6.089276   6.709061   4.740350
    18  H    3.880136   6.312575   7.702935   8.574427   6.963256
    19  H    3.415659   6.409829   7.699382   8.754371   7.812928
    20  H    2.150718   4.974084   6.055909   7.126691   6.849058
    21  H    1.090524   2.766307   3.834517   4.745118   4.568647
    22  H    2.764359   1.089933   2.156527   3.412297   4.326314
    23  H    4.982748   2.152330   1.091485   2.148815   4.966135
    24  H    6.428456   3.429578   2.180877   1.092243   4.296385
                   16         17         18         19         20
    16  H    0.000000
    17  H    2.369131   0.000000
    18  H    4.630400   2.480041   0.000000
    19  H    5.779715   4.314736   2.494280   0.000000
    20  H    5.393198   4.967596   4.304956   2.493957   0.000000
    21  H    3.643945   4.310633   4.969656   4.311532   2.472510
    22  H    3.652522   4.553504   5.768486   5.670426   4.284392
    23  H    5.393639   6.829863   8.239476   8.020541   6.271937
    24  H    5.773044   7.790895   9.650821   9.763159   8.035904
                   21         22         23         24
    21  H    0.000000
    22  H    2.467273   0.000000
    23  H    4.297445   2.476509   0.000000
    24  H    5.693491   4.327273   2.508154   0.000000
 Stoichiometry    C12H10FN
 Framework group  C1[X(C12H10FN)]
 Deg. of freedom    66
 Full point group                 C1      NOp   1
 Largest Abelian subgroup         C1      NOp   1
 Largest concise Abelian subgroup C1      NOp   1
                         Standard orientation:                         
 ---------------------------------------------------------------------
 Center     Atomic      Atomic             Coordinates (Angstroms)
 Number     Number       Type             X           Y           Z
 ---------------------------------------------------------------------
      1          9           0       -4.362567   -1.002565    0.580915
      2          6           0       -3.279722   -0.322199    0.193812
      3          6           0       -2.047189   -0.956262    0.240194
      4          6           0       -0.895655   -0.262177   -0.157000
      5          7           0        0.318206   -0.945090   -0.134989
      6          6           0        1.616955   -0.441548   -0.018265
      7          6           0        2.674261   -1.198055   -0.547265
      8          6           0        3.990493   -0.760040   -0.423852
      9          6           0        4.280016    0.442461    0.221757
     10          6           0        3.233660    1.191210    0.762707
     11          6           0        1.914428    0.755230    0.655963
     12          6           0       -1.024718    1.063216   -0.611146
     13          6           0       -2.277169    1.674852   -0.633075
     14          6           0       -3.422879    0.992820   -0.228365
     15          1           0       -1.985004   -1.988622    0.594515
     16          1           0        0.249418   -1.949780   -0.214854
     17          1           0        2.452870   -2.135568   -1.065185
     18          1           0        4.798814   -1.361683   -0.845520
     19          1           0        5.312459    0.787788    0.310930
     20          1           0        3.447784    2.123672    1.289817
     21          1           0        1.112921    1.327138    1.124739
     22          1           0       -0.149628    1.599896   -0.977405
     23          1           0       -2.366907    2.702913   -0.988569
     24          1           0       -4.411960    1.455908   -0.244546
 ---------------------------------------------------------------------
 Rotational constants (GHZ):           2.1657799           0.3142430           0.2881108
 Standard basis: def2SVP (5D, 7F)
 There are   260 symmetry adapted cartesian basis functions of A   symmetry.
 There are   246 symmetry adapted basis functions of A   symmetry.
   246 basis functions,   420 primitive gaussians,   260 cartesian basis functions
    49 alpha electrons       49 beta electrons
       nuclear repulsion energy       788.4599505550 Hartrees.
 NAtoms=   24 NActive=   24 NUniq=   24 SFac= 1.00D+00 NAtFMM=   60 NAOKFM=F Big=F
 Integral buffers will be    131072 words long.
 Raffenetti 2 integral format.
 Two-electron integral symmetry is turned on.
 Nuclear repulsion after empirical dispersion term =      788.4462287037 Hartrees.
 One-electron integrals computed using PRISM.
   1 Symmetry operations used in ECPInt.
 ECPInt:  NShTT=    6555 NPrTT=   24083 LenC2=    6112 LenP2D=   16491.
 LDataN:  DoStor=T MaxTD1= 4 Len=   56
 NBasis=   246 RedAO= T EigKep=  2.59D-04  NBF=   246
 NBsUse=   246 1.00D-06 EigRej= -1.00D+00 NBFU=   246
 Initial guess from the checkpoint file:  "prod_3c_2.chk"
 B after Tr=     0.000000    0.000000    0.000000
         Rot=    0.999974   -0.006545   -0.002699   -0.001621 Ang=  -0.83 deg.
 ExpMin= 1.22D-01 ExpMax= 2.89D+03 ExpMxC= 4.35D+02 IAcc=3 IRadAn=         5 AccDes= 0.00D+00
 Harris functional with IExCor= 4639 and IRadAn=       5 diagonalized for initial guess.
 HarFok:  IExCor= 4639 AccDes= 0.00D+00 IRadAn=         5 IDoV= 1 UseB2=F ITyADJ=14
 ICtDFT=  3500011 ScaDFX=  1.000000  1.000000  1.000000  1.000000
 FoFCou: FMM=F IPFlag=           0 FMFlag=      100000 FMFlg1=           0
         NFxFlg=           0 DoJE=T BraDBF=F KetDBF=T FulRan=T
         wScrn=  0.000000 ICntrl=       500 IOpCl=  0 I1Cent=   200000004 NGrid=           0
         NMat0=    1 NMatS0=      1 NMatT0=    0 NMatD0=    1 NMtDS0=    0 NMtDT0=    0
 Petite list used in FoFCou.
 Requested convergence on RMS density matrix=1.00D-08 within 128 cycles.
 Requested convergence on MAX density matrix=1.00D-06.
 Requested convergence on             energy=1.00D-06.
 No special actions if energy rises.
 Integral accuracy reduced to 1.0D-05 until final iterations.
 Initial convergence to 1.0D-05 achieved.  Increase integral accuracy.
 SCF Done:  E(RwB97XD) =  -617.245567351     A.U. after   13 cycles
            NFock= 13  Conv=0.71D-08     -V/T= 2.0104
   1 Symmetry operations used in ECPInt.
 ECPInt:  NShTT=    6555 NPrTT=   24083 LenC2=    6112 LenP2D=   16491.
 LDataN:  DoStor=T MaxTD1= 5 Len=  102
 Calling FoFJK, ICntrl=      2127 FMM=F ISym2X=0 I1Cent= 0 IOpClX= 0 NMat=1 NMatS=1 NMatT=0.
 ***** Axes restored to original set *****
 -------------------------------------------------------------------
 Center     Atomic                   Forces (Hartrees/Bohr)
 Number     Number              X              Y              Z
 -------------------------------------------------------------------
      1        9          -0.001540675   -0.000894678   -0.000543008
      2        6           0.001080900    0.001342852   -0.000021827
      3        6           0.001517269    0.001988935    0.000913102
      4        6          -0.002367168   -0.000731027   -0.001116403
      5        7           0.000236022   -0.002158981    0.000703180
      6        6           0.001098049    0.000015021    0.000251953
      7        6          -0.001709416   -0.001124340   -0.000252780
      8        6           0.000808725   -0.000058996    0.000744391
      9        6           0.000515231   -0.000036435    0.000310945
     10        6          -0.000075670    0.001257760   -0.001717986
     11        6           0.000485819    0.000996854   -0.000604606
     12        6          -0.000209023    0.000080603    0.000245536
     13        6          -0.001860145    0.002391344    0.000152721
     14        6           0.002359834   -0.001437088    0.000355986
     15        1           0.000738914   -0.001154045    0.000539870
     16        1          -0.000133747    0.000426822    0.000121401
     17        1          -0.000340557   -0.000523978   -0.000132738
     18        1           0.000159860    0.000232038   -0.000057528
     19        1           0.000579927    0.000108888   -0.000057843
     20        1           0.000364708    0.000013933    0.000166584
     21        1           0.000742281   -0.000811869   -0.000501083
     22        1          -0.000703928   -0.000193814    0.000868336
     23        1          -0.000524287   -0.000399306   -0.000221731
     24        1          -0.001222923    0.000669506   -0.000146473
 -------------------------------------------------------------------
 Cartesian Forces:  Max     0.002391344 RMS     0.000950257

 GradGradGradGradGradGradGradGradGradGradGradGradGradGradGradGradGradGrad
 Berny optimization.
 Using GEDIIS/GDIIS optimizer.
 FormGI is forming the generalized inverse of G from B-inverse, IUseBI=4.
 Internal  Forces:  Max     0.005100183 RMS     0.001160283
 Search for a local minimum.
 Step number   2 out of a maximum of  130
 All quantities printed in internal units (Hartrees-Bohrs-Radians)
 Mixed Optimization -- RFO/linear search
 Update second derivatives using D2CorX and points    1    2
 DE= -5.84D-03 DEPred=-6.64D-03 R= 8.80D-01
 TightC=F SS=  1.41D+00  RLast= 2.29D-01 DXNew= 5.0454D-01 6.8785D-01
 Trust test= 8.80D-01 RLast= 2.29D-01 DXMaxT set to 5.05D-01
 ITU=  1  0
 Use linear search instead of GDIIS.
     Eigenvalues ---    0.01525   0.01526   0.01630   0.01984   0.02002
     Eigenvalues ---    0.02188   0.02197   0.02265   0.02272   0.02292
     Eigenvalues ---    0.02293   0.02322   0.02325   0.02340   0.02340
     Eigenvalues ---    0.02343   0.02357   0.02359   0.02373   0.02377
     Eigenvalues ---    0.02382   0.15936   0.15990   0.15996   0.15998
     Eigenvalues ---    0.15999   0.15999   0.15999   0.16000   0.16000
     Eigenvalues ---    0.16022   0.21138   0.21999   0.22000   0.22276
     Eigenvalues ---    0.23226   0.23468   0.23496   0.24967   0.24992
     Eigenvalues ---    0.26772   0.36002   0.36279   0.36282   0.36313
     Eigenvalues ---    0.36431   0.36515   0.36572   0.36665   0.37296
     Eigenvalues ---    0.42193   0.43216   0.43350   0.43597   0.43889
     Eigenvalues ---    0.44254   0.44851   0.47243   0.47388   0.47753
     Eigenvalues ---    0.48499   0.48941   0.49142   0.49674   0.51562
     Eigenvalues ---    0.52730
 RFO step:  Lambda=-9.18534542D-04 EMin= 1.52503474D-02
 Quartic linear search produced a step of -0.05999.
 Iteration  1 RMS(Cart)=  0.06870097 RMS(Int)=  0.00100553
 Iteration  2 RMS(Cart)=  0.00186966 RMS(Int)=  0.00003720
 Iteration  3 RMS(Cart)=  0.00000117 RMS(Int)=  0.00003719
 Iteration  4 RMS(Cart)=  0.00000000 RMS(Int)=  0.00003719
 Variable       Old X    -DE/DX   Delta X   Delta X   Delta X     New X
                                 (Linear)    (Quad)   (Total)
    R1        2.52496  -0.00184   0.00250  -0.00941  -0.00691   2.51805
    R2        2.62075  -0.00030  -0.00089   0.00191   0.00100   2.62175
    R3        2.62393   0.00048  -0.00050   0.00234   0.00184   2.62577
    R4        2.64936   0.00226  -0.00102   0.00716   0.00613   2.65549
    R5        2.06593  -0.00117  -0.00223   0.00253   0.00030   2.06623
    R6        2.63230  -0.00298   0.00220  -0.01184  -0.00964   2.62265
    R7        2.65879  -0.00200  -0.00150  -0.00051  -0.00201   2.65679
    R8        2.64151  -0.00261   0.00169  -0.00980  -0.00811   2.63340
    R9        1.90901   0.00036   0.00079  -0.00118  -0.00039   1.90862
   R10        2.65238   0.00031  -0.00105   0.00327   0.00222   2.65460
   R11        2.65596  -0.00239  -0.00129  -0.00166  -0.00295   2.65301
   R12        2.63178  -0.00149  -0.00186   0.00188   0.00001   2.63179
   R13        2.06680  -0.00038  -0.00201   0.00400   0.00199   2.06878
   R14        2.63659  -0.00088  -0.00161   0.00234   0.00072   2.63731
   R15        2.06418   0.00001  -0.00166   0.00414   0.00248   2.06667
   R16        2.63758  -0.00120  -0.00167   0.00177   0.00011   2.63769
   R17        2.06417  -0.00059  -0.00167   0.00260   0.00094   2.06510
   R18        2.63334  -0.00126  -0.00196   0.00235   0.00041   2.63374
   R19        2.06420   0.00002  -0.00166   0.00415   0.00249   2.06669
   R20        2.06079   0.00054  -0.00172   0.00563   0.00391   2.06470
   R21        2.63426  -0.00196  -0.00203   0.00104  -0.00098   2.63328
   R22        2.05967   0.00040  -0.00167   0.00516   0.00349   2.06316
   R23        2.63318   0.00059  -0.00153   0.00480   0.00328   2.63646
   R24        2.06261   0.00035  -0.00157   0.00477   0.00320   2.06581
   R25        2.06404  -0.00139  -0.00190   0.00111  -0.00079   2.06325
    A1        2.06889  -0.00027   0.00183  -0.00600  -0.00416   2.06473
    A2        2.07919   0.00034   0.00133  -0.00249  -0.00115   2.07804
    A3        2.13506  -0.00007  -0.00315   0.00844   0.00524   2.14030
    A4        2.08765  -0.00071   0.00170  -0.00637  -0.00472   2.08294
    A5        2.08648  -0.00040  -0.00071  -0.00158  -0.00228   2.08420
    A6        2.10901   0.00112  -0.00099   0.00799   0.00702   2.11603
    A7        2.05847   0.00373   0.00196   0.00951   0.01142   2.06989
    A8        2.07427   0.00054  -0.00053   0.00349   0.00288   2.07715
    A9        2.14942  -0.00426  -0.00140  -0.01217  -0.01362   2.13580
   A10        2.25800  -0.00510  -0.00118  -0.01880  -0.01998   2.23801
   A11        2.01197   0.00269   0.00059   0.01022   0.01080   2.02277
   A12        2.01322   0.00241   0.00059   0.00858   0.00917   2.02240
   A13        2.06493   0.00330   0.00169   0.00848   0.01012   2.07505
   A14        2.14534  -0.00358  -0.00130  -0.00998  -0.01133   2.13401
   A15        2.07181   0.00031  -0.00036   0.00232   0.00190   2.07372
   A16        2.10485  -0.00018   0.00013  -0.00076  -0.00067   2.10418
   A17        2.08060   0.00044  -0.00031   0.00304   0.00274   2.08333
   A18        2.09772  -0.00026   0.00018  -0.00224  -0.00205   2.09567
   A19        2.10388  -0.00022  -0.00043   0.00045  -0.00002   2.10386
   A20        2.08512  -0.00017   0.00049  -0.00258  -0.00208   2.08304
   A21        2.09414   0.00039  -0.00006   0.00208   0.00203   2.09617
   A22        2.07845  -0.00009   0.00085  -0.00248  -0.00165   2.07679
   A23        2.10179   0.00010  -0.00039   0.00153   0.00114   2.10292
   A24        2.10290  -0.00001  -0.00046   0.00102   0.00056   2.10347
   A25        2.10853   0.00052  -0.00071   0.00364   0.00294   2.11147
   A26        2.09210   0.00015   0.00005   0.00132   0.00137   2.09347
   A27        2.08245  -0.00067   0.00066  -0.00498  -0.00433   2.07812
   A28        2.09848  -0.00033   0.00052  -0.00290  -0.00242   2.09605
   A29        2.09118  -0.00004  -0.00075   0.00168   0.00088   2.09206
   A30        2.09301   0.00039   0.00022   0.00178   0.00195   2.09495
   A31        2.09534  -0.00018   0.00057  -0.00305  -0.00252   2.09282
   A32        2.09285  -0.00015  -0.00077   0.00152   0.00072   2.09357
   A33        2.09443   0.00034   0.00019   0.00204   0.00219   2.09662
   A34        2.11696   0.00106  -0.00117   0.00661   0.00545   2.12241
   A35        2.08548  -0.00115   0.00051  -0.00675  -0.00625   2.07924
   A36        2.08062   0.00009   0.00067   0.00012   0.00079   2.08140
   A37        2.05680  -0.00064   0.00258  -0.00886  -0.00631   2.05049
   A38        2.09370   0.00015  -0.00138   0.00370   0.00232   2.09603
   A39        2.13264   0.00049  -0.00120   0.00524   0.00403   2.13667
    D1       -3.13830  -0.00024   0.00028  -0.01041  -0.01010   3.13479
    D2       -0.00600  -0.00013   0.00008  -0.00619  -0.00612  -0.01213
    D3       -0.00663  -0.00034   0.00093  -0.01708  -0.01614  -0.02277
    D4        3.12567  -0.00023   0.00073  -0.01285  -0.01217   3.11350
    D5       -3.13559  -0.00016   0.00004  -0.00737  -0.00732   3.14028
    D6       -0.00433   0.00003   0.00020   0.00016   0.00035  -0.00398
    D7        0.01598  -0.00006  -0.00061  -0.00065  -0.00122   0.01477
    D8       -3.13594   0.00013  -0.00045   0.00689   0.00646  -3.12949
    D9       -3.10829   0.00020  -0.00103   0.00593   0.00475  -3.10354
   D10       -0.01383   0.00054  -0.00044   0.02476   0.02435   0.01052
   D11        0.04273   0.00010  -0.00083   0.00169   0.00075   0.04348
   D12        3.13718   0.00044  -0.00023   0.02053   0.02035  -3.12565
   D13       -2.71102  -0.00073  -0.00216  -0.04070  -0.04287  -2.75389
   D14        0.43041  -0.00068  -0.00223  -0.03751  -0.03975   0.39066
   D15        0.47990  -0.00124  -0.00280  -0.06089  -0.06368   0.41622
   D16       -2.66186  -0.00119  -0.00287  -0.05770  -0.06056  -2.72242
   D17        0.02458  -0.00037  -0.00033  -0.01560  -0.01595   0.00863
   D18       -3.08103  -0.00081  -0.00014  -0.03202  -0.03215  -3.11318
   D19        3.11643   0.00022   0.00037   0.00492   0.00516   3.12160
   D20        0.01082  -0.00022   0.00056  -0.01149  -0.01103  -0.00021
   D21       -2.69519  -0.00043  -0.00244  -0.02199  -0.02444  -2.71964
   D22        0.49767  -0.00091  -0.00332  -0.04102  -0.04433   0.45334
   D23        0.44657  -0.00048  -0.00237  -0.02518  -0.02756   0.41900
   D24       -2.64376  -0.00096  -0.00325  -0.04421  -0.04745  -2.69121
   D25       -3.10954   0.00016  -0.00104   0.00484   0.00370  -3.10584
   D26        0.03895   0.00004  -0.00079  -0.00053  -0.00140   0.03755
   D27       -0.01702   0.00051  -0.00023   0.02268   0.02248   0.00547
   D28        3.13148   0.00038   0.00003   0.01731   0.01738  -3.13433
   D29        3.11797   0.00025   0.00040   0.00638   0.00669   3.12466
   D30        0.01110  -0.00024   0.00069  -0.01235  -0.01173  -0.00063
   D31        0.02784  -0.00032  -0.00052  -0.01289  -0.01341   0.01443
   D32       -3.07903  -0.00081  -0.00023  -0.03163  -0.03183  -3.11086
   D33       -0.00608  -0.00033   0.00089  -0.01637  -0.01549  -0.02157
   D34       -3.13790  -0.00021   0.00025  -0.00921  -0.00894   3.13634
   D35        3.12854  -0.00020   0.00062  -0.01093  -0.01033   3.11821
   D36       -0.00328  -0.00008  -0.00001  -0.00376  -0.00379  -0.00707
   D37        0.01836  -0.00005  -0.00077  -0.00023  -0.00098   0.01738
   D38       -3.13364   0.00015  -0.00055   0.00794   0.00741  -3.12623
[...]
 Alpha virt. eigenvalues --    2.87056   2.87314   2.88402   2.88928   2.90431
 Alpha virt. eigenvalues --    2.91443   2.91861   2.92519   2.93756   2.94522
 Alpha virt. eigenvalues --    2.95305   2.97055   2.98287   2.99191   3.00498
 Alpha virt. eigenvalues --    3.02279   3.03060   3.05526   3.07070   3.08523
 Alpha virt. eigenvalues --    3.09725   3.10528   3.12846   3.13231   3.14780
 Alpha virt. eigenvalues --    3.17311   3.17836   3.18664   3.19356   3.19760
 Alpha virt. eigenvalues --    3.21480   3.21861   3.22469   3.23006   3.23444
 Alpha virt. eigenvalues --    3.23996   3.25863   3.26541   3.27536   3.28178
 Alpha virt. eigenvalues --    3.30412   3.30680   3.32356   3.33489   3.34170
 Alpha virt. eigenvalues --    3.34932   3.35926   3.36987   3.37609   3.40282
 Alpha virt. eigenvalues --    3.40890   3.42280   3.43072   3.43299   3.43938
 Alpha virt. eigenvalues --    3.45750   3.46462   3.47622   3.47917   3.48707
 Alpha virt. eigenvalues --    3.49170   3.51293   3.52665   3.54464   3.54961
 Alpha virt. eigenvalues --    3.55818   3.56263   3.56674   3.58546   3.59814
 Alpha virt. eigenvalues --    3.60069   3.60446   3.60887   3.61719   3.64242
 Alpha virt. eigenvalues --    3.65743   3.68232   3.69724   3.73051   3.75436
 Alpha virt. eigenvalues --    3.77706   3.78329   3.82219   3.82543   3.83897
 Alpha virt. eigenvalues --    3.85484   3.86672   3.90519   3.93151   3.99045
 Alpha virt. eigenvalues --    3.99432   4.01834   4.04275   4.05528   4.06793
 Alpha virt. eigenvalues --    4.07026   4.09642   4.09977   4.12623   4.13939
 Alpha virt. eigenvalues --    4.14540   4.15952   4.17352   4.18307   4.20879
 Alpha virt. eigenvalues --    4.22942   4.26113   4.26551   4.27488   4.27993
 Alpha virt. eigenvalues --    4.28870   4.29335   4.30039   4.30642   4.33272
 Alpha virt. eigenvalues --    4.33441   4.34872   4.35890   4.37210   4.38596
 Alpha virt. eigenvalues --    4.40081   4.47742   4.53431   4.56478   4.60745
 Alpha virt. eigenvalues --    4.66974   4.68072   4.69806   4.70601   4.71971
 Alpha virt. eigenvalues --    4.75699   4.77214   4.78183   4.80996   4.83268
 Alpha virt. eigenvalues --    4.90750   4.92414   4.95662   4.96221   4.98139
 Alpha virt. eigenvalues --    5.00013   5.07500   5.07963   5.13634   5.19330
 Alpha virt. eigenvalues --    5.22907   5.23827   5.26207   5.28226   5.30555
 Alpha virt. eigenvalues --    5.35021   5.37490   5.38457   5.42778   5.48693
 Alpha virt. eigenvalues --    5.51376   5.58312   5.60250   5.66369   5.71167
 Alpha virt. eigenvalues --    5.91073   5.96941   6.13723   6.22003   6.95929
 Alpha virt. eigenvalues --    6.97099   7.07895   7.16557   7.33898   7.53557
 Alpha virt. eigenvalues --    7.67710   8.44240   8.61895   8.85483   9.06462
 Alpha virt. eigenvalues --    9.09792  22.19206  22.27434  22.68084  22.69006
 Alpha virt. eigenvalues --   22.72142  22.77656  22.81849  22.84449  22.91293
 Alpha virt. eigenvalues --   23.04851  23.31271  23.36709  32.84550  57.43358
          Condensed to atoms (all electrons):
               1          2          3          4          5          6
     1  F    9.033749   0.267463  -0.063165   0.016334  -0.000091   0.000004
     2  C    0.267463   4.602189   0.416251   0.000822   0.007921   0.001543
     3  C   -0.063165   0.416251   5.491030   0.217263  -0.024451   0.010747
     4  C    0.016334   0.000822   0.217263   5.040710   0.270329  -0.088421
     5  N   -0.000091   0.007921  -0.024451   0.270329   6.516677   0.240328
     6  C    0.000004   0.001543   0.010747  -0.088421   0.240328   4.954911
     7  C   -0.000000  -0.000408  -0.007205   0.008468  -0.023701   0.396786
     8  C    0.000000  -0.000029  -0.000381   0.001324   0.012264  -0.036529
     9  C   -0.000000   0.000007   0.000061  -0.000521   0.001179  -0.073808
    10  C    0.000000  -0.000021  -0.000252   0.000624   0.001858  -0.015988
    11  C    0.000001   0.001128   0.008112  -0.003314  -0.034447   0.383092
    12  C   -0.001498  -0.094732   0.009331   0.379034  -0.038892  -0.006740
    13  C    0.012630   0.033546  -0.068299  -0.011635   0.000337   0.000171
    14  C   -0.057517   0.456092  -0.021379  -0.071506   0.002360  -0.000283
    15  H   -0.000004  -0.020351   0.427608  -0.074135   0.002558   0.000834
    16  H   -0.000012   0.001275  -0.001856  -0.058947   0.400674  -0.061251
    17  H    0.000000  -0.000002  -0.000331   0.000581   0.004352  -0.078112
    18  H   -0.000000   0.000000   0.000003   0.000011  -0.000295   0.014613
    19  H    0.000000   0.000000   0.000000  -0.000001  -0.000001  -0.004086
    20  H   -0.000000  -0.000001   0.000002   0.000022  -0.000207   0.013939
    21  H    0.000000   0.000152  -0.000104   0.001910   0.001977  -0.046469
    22  H    0.000003  -0.000642   0.003339  -0.039160   0.001064   0.002921
    23  H   -0.000058   0.005677  -0.002391   0.011597  -0.000216   0.000039
    24  H    0.000571  -0.053671   0.017315  -0.005513   0.000009  -0.000005
               7          8          9         10         11         12
     1  F   -0.000000   0.000000  -0.000000   0.000000   0.000001  -0.001498
     2  C   -0.000408  -0.000029   0.000007  -0.000021   0.001128  -0.094732
     3  C   -0.007205  -0.000381   0.000061  -0.000252   0.008112   0.009331
     4  C    0.008468   0.001324  -0.000521   0.000624  -0.003314   0.379034
     5  N   -0.023701   0.012264   0.001179   0.001858  -0.034447  -0.038892
     6  C    0.396786  -0.036529  -0.073808  -0.015988   0.383092  -0.006740
     7  C    5.133388   0.444911   0.010340  -0.067950   0.013533   0.009543
     8  C    0.444911   4.903502   0.460335   0.005166  -0.084355   0.001099
     9  C    0.010340   0.460335   4.944182   0.455847   0.023878  -0.000454
    10  C   -0.067950   0.005166   0.455847   4.888273   0.436710   0.003553
    11  C    0.013533  -0.084355   0.023878   0.436710   5.219050  -0.013814
    12  C    0.009543   0.001099  -0.000454   0.003553  -0.013814   5.248163
    13  C   -0.000087  -0.000035   0.000022   0.000124   0.003231   0.426641
    14  C    0.000060   0.000009  -0.000003   0.000009  -0.000492   0.032777
    15  H   -0.000258   0.000002  -0.000001   0.000006   0.000113   0.007097
    16  H    0.001730   0.001068   0.000128  -0.000425   0.007775   0.009339
    17  H    0.437878  -0.025161   0.007938  -0.001660   0.005009   0.000257
    18  H   -0.054803   0.437816  -0.056278   0.010167  -0.002982  -0.000009
    19  H    0.012463  -0.056516   0.444173  -0.058501   0.012952  -0.000004
    20  H   -0.002915   0.010057  -0.055274   0.440434  -0.057596   0.000068
    21  H    0.003574  -0.001474   0.005931  -0.029144   0.430339  -0.006415
    22  H   -0.000301   0.000270  -0.000191   0.000533  -0.007610   0.421775
    23  H    0.000003  -0.000001   0.000001  -0.000008   0.000067  -0.050453
    24  H    0.000000   0.000000  -0.000000   0.000000  -0.000002   0.013080
              13         14         15         16         17         18
     1  F    0.012630  -0.057517  -0.000004  -0.000012   0.000000  -0.000000
     2  C    0.033546   0.456092  -0.020351   0.001275  -0.000002   0.000000
     3  C   -0.068299  -0.021379   0.427608  -0.001856  -0.000331   0.000003
     4  C   -0.011635  -0.071506  -0.074135  -0.058947   0.000581   0.000011
     5  N    0.000337   0.002360   0.002558   0.400674   0.004352  -0.000295
     6  C    0.000171  -0.000283   0.000834  -0.061251  -0.078112   0.014613
     7  C   -0.000087   0.000060  -0.000258   0.001730   0.437878  -0.054803
     8  C   -0.000035   0.000009   0.000002   0.001068  -0.025161   0.437816
     9  C    0.000022  -0.000003  -0.000001   0.000128   0.007938  -0.056278
    10  C    0.000124   0.000009   0.000006  -0.000425  -0.001660   0.010167
    11  C    0.003231  -0.000492   0.000113   0.007775   0.005009  -0.002982
    12  C    0.426641   0.032777   0.007097   0.009339   0.000257  -0.000009
    13  C    4.971346   0.347711  -0.003770  -0.000404   0.000007   0.000000
    14  C    0.347711   5.175379   0.013291   0.000169   0.000001  -0.000000
    15  H   -0.003770   0.013291   0.516513   0.003159  -0.000015   0.000000
    16  H   -0.000404   0.000169   0.003159   0.461501   0.003721  -0.000040
    17  H    0.000007   0.000001  -0.000015   0.003721   0.536591  -0.007868
    18  H    0.000000  -0.000000   0.000000  -0.000040  -0.007868   0.545974
    19  H   -0.000000  -0.000000   0.000000  -0.000002  -0.000127  -0.006572
    20  H   -0.000008   0.000001   0.000000   0.000016   0.000040  -0.000169
    21  H    0.000555  -0.000166   0.000003  -0.000192  -0.000194   0.000033
    22  H   -0.024489   0.004043  -0.000153  -0.000226  -0.000001  -0.000001
    23  H    0.429555  -0.043415   0.000032   0.000014   0.000000   0.000000
    24  H   -0.057526   0.438587  -0.000095  -0.000002   0.000000  -0.000000
              19         20         21         22         23         24
     1  F    0.000000  -0.000000   0.000000   0.000003  -0.000058   0.000571
     2  C    0.000000  -0.000001   0.000152  -0.000642   0.005677  -0.053671
     3  C    0.000000   0.000002  -0.000104   0.003339  -0.002391   0.017315
     4  C   -0.000001   0.000022   0.001910  -0.039160   0.011597  -0.005513
     5  N   -0.000001  -0.000207   0.001977   0.001064  -0.000216   0.000009
     6  C   -0.004086   0.013939  -0.046469   0.002921   0.000039  -0.000005
     7  C    0.012463  -0.002915   0.003574  -0.000301   0.000003   0.000000
     8  C   -0.056516   0.010057  -0.001474   0.000270  -0.000001   0.000000
     9  C    0.444173  -0.055274   0.005931  -0.000191   0.000001  -0.000000
    10  C   -0.058501   0.440434  -0.029144   0.000533  -0.000008   0.000000
    11  C    0.012952  -0.057596   0.430339  -0.007610   0.000067  -0.000002
    12  C   -0.000004   0.000068  -0.006415   0.421775  -0.050453   0.013080
    13  C   -0.000000  -0.000008   0.000555  -0.024489   0.429555  -0.057526
    14  C   -0.000000   0.000001  -0.000166   0.004043  -0.043415   0.438587
    15  H    0.000000   0.000000   0.000003  -0.000153   0.000032  -0.000095
    16  H   -0.000002   0.000016  -0.000192  -0.000226   0.000014  -0.000002
    17  H   -0.000127   0.000040  -0.000194  -0.000001   0.000000   0.000000
    18  H   -0.006572  -0.000169   0.000033  -0.000001   0.000000  -0.000000
    19  H    0.543631  -0.006899  -0.000070  -0.000001   0.000000  -0.000000
    20  H   -0.006899   0.542505  -0.006154   0.000079  -0.000001   0.000000
    21  H   -0.000070  -0.006154   0.483137  -0.005594   0.000056  -0.000000
    22  H   -0.000001   0.000079  -0.005594   0.477845  -0.005521  -0.000032
    23  H    0.000000  -0.000001   0.000056  -0.005521   0.534357  -0.006443
    24  H   -0.000000   0.000000  -0.000000  -0.000032  -0.006443   0.521380
 Mulliken charges:
               1
     1  F   -0.208411
     2  C    0.375789
     3  C   -0.411251
     4  C    0.404124
     5  N   -0.341586
     6  C    0.391765
     7  C   -0.315050
     8  C   -0.073344
     9  C   -0.167492
    10  C   -0.069353
    11  C   -0.340378
    12  C   -0.348748
    13  C   -0.059622
    14  C   -0.275728
    15  H    0.127567
    16  H    0.232787
    17  H    0.117095
    18  H    0.120399
    19  H    0.119561
    20  H    0.122059
    21  H    0.168309
    22  H    0.172050
    23  H    0.127109
    24  H    0.132348
 Sum of Mulliken charges =  -0.00000
 Mulliken charges with hydrogens summed into heavy atoms:
               1
     1  F   -0.208411
     2  C    0.375789
     3  C   -0.283684
     4  C    0.404124
     5  N   -0.108798
     6  C    0.391765
     7  C   -0.197955
     8  C    0.047055
     9  C   -0.047931
    10  C    0.052706
    11  C   -0.172069
    12  C   -0.176697
    13  C    0.067487
    14  C   -0.143380
 Electronic spatial extent (au):  <R**2>=           3586.7839
 Charge=             -0.0000 electrons
 Dipole moment (field-independent basis, Debye):
    X=              1.5422    Y=             -0.1625    Z=             -0.3945  Tot=              1.6001
 Quadrupole moment (field-independent basis, Debye-Ang):
   XX=            -83.0217   YY=            -71.5168   ZZ=            -84.6614
   XY=             -3.6980   XZ=              0.4163   YZ=              1.6165
 Traceless Quadrupole moment (field-independent basis, Debye-Ang):
   XX=             -3.2884   YY=              8.2165   ZZ=             -4.9281
   XY=             -3.6980   XZ=              0.4163   YZ=              1.6165
 Octapole moment (field-independent basis, Debye-Ang**2):
  XXX=             24.4728  YYY=            -14.3494  ZZZ=              5.7864  XYY=             -9.3660
  XXY=             19.3637  XXZ=             -9.7611  XZZ=            -11.7042  YZZ=             -2.5368
  YYZ=             -2.0736  XYZ=             13.0326
 Hexadecapole moment (field-independent basis, Debye-Ang**3):
 XXXX=          -3837.7344 YYYY=           -553.1476 ZZZZ=           -211.7373 XXXY=            -58.0432
 XXXZ=            -10.1773 YYYX=             20.6214 YYYZ=             -3.0062 ZZZX=            -25.4415
 ZZZY=              0.2723 XXYY=           -719.7212 XXZZ=           -728.0391 YYZZ=           -129.1656
 XXYZ=             33.2731 YYXZ=              2.1312 ZZXY=             13.8635
 N-N= 7.896958570878D+02 E-N=-3.020042962157D+03  KE= 6.147205822479D+02
 Breneman (CHELPG) radii used.
 Read replacement radii for each type of atom:
 Atom Element Radius
    1     9    1.70
    2     6    1.50
    3     6    1.50
    4     6    1.50
    5     7    1.70
    6     6    1.50
    7     6    1.50
    8     6    1.50
    9     6    1.50
   10     6    1.50
   11     6    1.50
   12     6    1.50
   13     6    1.50
   14     6    1.50
   15     1    1.45
   16     1    1.45
   17     1    1.45
   18     1    1.45
   19     1    1.45
   20     1    1.45
   21     1    1.45
   22     1    1.45
   23     1    1.45
   24     1    1.45
 Generate Potential Derived Charges using the Breneman model, NDens= 1.
 Grid spacing= 0.300 Box extension= 2.800
 NStep X,Y,Z=   52     36     28   Total possible points=       52416
 Number of Points to Fit=   15703

 **********************************************************************

            Electrostatic Properties Using The SCF Density.

 **********************************************************************

       Atomic Center    1 is at  -4.389670 -0.976004  0.507177
       Atomic Center    2 is at  -3.288117 -0.306837  0.162558
       Atomic Center    3 is at  -2.067136 -0.958161  0.250035
       Atomic Center    4 is at  -0.890956 -0.279734 -0.110468
       Atomic Center    5 is at   0.312880 -0.970682 -0.055937
       Atomic Center    6 is at   1.611373 -0.460432  0.011793
       Atomic Center    7 is at   2.663342 -1.211637 -0.535107
       Atomic Center    8 is at   3.977296 -0.763048 -0.444547
       Atomic Center    9 is at   4.269593  0.451368  0.174840
       Atomic Center   10 is at   3.228065  1.200331  0.720857
       Atomic Center   11 is at   1.911993  0.750726  0.654276
       Atomic Center   12 is at  -0.987025  1.051570 -0.552165
       Atomic Center   13 is at  -2.228498  1.678069 -0.610966
       Atomic Center   14 is at  -3.400574  1.013262 -0.255595
       Atomic Center   15 is at  -2.038603 -1.989136  0.607653
       Atomic Center   16 is at   0.241498 -1.977580 -0.104137
       Atomic Center   17 is at   2.440620 -2.154663 -1.041167
       Atomic Center   18 is at   4.779737 -1.366156 -0.875306
       Atomic Center   19 is at   5.299304  0.808123  0.235906
       Atomic Center   20 is at   3.441351  2.145996  1.224498
       Atomic Center   21 is at   1.114701  1.331134  1.120382
       Atomic Center   22 is at  -0.093412  1.586774 -0.872238
       Atomic Center   23 is at  -2.284546  2.711755 -0.959164
       Atomic Center   24 is at  -4.379907  1.489695 -0.302517
   15703 points will be used for fitting atomic charges
 Fitting point charges to electrostatic potential
 Charges from ESP fit, RMS=   0.00386 RRMS=   0.34928:
 ESP charges:
               1
     1  F   -0.227902
     2  C    0.437788
     3  C   -0.470224
     4  C    0.519287
     5  N   -0.751737
     6  C    0.460646
     7  C   -0.287727
     8  C   -0.044076
     9  C   -0.164702
    10  C   -0.062936
    11  C   -0.223363
    12  C   -0.303752
    13  C   -0.016710
    14  C   -0.338649
    15  H    0.185642
    16  H    0.363202
    17  H    0.127190
    18  H    0.096404
    19  H    0.101993
    20  H    0.099176
    21  H    0.112042
    22  H    0.122878
    23  H    0.108496
    24  H    0.157031
 Sum of ESP charges =  -0.00000
 ESP charges with hydrogens summed into heavy atoms:
               1
     1  F   -0.227902
     2  C    0.437788
     3  C   -0.284582
     4  C    0.519287
     5  N   -0.388534
     6  C    0.460646
     7  C   -0.160537
     8  C    0.052328
     9  C   -0.062708
    10  C    0.036240
    11  C   -0.111321
    12  C   -0.180874
    13  C    0.091787
    14  C   -0.181618
 Charge=  -0.00000 Dipole=     1.5897    -0.1954    -0.4019 Tot=     1.6513
 -----------------------------------------------------------------

              Electrostatic Properties (Atomic Units)

 -----------------------------------------------------------------
    Center     Electric         -------- Electric Field --------
               Potential          X             Y             Z
 -----------------------------------------------------------------
    1 Atom    -26.584559
    2 Atom    -14.682480
    3 Atom    -14.764277
    4 Atom    -14.708819
    5 Atom    -18.351136
    6 Atom    -14.715656
    7 Atom    -14.765296
    8 Atom    -14.763338
    9 Atom    -14.771035
   10 Atom    -14.763982
   11 Atom    -14.767246
   12 Atom    -14.769003
   13 Atom    -14.757816
   14 Atom    -14.770080
   15 Atom     -1.085426
   16 Atom     -1.015432
   17 Atom     -1.096165
   18 Atom     -1.102890
   19 Atom     -1.106845
   20 Atom     -1.104300
   21 Atom     -1.101365
   22 Atom     -1.101720
   23 Atom     -1.100535
   24 Atom     -1.095970
 -----------------------------------------------------------------
 Unable to Open any file for archive entry.
 1\1\GINC-NOTCH476\SP\RwB97XD\def2TZVP\C12H10F1N1\U1366379\17-Feb-2026\
 0\\#N Guess=Read Geom=Check Integral(Ultrafine) Density Pop=(ChelpG,Re
 adRadii) NMR wB97XD def2TZVP\\prod_3c_2\\0,1\F,0,4.2306307304,1.248450
 8966,0.5936281035\C,0,3.1817557111,0.467173915,0.3301261869\C,0,1.9402
 97457,1.0632823561,0.1685520938\C,0,0.8187262849,0.2658601323,-0.11397
 20523\N,0,-0.4039078581,0.8937133796,-0.315387525\C,0,-1.6888500067,0.
 3525061889,-0.2314533162\C,0,-2.7100409433,0.9077639077,-1.0181594214\
 C,0,-4.0140483149,0.4310215533,-0.9276600663\C,0,-4.3250912128,-0.6207
 661307,-0.0669173855\C,0,-3.3142839337,-1.1745369751,0.7176006728\C,0,
 -2.0102626283,-0.6911942655,0.6502735399\C,0,0.9891718447,-1.125336630
 5,-0.2244963873\C,0,2.2478814087,-1.6897605755,-0.0393207131\C,0,3.366
 1823698,-0.9069504377,0.2410841879\H,0,1.8526358519,2.1463640789,0.272
 7844981\H,0,-0.3564078842,1.8647623806,-0.5911952874\H,0,-2.4705815626
 ,1.7185377973,-1.7111993777\H,0,-4.7926696434,0.8806984845,-1.54793776
 14\H,0,-5.3460092409,-1.0017163592,-0.0043825987\H,0,-3.5440652168,-1.
 9879899714,1.409642526\H,0,-1.240443159,-1.1109189814,1.2991276424\H,0
 ,0.141574336,-1.7610146894,-0.4793057644\H,0,2.3622064178,-2.772024402
 9,-0.1316579858\H,0,4.3586691924,-1.3350356514,0.3824961912\\Version=E
 S64L-G16RevC.01\State=1-A\HF=-617.9116559\RMSD=2.345e-09\Dipole=-0.592
 6181,-0.00195,-0.2123611\Quadrupole=-2.249047,4.7793865,-2.5303395,-2.
 824327,0.5118908,-3.4739053\PG=C01 [X(C12H10F1N1)]\\@
 The archive entry for this job was punched.


 NATURE WILL TELL YOU A DIRECT LIE IF SHE CAN.

                                -- CHARLES DARWIN
 Job cpu time:       0 days  0 hours 31 minutes 11.7 seconds.
 Elapsed time:       0 days  0 hours  4 minutes  0.7 seconds.
 File lengths (MBytes):  RWF=    154 Int=      0 D2E=      0 Chk=     24 Scr=      2
 Normal termination of Gaussian 16 at Tue Feb 17 15:59:04 2026.
