 Entering Gaussian System, Link 0=g16
 Input=prod_5l_17.com
 Output=prod_5l_17.log
 Initial command:
 /uufs/chpc.utah.edu/sys/installdir/gaussian16/C01/AVX/g16/l1.exe "/scratch/general/vast/u1366379/GAUSSSCRDIR/11028691-notchpeak.peaks/Gau-1520481.inp" -scrdir="/scratch/general/vast/u1366379/GAUSSSCRDIR/11028691-notchpeak.peaks/"
 Entering Link 1 = /uufs/chpc.utah.edu/sys/installdir/gaussian16/C01/AVX/g16/l1.exe PID=   1520486.
  
 Copyright (c) 1988-2019, Gaussian, Inc.  All Rights Reserved.
  
 This is part of the Gaussian(R) 16 program.  It is based on
 the Gaussian(R) 09 system (copyright 2009, Gaussian, Inc.),
 the Gaussian(R) 03 system (copyright 2003, Gaussian, Inc.),
 the Gaussian(R) 98 system (copyright 1998, Gaussian, Inc.),
 the Gaussian(R) 94 system (copyright 1995, Gaussian, Inc.),
 the Gaussian 92(TM) system (copyright 1992, Gaussian, Inc.),
 the Gaussian 90(TM) system (copyright 1990, Gaussian, Inc.),
 the Gaussian 88(TM) system (copyright 1988, Gaussian, Inc.),
 the Gaussian 86(TM) system (copyright 1986, Carnegie Mellon
 University), and the Gaussian 82(TM) system (copyright 1983,
 Carnegie Mellon University). Gaussian is a federally registered
 trademark of Gaussian, Inc.
  
 This software contains proprietary and confidential information,
 including trade secrets, belonging to Gaussian, Inc.
  
 This software is provided under written license and may be
 used, copied, transmitted, or stored only in accord with that
 written license.
  
 The following legend is applicable only to US Government
 contracts under FAR:
  
                    RESTRICTED RIGHTS LEGEND
  
 Use, reproduction and disclosure by the US Government is
 subject to restrictions as set forth in subparagraphs (a)
 and (c) of the Commercial Computer Software - Restricted
 Rights clause in FAR 52.227-19.
  
 Gaussian, Inc.
 340 Quinnipiac St., Bldg. 40, Wallingford CT 06492
  
  
 ---------------------------------------------------------------
 Warning -- This program may not be used in any manner that
 competes with the business of Gaussian, Inc. or will provide
 assistance to any competitor of Gaussian, Inc.  The licensee
 of this program is prohibited from giving any competitor of
 Gaussian, Inc. access to this program.  By using this program,
 the user acknowledges that Gaussian, Inc. is engaged in the
 business of creating and licensing software in the field of
 computational chemistry and represents and warrants to the
 licensee that it is not a competitor of Gaussian, Inc. and that
 it will not use this program in any manner prohibited above.
 ---------------------------------------------------------------
  

 Cite this work as:
 Gaussian 16, Revision C.01,
 M. J. Frisch, G. W. Trucks, H. B. Schlegel, G. E. Scuseria, 
 M. A. Robb, J. R. Cheeseman, G. Scalmani, V. Barone, 
 G. A. Petersson, H. Nakatsuji, X. Li, M. Caricato, A. V. Marenich, 
 J. Bloino, B. G. Janesko, R. Gomperts, B. Mennucci, H. P. Hratchian, 
 J. V. Ortiz, A. F. Izmaylov, J. L. Sonnenberg, D. Williams-Young, 
 F. Ding, F. Lipparini, F. Egidi, J. Goings, B. Peng, A. Petrone, 
 T. Henderson, D. Ranasinghe, V. G. Zakrzewski, J. Gao, N. Rega, 
 G. Zheng, W. Liang, M. Hada, M. Ehara, K. Toyota, R. Fukuda, 
 J. Hasegawa, M. Ishida, T. Nakajima, Y. Honda, O. Kitao, H. Nakai, 
 T. Vreven, K. Throssell, J. A. Montgomery, Jr., J. E. Peralta, 
 F. Ogliaro, M. J. Bearpark, J. J. Heyd, E. N. Brothers, K. N. Kudin, 
 V. N. Staroverov, T. A. Keith, R. Kobayashi, J. Normand, 
 K. Raghavachari, A. P. Rendell, J. C. Burant, S. S. Iyengar, 
 J. Tomasi, M. Cossi, J. M. Millam, M. Klene, C. Adamo, R. Cammi, 
 J. W. Ochterski, R. L. Martin, K. Morokuma, O. Farkas, 
 J. B. Foresman, and D. J. Fox, Gaussian, Inc., Wallingford CT, 2019.
 
 ******************************************
 Gaussian 16:  ES64L-G16RevC.01  3-Jul-2019
                17-Feb-2026 
 ******************************************
 %NProcShared=8
 Will use up to    8 processors via shared memory.
 %Mem=8GB
 %chk=prod_5l_17.chk
 ------------------------------------------------------
 #N OPT FREQ=NORAMAN Integral(Ultrafine) wB97XD def2SVP
 ------------------------------------------------------
 1/18=20,19=15,26=4,38=1/1,3;
 2/9=110,12=2,17=6,18=5,40=1/2;
 3/5=43,7=101,11=2,25=1,30=1,71=1,74=-58,75=-5/1,2,3;
 4//1;
 5/5=2,38=5/2;
 6/7=2,8=2,9=2,10=2,28=1/1;
 7//1,2,3,16;
 1/18=20,19=15,26=4/3(2);
 2/9=110/2;
 99//99;
 2/9=110/2;
 3/5=43,7=101,11=2,25=1,30=1,71=1,74=-58,75=-5/1,2,3;
 4/5=5,16=3,69=1/1;
 5/5=2,38=5/2;
 7//1,2,3,16;
 1/18=20,19=15,26=4/3(-5);
 2/9=110/2;
 6/7=2,8=2,9=2,10=2,19=2,28=1/1;
 99/9=1/99;
 ----------
 prod_5l_17
 ----------
 Symbolic Z-matrix:
 Charge =  0 Multiplicity = 1
 O                     0.43273   1.19623   1.80563 
 S                     0.019     1.41237   0.38025 
 N                     0.96227   0.62348  -0.80774 
 C                     2.12365  -0.08199  -0.49105 
 C                     2.48918  -0.41951   0.81678 
 C                     3.62943  -1.14192   1.07347 
 C                     4.43975  -1.55008   0.03328 
 C                     4.10326  -1.22889  -1.26661 
 C                     2.96305  -0.50585  -1.52766 
 C                    -1.46199   0.42456   0.14659 
 C                    -2.66602   1.04666  -0.07877 
 C                    -3.80824   0.2922   -0.25466 
 C                    -3.75388  -1.09307  -0.20055 
 C                    -4.98231  -1.90537  -0.41258 
 C                    -2.5272   -1.70394   0.01841 
 C                    -1.38717  -0.94653   0.19462 
 O                    -0.26169   2.78373  -0.16162 
 H                     1.04197   1.30479  -1.53559 
 H                     1.87265  -0.08201   1.62871 
 H                     3.89438  -1.38476   2.08944 
 H                     5.33449  -2.1153    0.23574 
 H                     4.73579  -1.54658  -2.07912 
 H                     2.69396  -0.26141  -2.54014 
 H                    -2.70004   2.12333  -0.11839 
 H                    -4.75248   0.77604  -0.43589 
 H                    -4.88286  -2.89532   0.03346 
 H                    -5.85139  -1.42542   0.03835 
 H                    -5.18202  -2.03395  -1.47673 
 H                    -2.47097  -2.77833   0.04951 
 H                    -0.43344  -1.41688   0.36649 
 

 GradGradGradGradGradGradGradGradGradGradGradGradGradGradGradGradGradGrad
 Berny optimization.
 Initialization pass.
                           ----------------------------
                           !    Initial Parameters    !
                           ! (Angstroms and Degrees)  !
 --------------------------                            --------------------------
 ! Name  Definition              Value          Derivative Info.                !
 --------------------------------------------------------------------------------
 ! R1    R(1,2)                  1.4999         estimate D2E/DX2                !
 ! R2    R(2,3)                  1.7098         estimate D2E/DX2                !
 ! R3    R(2,10)                 1.7955         estimate D2E/DX2                !
 ! R4    R(2,17)                 1.501          estimate D2E/DX2                !
 ! R5    R(3,4)                  1.3953         estimate D2E/DX2                !
 ! R6    R(3,18)                 1.0002         estimate D2E/DX2                !
 ! R7    R(4,5)                  1.3993         estimate D2E/DX2                !
 ! R8    R(4,9)                  1.3996         estimate D2E/DX2                !
 ! R9    R(5,6)                  1.374          estimate D2E/DX2                !
 ! R10   R(5,19)                 1.0739         estimate D2E/DX2                !
 ! R11   R(6,7)                  1.3803         estimate D2E/DX2                !
 ! R12   R(6,20)                 1.0777         estimate D2E/DX2                !
 ! R13   R(7,8)                  1.3806         estimate D2E/DX2                !
 ! R14   R(7,21)                 1.0775         estimate D2E/DX2                !
 ! R15   R(8,9)                  1.3751         estimate D2E/DX2                !
 ! R16   R(8,22)                 1.0776         estimate D2E/DX2                !
 ! R17   R(9,23)                 1.0758         estimate D2E/DX2                !
 ! R18   R(10,11)                1.3739         estimate D2E/DX2                !
 ! R19   R(10,16)                1.374          estimate D2E/DX2                !
 ! R20   R(11,12)                1.3801         estimate D2E/DX2                !
 ! R21   R(11,24)                1.0779         estimate D2E/DX2                !
 ! R22   R(12,13)                1.3874         estimate D2E/DX2                !
 ! R23   R(12,25)                1.0764         estimate D2E/DX2                !
 ! R24   R(13,14)                1.4879         estimate D2E/DX2                !
 ! R25   R(13,15)                1.3877         estimate D2E/DX2                !
 ! R26   R(14,26)                1.0903         estimate D2E/DX2                !
 ! R27   R(14,27)                1.0904         estimate D2E/DX2                !
 ! R28   R(14,28)                1.0903         estimate D2E/DX2                !
 ! R29   R(15,16)                1.38           estimate D2E/DX2                !
 ! R30   R(15,29)                1.0763         estimate D2E/DX2                !
 ! R31   R(16,30)                1.0772         estimate D2E/DX2                !
 ! A1    A(1,2,3)              116.2084         estimate D2E/DX2                !
 ! A2    A(1,2,10)             105.7788         estimate D2E/DX2                !
 ! A3    A(1,2,17)             121.7569         estimate D2E/DX2                !
 ! A4    A(3,2,10)              96.3609         estimate D2E/DX2                !
 ! A5    A(3,2,17)             105.895          estimate D2E/DX2                !
 ! A6    A(10,2,17)            107.5429         estimate D2E/DX2                !
 ! A7    A(2,3,4)              122.3294         estimate D2E/DX2                !
 ! A8    A(2,3,18)             103.6094         estimate D2E/DX2                !
 ! A9    A(4,3,18)             116.3131         estimate D2E/DX2                !
 ! A10   A(3,4,5)              123.4728         estimate D2E/DX2                !
 ! A11   A(3,4,9)              118.9621         estimate D2E/DX2                !
 ! A12   A(5,4,9)              117.5509         estimate D2E/DX2                !
 ! A13   A(4,5,6)              121.2125         estimate D2E/DX2                !
 ! A14   A(4,5,19)             118.7426         estimate D2E/DX2                !
 ! A15   A(6,5,19)             120.0279         estimate D2E/DX2                !
 ! A16   A(5,6,7)              120.1237         estimate D2E/DX2                !
 ! A17   A(5,6,20)             119.9089         estimate D2E/DX2                !
 ! A18   A(7,6,20)             119.9663         estimate D2E/DX2                !
 ! A19   A(6,7,8)              119.8454         estimate D2E/DX2                !
 ! A20   A(6,7,21)             120.0663         estimate D2E/DX2                !
 ! A21   A(8,7,21)             120.088          estimate D2E/DX2                !
 ! A22   A(7,8,9)              120.2082         estimate D2E/DX2                !
 ! A23   A(7,8,22)             119.8857         estimate D2E/DX2                !
 ! A24   A(9,8,22)             119.9061         estimate D2E/DX2                !
 ! A25   A(4,9,8)              121.0592         estimate D2E/DX2                !
 ! A26   A(4,9,23)             118.5713         estimate D2E/DX2                !
 ! A27   A(8,9,23)             120.3674         estimate D2E/DX2                !
 ! A28   A(2,10,11)            119.6771         estimate D2E/DX2                !
 ! A29   A(2,10,16)            119.9702         estimate D2E/DX2                !
 ! A30   A(11,10,16)           120.3527         estimate D2E/DX2                !
 ! A31   A(10,11,12)           119.9125         estimate D2E/DX2                !
 ! A32   A(10,11,24)           119.076          estimate D2E/DX2                !
 ! A33   A(12,11,24)           121.0112         estimate D2E/DX2                !
 ! A34   A(11,12,13)           120.5585         estimate D2E/DX2                !
 ! A35   A(11,12,25)           120.1161         estimate D2E/DX2                !
 ! A36   A(13,12,25)           119.3255         estimate D2E/DX2                !
 ! A37   A(12,13,14)           120.4774         estimate D2E/DX2                !
 ! A38   A(12,13,15)           118.7051         estimate D2E/DX2                !
 ! A39   A(14,13,15)           120.7945         estimate D2E/DX2                !
 ! A40   A(13,14,26)           111.2276         estimate D2E/DX2                !
 ! A41   A(13,14,27)           111.0268         estimate D2E/DX2                !
 ! A42   A(13,14,28)           110.7741         estimate D2E/DX2                !
 ! A43   A(26,14,27)           107.6471         estimate D2E/DX2                !
 ! A44   A(26,14,28)           107.9927         estimate D2E/DX2                !
 ! A45   A(27,14,28)           108.031          estimate D2E/DX2                !
 ! A46   A(13,15,16)           120.5825         estimate D2E/DX2                !
 ! A47   A(13,15,29)           119.3498         estimate D2E/DX2                !
 ! A48   A(16,15,29)           120.0676         estimate D2E/DX2                !
 ! A49   A(10,16,15)           119.8842         estimate D2E/DX2                !
 ! A50   A(10,16,30)           119.3087         estimate D2E/DX2                !
 ! A51   A(15,16,30)           120.8066         estimate D2E/DX2                !
 ! D1    D(1,2,3,4)             -5.7142         estimate D2E/DX2                !
 ! D2    D(1,2,3,18)          -139.5801         estimate D2E/DX2                !
 ! D3    D(10,2,3,4)          -116.8041         estimate D2E/DX2                !
 ! D4    D(10,2,3,18)          109.33           estimate D2E/DX2                !
 ! D5    D(17,2,3,4)           132.8866         estimate D2E/DX2                !
 ! D6    D(17,2,3,18)           -0.9793         estimate D2E/DX2                !
 ! D7    D(1,2,10,11)          113.1168         estimate D2E/DX2                !
 ! D8    D(1,2,10,16)          -66.839          estimate D2E/DX2                !
 ! D9    D(3,2,10,11)         -127.3272         estimate D2E/DX2                !
 ! D10   D(3,2,10,16)           52.717          estimate D2E/DX2                !
 ! D11   D(17,2,10,11)         -18.4069         estimate D2E/DX2                !
 ! D12   D(17,2,10,16)         161.6373         estimate D2E/DX2                !
 ! D13   D(2,3,4,5)             12.1889         estimate D2E/DX2                !
 ! D14   D(2,3,4,9)           -169.2196         estimate D2E/DX2                !
 ! D15   D(18,3,4,5)           140.7707         estimate D2E/DX2                !
 ! D16   D(18,3,4,9)           -40.6378         estimate D2E/DX2                !
 ! D17   D(3,4,5,6)            178.5313         estimate D2E/DX2                !
 ! D18   D(3,4,5,19)            -2.9725         estimate D2E/DX2                !
 ! D19   D(9,4,5,6)             -0.0787         estimate D2E/DX2                !
 ! D20   D(9,4,5,19)           178.4175         estimate D2E/DX2                !
 ! D21   D(3,4,9,8)           -178.5849         estimate D2E/DX2                !
 ! D22   D(3,4,9,23)             0.8945         estimate D2E/DX2                !
 ! D23   D(5,4,9,8)              0.0899         estimate D2E/DX2                !
 ! D24   D(5,4,9,23)           179.5693         estimate D2E/DX2                !
 ! D25   D(4,5,6,7)             -0.0188         estimate D2E/DX2                !
 ! D26   D(4,5,6,20)           179.5994         estimate D2E/DX2                !
 ! D27   D(19,5,6,7)          -178.4959         estimate D2E/DX2                !
 ! D28   D(19,5,6,20)            1.1223         estimate D2E/DX2                !
 ! D29   D(5,6,7,8)              0.1078         estimate D2E/DX2                !
 ! D30   D(5,6,7,21)           179.9094         estimate D2E/DX2                !
 ! D31   D(20,6,7,8)          -179.5102         estimate D2E/DX2                !
 ! D32   D(20,6,7,21)            0.2914         estimate D2E/DX2                !
 ! D33   D(6,7,8,9)             -0.0967         estimate D2E/DX2                !
 ! D34   D(6,7,8,22)           179.9548         estimate D2E/DX2                !
 ! D35   D(21,7,8,9)          -179.8982         estimate D2E/DX2                !
 ! D36   D(21,7,8,22)            0.1532         estimate D2E/DX2                !
 ! D37   D(7,8,9,4)             -0.0037         estimate D2E/DX2                !
 ! D38   D(7,8,9,23)          -179.4738         estimate D2E/DX2                !
 ! D39   D(22,8,9,4)           179.9448         estimate D2E/DX2                !
 ! D40   D(22,8,9,23)            0.4748         estimate D2E/DX2                !
 ! D41   D(2,10,11,12)        -179.7875         estimate D2E/DX2                !
 ! D42   D(2,10,11,24)           0.4162         estimate D2E/DX2                !
 ! D43   D(16,10,11,12)          0.1681         estimate D2E/DX2                !
 ! D44   D(16,10,11,24)       -179.6282         estimate D2E/DX2                !
 ! D45   D(2,10,16,15)         179.824          estimate D2E/DX2                !
 ! D46   D(2,10,16,30)          -0.4091         estimate D2E/DX2                !
 ! D47   D(11,10,16,15)         -0.1315         estimate D2E/DX2                !
 ! D48   D(11,10,16,30)        179.6354         estimate D2E/DX2                !
 ! D49   D(10,11,12,13)          0.2684         estimate D2E/DX2                !
 ! D50   D(10,11,12,25)       -179.7206         estimate D2E/DX2                !
 ! D51   D(24,11,12,13)       -179.9393         estimate D2E/DX2                !
 ! D52   D(24,11,12,25)          0.0717         estimate D2E/DX2                !
 ! D53   D(11,12,13,14)       -178.9929         estimate D2E/DX2                !
 ! D54   D(11,12,13,15)         -0.7263         estimate D2E/DX2                !
 ! D55   D(25,12,13,14)          0.9962         estimate D2E/DX2                !
 ! D56   D(25,12,13,15)        179.2627         estimate D2E/DX2                !
 ! D57   D(12,13,14,26)       -157.5414         estimate D2E/DX2                !
 ! D58   D(12,13,14,27)        -37.6913         estimate D2E/DX2                !
 ! D59   D(12,13,14,28)         82.3413         estimate D2E/DX2                !
 ! D60   D(15,13,14,26)         24.2286         estimate D2E/DX2                !
 ! D61   D(15,13,14,27)        144.0786         estimate D2E/DX2                !
 ! D62   D(15,13,14,28)        -95.8887         estimate D2E/DX2                !
 ! D63   D(12,13,15,16)          0.7633         estimate D2E/DX2                !
 ! D64   D(12,13,15,29)       -179.2077         estimate D2E/DX2                !
 ! D65   D(14,13,15,16)        179.0242         estimate D2E/DX2                !
 ! D66   D(14,13,15,29)         -0.9468         estimate D2E/DX2                !
 ! D67   D(13,15,16,10)         -0.342          estimate D2E/DX2                !
 ! D68   D(13,15,16,30)        179.8946         estimate D2E/DX2                !
 ! D69   D(29,15,16,10)        179.6288         estimate D2E/DX2                !
 ! D70   D(29,15,16,30)         -0.1345         estimate D2E/DX2                !
 --------------------------------------------------------------------------------
 Trust Radius=3.00D-01 FncErr=1.00D-07 GrdErr=1.00D-06 EigMax=2.50D+02 EigMin=1.00D-04
 Number of steps in this run=    162 maximum allowed number of steps=    180.
 GradGradGradGradGradGradGradGradGradGradGradGradGradGradGradGradGradGrad

                          Input orientation:                          
 ---------------------------------------------------------------------
 Center     Atomic      Atomic             Coordinates (Angstroms)
 Number     Number       Type             X           Y           Z
 ---------------------------------------------------------------------
      1          8           0        0.432730    1.196230    1.805630
      2         16           0        0.019000    1.412370    0.380250
      3          7           0        0.962270    0.623480   -0.807740
      4          6           0        2.123650   -0.081990   -0.491050
      5          6           0        2.489180   -0.419510    0.816780
      6          6           0        3.629430   -1.141920    1.073470
      7          6           0        4.439750   -1.550080    0.033280
      8          6           0        4.103260   -1.228890   -1.266610
      9          6           0        2.963050   -0.505850   -1.527660
     10          6           0       -1.461990    0.424560    0.146590
     11          6           0       -2.666020    1.046660   -0.078770
     12          6           0       -3.808240    0.292200   -0.254660
     13          6           0       -3.753880   -1.093070   -0.200550
     14          6           0       -4.982310   -1.905370   -0.412580
     15          6           0       -2.527200   -1.703940    0.018410
     16          6           0       -1.387170   -0.946530    0.194620
     17          8           0       -0.261690    2.783730   -0.161620
     18          1           0        1.041970    1.304790   -1.535590
     19          1           0        1.872650   -0.082010    1.628710
     20          1           0        3.894380   -1.384760    2.089440
     21          1           0        5.334490   -2.115300    0.235740
     22          1           0        4.735790   -1.546580   -2.079120
     23          1           0        2.693960   -0.261410   -2.540140
     24          1           0       -2.700040    2.123330   -0.118390
     25          1           0       -4.752480    0.776040   -0.435890
     26          1           0       -4.882860   -2.895320    0.033460
     27          1           0       -5.851390   -1.425420    0.038350
     28          1           0       -5.182020   -2.033950   -1.476730
     29          1           0       -2.470970   -2.778330    0.049510
     30          1           0       -0.433440   -1.416880    0.366490
 ---------------------------------------------------------------------
                    Distance matrix (angstroms):
                    1          2          3          4          5
     1  O    0.000000
     2  S    1.499866   0.000000
     3  N    2.727299   1.709803   0.000000
     4  C    3.125347   2.724303   1.395272   0.000000
     5  C    2.795966   3.106144   2.461371   1.399268   0.000000
     6  C    4.027641   4.476623   3.710705   2.416309   1.374022
     7  C    5.171040   5.332872   4.186233   2.791868   2.386794
     8  C    5.365879   5.135132   3.675276   2.415725   2.756966
     9  C    4.517789   3.998390   2.407653   1.399575   2.393409
    10  C    2.633980   1.795466   2.612920   3.676954   4.095528
    11  C    3.629819   2.748413   3.724912   4.938093   5.433944
    12  C    4.800822   4.038026   4.813877   5.948379   6.427442
    13  C    5.176230   4.566090   5.055422   5.970932   6.361167
    14  C    6.622918   6.053848   6.472192   7.336589   7.716364
    15  C    4.512907   4.040477   4.275021   4.951836   5.239392
    16  C    3.240187   2.752486   2.998254   3.680140   3.961177
    17  O    2.621535   1.501012   2.565586   3.743090   4.334201
    18  H    3.398045   2.174508   1.000151   2.045545   3.255959
    19  H    1.933538   2.688465   2.694958   2.134569   1.073893
    20  H    4.327248   5.075809   4.585188   3.389930   2.127430
    21  H    6.120297   6.381205   5.263656   3.869376   3.362901
    22  H    6.413315   6.087035   4.534867   3.389729   3.834551
    23  H    5.111124   4.299492   2.604417   2.134529   3.366874
    24  H    3.791519   2.854345   4.017122   5.316982   5.853937
    25  H    5.664572   4.882420   5.728867   6.929677   7.445815
    26  H    6.938074   6.534882   6.874236   7.568429   7.816022
    27  H    7.034664   6.529275   7.165181   8.104710   8.436997
    28  H    7.261774   6.509693   6.727688   7.625912   8.167859
    29  H    5.226142   4.885827   4.908597   5.354716   5.545793
    30  H    3.106400   2.865231   2.736767   3.009321   3.120772
                    6          7          8          9         10
     6  C    0.000000
     7  C    1.380293   0.000000
     8  C    2.389153   1.380617   0.000000
     9  C    2.759443   2.389057   1.375141   0.000000
    10  C    5.406988   6.224354   5.975202   4.821800   0.000000
    11  C    6.763892   7.566213   7.239630   6.016311   1.373857
    12  C    7.690225   8.456136   8.119704   6.935977   2.383990
    13  C    7.492582   8.209696   7.930295   6.871914   2.770644
    14  C    8.772301   9.439292   9.150660   8.144373   4.258391
    15  C    6.271612   6.968665   6.770521   5.828259   2.383614
    16  C    5.096747   5.860316   5.688562   4.699453   1.373970
    17  O    5.663655   6.397143   6.031162   4.804826   2.664845
    18  H    4.414582   4.707074   3.982886   2.639892   3.142348
    19  H    2.125553   3.360153   3.830644   3.366197   3.684171
    20  H    1.077666   2.133671   3.366155   3.837091   5.978211
    21  H    2.134594   1.077508   2.135113   3.365061   7.256099
    22  H    3.365502   2.133046   1.077587   2.128341   6.873984
    23  H    3.835177   3.366147   2.131671   1.075768   4.996098
    24  H    7.221120   8.030787   7.670768   6.400720   2.118679
    25  H    8.730015   9.493579   9.117783   7.897126   3.360081
    26  H    8.753006   9.419168   9.231334   8.348950   4.768307
    27  H    9.541373  10.291896  10.041743   8.999575   4.764554
    28  H    9.216338   9.751550   9.322483   8.287331   4.745320
    29  H    6.398532   7.019039   6.881383   6.097557   3.359460
    30  H    4.133078   4.886384   4.825350   3.994236   2.120654
                   11         12         13         14         15
    11  C    0.000000
    12  C    1.380150   0.000000
    13  C    2.403480   1.387392   0.000000
    14  C    3.767109   2.496536   1.487894   0.000000
    15  C    2.755815   2.387510   1.387750   2.500778   0.000000
    16  C    2.383906   2.756426   2.403945   3.770026   1.379996
    17  O    2.967335   4.335250   5.217900   6.658445   5.030321
    18  H    3.992261   5.117681   5.525599   6.917964   4.919995
    19  H    4.978846   5.996635   6.002189   7.381191   4.958064
    20  H    7.324738   8.224193   7.989056   9.237249   6.754830
    21  H    8.608430   9.467104   9.156078  10.339282   7.875444
    22  H    8.094015   8.928058   8.706847   9.866486   7.561443
    23  H    6.041422   6.914370   6.909412   8.133526   5.990625
    24  H    1.077936   2.144694   3.385640   4.639583   3.833612
    25  H    2.134030   1.076352   2.132172   2.691343   3.362820
    26  H    4.523956   3.376108   2.139500   1.090341   2.639838
    27  H    4.033792   2.685244   2.137072   1.090408   3.335897
    28  H    4.216006   2.965080   2.133887   1.090336   3.064705
    29  H    3.832108   3.362880   2.132719   2.698595   1.076310
    30  H    3.354355   3.833544   3.384037   4.640883   2.141820
                   16         17         18         19         20
    16  C    0.000000
    17  O    3.912602   0.000000
    18  H    3.736682   2.403037   0.000000
    19  H    3.664756   3.996643   3.553314   0.000000
    20  H    5.628247   6.302103   5.339547   2.448841   0.000000
    21  H    6.822641   7.448196   5.767179   4.249585   2.458416
    22  H    6.559009   6.884998   4.697876   4.908211   4.255708
    23  H    4.960234   4.864782   2.488207   4.252769   4.912834
    24  H    3.353452   2.526568   4.084251   5.368927   7.788940
    25  H    3.832767   4.926788   5.921534   6.992222   9.263614
    26  H    4.005447   7.324266   7.430104   7.489756   9.140503
    27  H    4.492551   7.000120   7.579561   7.999674   9.959350
    28  H    4.286815   7.010649   7.063193   7.951239   9.773436
    29  H    2.133347   5.988489   5.614727   5.350799   6.827960
    30  H    1.077204   4.237160   3.633487   2.948411   4.658284
                   21         22         23         24         25
    21  H    0.000000
    22  H    2.457735   0.000000
    23  H    4.256150   2.456272   0.000000
    24  H    9.090933   8.520814   6.375507   0.000000
    25  H   10.514652   9.905657   7.807281   2.475582   0.000000
    26  H   10.249077   9.939845   8.424316   5.474907   3.703535
    27  H   11.208872  10.797534   9.001474   4.748600   2.505780
    28  H   10.655335   9.948033   8.142715   5.028746   3.027193
    29  H    7.835783   7.614832   6.302196   4.909881   4.251405
    30  H    5.811532   5.720032   4.423148   4.231509   4.909869
                   26         27         28         29         30
    26  H    0.000000
    27  H    1.760307   0.000000
    28  H    1.764123   1.764605   0.000000
    29  H    2.414779   3.641117   3.198953   0.000000
    30  H    4.700429   5.427885   5.131008   2.470941   0.000000
 Stoichiometry    C13H13NO2S
 Framework group  C1[X(C13H13NO2S)]
 Deg. of freedom    84
 Full point group                 C1      NOp   1
 Largest Abelian subgroup         C1      NOp   1
 Largest concise Abelian subgroup C1      NOp   1
                         Standard orientation:                         
 ---------------------------------------------------------------------
 Center     Atomic      Atomic             Coordinates (Angstroms)
 Number     Number       Type             X           Y           Z
 ---------------------------------------------------------------------
      1          8           0        0.430292    1.549976    1.573049
      2         16           0        0.017475    1.504365    0.131834
      3          7           0        0.978445    0.535786   -0.898612
      4          6           0        2.151083   -0.081909   -0.462541
      5          6           0        2.518240   -0.177321    0.884323
      6          6           0        3.670248   -0.822631    1.264311
      7          6           0        4.491068   -1.392863    0.312314
      8          6           0        4.153208   -1.311603   -1.023856
      9          6           0        3.001244   -0.666440   -1.408247
     10          6           0       -1.445030    0.464360    0.075565
     11          6           0       -2.659134    1.015309   -0.255930
     12          6           0       -3.787243    0.221238   -0.296376
     13          6           0       -3.708556   -1.131673    0.000773
     14          6           0       -4.921719   -1.990585   -0.065075
     15          6           0       -2.471983   -1.672288    0.323993
     16          6           0       -1.346117   -0.875296    0.364234
     17          8           0       -0.285660    2.753656   -0.643032
     18          1           0        1.048461    1.079665   -1.735030
     19          1           0        1.893177    0.286675    1.624086
     20          1           0        3.936122   -0.878040    2.307194
     21          1           0        5.395001   -1.897426    0.611218
     22          1           0        4.793920   -1.755916   -1.767676
     23          1           0        2.731190   -0.608916   -2.447977
     24          1           0       -2.712071    2.067405   -0.484483
     25          1           0       -4.739298    0.648551   -0.560060
     26          1           0       -4.806229   -2.884614    0.548290
     27          1           0       -5.800628   -1.454474    0.294220
     28          1           0       -5.115634   -2.308042   -1.089990
     29          1           0       -2.396852   -2.723240    0.543760
     30          1           0       -0.384782   -1.290810    0.616330
 ---------------------------------------------------------------------
 Rotational constants (GHZ):           0.8306546           0.2458462           0.2146727
 Standard basis: def2SVP (5D, 7F)
 There are   324 symmetry adapted cartesian basis functions of A   symmetry.
 There are   307 symmetry adapted basis functions of A   symmetry.
   307 basis functions,   528 primitive gaussians,   324 cartesian basis functions
    65 alpha electrons       65 beta electrons
       nuclear repulsion energy      1302.5132543016 Hartrees.
 NAtoms=   30 NActive=   30 NUniq=   30 SFac= 1.00D+00 NAtFMM=   60 NAOKFM=F Big=F
 Integral buffers will be    131072 words long.
 Raffenetti 2 integral format.
 Two-electron integral symmetry is turned on.
 Nuclear repulsion after empirical dispersion term =     1302.4944716574 Hartrees.
 One-electron integrals computed using PRISM.
   1 Symmetry operations used in ECPInt.
 ECPInt:  NShTT=   10296 NPrTT=   38220 LenC2=    9311 LenP2D=   24461.
 LDataN:  DoStor=T MaxTD1= 4 Len=   56
 NBasis=   307 RedAO= T EigKep=  2.42D-04  NBF=   307
 NBsUse=   307 1.00D-06 EigRej= -1.00D+00 NBFU=   307
 ExpMin= 1.22D-01 ExpMax= 9.18D+03 ExpMxC= 1.38D+03 IAcc=3 IRadAn=         5 AccDes= 0.00D+00
 Harris functional with IExCor= 4639 and IRadAn=       5 diagonalized for initial guess.
 HarFok:  IExCor= 4639 AccDes= 0.00D+00 IRadAn=         5 IDoV= 1 UseB2=F ITyADJ=14
 ICtDFT=  3500011 ScaDFX=  1.000000  1.000000  1.000000  1.000000
 FoFCou: FMM=F IPFlag=           0 FMFlag=      100000 FMFlg1=           0
         NFxFlg=           0 DoJE=T BraDBF=F KetDBF=T FulRan=T
         wScrn=  0.000000 ICntrl=       500 IOpCl=  0 I1Cent=   200000004 NGrid=           0
         NMat0=    1 NMatS0=      1 NMatT0=    0 NMatD0=    1 NMtDS0=    0 NMtDT0=    0
 Petite list used in FoFCou.
 Requested convergence on RMS density matrix=1.00D-08 within 128 cycles.
 Requested convergence on MAX density matrix=1.00D-06.
 Requested convergence on             energy=1.00D-06.
 No special actions if energy rises.
 Integral accuracy reduced to 1.0D-05 until final iterations.
 Initial convergence to 1.0D-05 achieved.  Increase integral accuracy.
 SCF Done:  E(RwB97XD) =  -1105.64024722     A.U. after   16 cycles
            NFock= 16  Conv=0.34D-08     -V/T= 2.0071

 **********************************************************************

            Population analysis using the SCF Density.

 **********************************************************************

 Orbital symmetries:
       Occupied  (A) (A) (A) (A) (A) (A) (A) (A) (A) (A) (A) (A)
                 (A) (A) (A) (A) (A) (A) (A) (A) (A) (A) (A) (A)
                 (A) (A) (A) (A) (A) (A) (A) (A) (A) (A) (A) (A)
                 (A) (A) (A) (A) (A) (A) (A) (A) (A) (A) (A) (A)
                 (A) (A) (A) (A) (A) (A) (A) (A) (A) (A) (A) (A)
                 (A) (A) (A) (A) (A)
       Virtual   (A) (A) (A) (A) (A) (A) (A) (A) (A) (A) (A) (A)
                 (A) (A) (A) (A) (A) (A) (A) (A) (A) (A) (A) (A)
                 (A) (A) (A) (A) (A) (A) (A) (A) (A) (A) (A) (A)
                 (A) (A) (A) (A) (A) (A) (A) (A) (A) (A) (A) (A)
                 (A) (A) (A) (A) (A) (A) (A) (A) (A) (A) (A) (A)
                 (A) (A) (A) (A) (A) (A) (A) (A) (A) (A) (A) (A)
                 (A) (A) (A) (A) (A) (A) (A) (A) (A) (A) (A) (A)
                 (A) (A) (A) (A) (A) (A) (A) (A) (A) (A) (A) (A)
                 (A) (A) (A) (A) (A) (A) (A) (A) (A) (A) (A) (A)
                 (A) (A) (A) (A) (A) (A) (A) (A) (A) (A) (A) (A)
                 (A) (A) (A) (A) (A) (A) (A) (A) (A) (A) (A) (A)
                 (A) (A) (A) (A) (A) (A) (A) (A) (A) (A) (A) (A)
                 (A) (A) (A) (A) (A) (A) (A) (A) (A) (A) (A) (A)
                 (A) (A) (A) (A) (A) (A) (A) (A) (A) (A) (A) (A)
                 (A) (A) (A) (A) (A) (A) (A) (A) (A) (A) (A) (A)
                 (A) (A) (A) (A) (A) (A) (A) (A) (A) (A) (A) (A)
                 (A) (A) (A) (A) (A) (A) (A) (A) (A) (A) (A) (A)
                 (A) (A) (A) (A) (A) (A) (A) (A) (A) (A) (A) (A)
                 (A) (A) (A) (A) (A) (A) (A) (A) (A) (A) (A) (A)
                 (A) (A) (A) (A) (A) (A) (A) (A) (A) (A) (A) (A)
                 (A) (A)
 The electronic state is 1-A.
 Alpha  occ. eigenvalues --  -89.25886 -19.26409 -19.25975 -14.50021 -10.35667
 Alpha  occ. eigenvalues --  -10.33253 -10.32429 -10.32241 -10.31989 -10.31397
 Alpha  occ. eigenvalues --  -10.31253 -10.30665 -10.30573 -10.30448 -10.30093
 Alpha  occ. eigenvalues --  -10.29600 -10.29307  -8.27658  -6.23094  -6.22996
 Alpha  occ. eigenvalues --   -6.22841  -1.20527  -1.09162  -1.05471  -0.98539
 Alpha  occ. eigenvalues --   -0.95443  -0.90167  -0.86302  -0.85168  -0.84794
 Alpha  occ. eigenvalues --   -0.81282  -0.75907  -0.72570  -0.71608  -0.70752
 Alpha  occ. eigenvalues --   -0.68102  -0.64476  -0.63797  -0.60535  -0.58958
 Alpha  occ. eigenvalues --   -0.57942  -0.56526  -0.54763  -0.53928  -0.53792
 Alpha  occ. eigenvalues --   -0.52977  -0.52780  -0.52721  -0.51495  -0.49564
 Alpha  occ. eigenvalues --   -0.48453  -0.47459  -0.46382  -0.46188  -0.44193
 Alpha  occ. eigenvalues --   -0.44141  -0.43383  -0.41239  -0.40909  -0.39564
 Alpha  occ. eigenvalues --   -0.38361  -0.35247  -0.34336  -0.33964  -0.30615
 Alpha virt. eigenvalues --    0.03036   0.04547   0.05720   0.06393   0.10394
 Alpha virt. eigenvalues --    0.13028   0.13570   0.14220   0.15404   0.15920
 Alpha virt. eigenvalues --    0.17103   0.17275   0.18747   0.19287   0.20279
 Alpha virt. eigenvalues --    0.20947   0.21408   0.22903   0.23691   0.23916
 Alpha virt. eigenvalues --    0.24602   0.25614   0.29273   0.29596   0.33778
 Alpha virt. eigenvalues --    0.35195   0.36456   0.36919   0.37474   0.38177
 Alpha virt. eigenvalues --    0.38585   0.39410   0.40074   0.41176   0.43692
 Alpha virt. eigenvalues --    0.46349   0.47678   0.47753   0.48153   0.49164
 Alpha virt. eigenvalues --    0.49288   0.51525   0.51806   0.52240   0.53977
 Alpha virt. eigenvalues --    0.54709   0.55358   0.56107   0.56648   0.57204
 Alpha virt. eigenvalues --    0.58055   0.58971   0.59965   0.60849   0.61763
 Alpha virt. eigenvalues --    0.62399   0.63924   0.64288   0.64962   0.65734
 Alpha virt. eigenvalues --    0.67546   0.69250   0.69687   0.71106   0.71631
 Alpha virt. eigenvalues --    0.72279   0.72784   0.73288   0.73817   0.74420
 Alpha virt. eigenvalues --    0.74980   0.75352   0.75957   0.76647   0.77144
 Alpha virt. eigenvalues --    0.78062   0.78161   0.78835   0.79046   0.80365
 Alpha virt. eigenvalues --    0.81236   0.82203   0.82462   0.83458   0.83697
 Alpha virt. eigenvalues --    0.84525   0.85634   0.88165   0.88519   0.91310
 Alpha virt. eigenvalues --    0.91614   0.91975   0.94063   0.95918   0.96757
 Alpha virt. eigenvalues --    0.98939   0.99527   1.00732   1.03125   1.06137
 Alpha virt. eigenvalues --    1.07365   1.10768   1.11830   1.12694   1.14138
 Alpha virt. eigenvalues --    1.15030   1.15267   1.19280   1.20535   1.21625
 Alpha virt. eigenvalues --    1.24311   1.26156   1.26932   1.27894   1.29694
 Alpha virt. eigenvalues --    1.31121   1.31474   1.32169   1.32820   1.33181
 Alpha virt. eigenvalues --    1.34309   1.35686   1.36732   1.37316   1.37435
 Alpha virt. eigenvalues --    1.38168   1.40941   1.43418   1.45001   1.54000
 Alpha virt. eigenvalues --    1.54658   1.55970   1.58847   1.61670   1.61891
 Alpha virt. eigenvalues --    1.62661   1.63247   1.71910   1.75134   1.75941
 Alpha virt. eigenvalues --    1.76634   1.77960   1.78435   1.80002   1.81199
 Alpha virt. eigenvalues --    1.81945   1.82648   1.83279   1.84178   1.84828
 Alpha virt. eigenvalues --    1.84851   1.85857   1.86217   1.87031   1.87766
 Alpha virt. eigenvalues --    1.88026   1.88708   1.90467   1.91769   1.93897
 Alpha virt. eigenvalues --    1.94368   1.94753   1.98056   1.98730   2.02967
 Alpha virt. eigenvalues --    2.04188   2.04468   2.05057   2.06470   2.08121
 Alpha virt. eigenvalues --    2.10579   2.10696   2.13345   2.14276   2.16520
 Alpha virt. eigenvalues --    2.18453   2.19811   2.20897   2.21245   2.23078
 Alpha virt. eigenvalues --    2.24653   2.25391   2.29536   2.30387   2.31957
 Alpha virt. eigenvalues --    2.32650   2.35218   2.36236   2.38440   2.38708
 Alpha virt. eigenvalues --    2.40573   2.43355   2.43653   2.44873   2.45571
 Alpha virt. eigenvalues --    2.45839   2.51696   2.54834   2.56633   2.57690
 Alpha virt. eigenvalues --    2.59997   2.61133   2.68592   2.69615   2.71916
 Alpha virt. eigenvalues --    2.72021   2.72347   2.72578   2.73822   2.74331
 Alpha virt. eigenvalues --    2.74776   2.75433   2.75748   2.78544   2.80421
 Alpha virt. eigenvalues --    2.83161   2.83472   2.84290   2.85082   2.86110
 Alpha virt. eigenvalues --    2.90939   2.94198   2.95123   2.97335   2.99853
 Alpha virt. eigenvalues --    3.00665   3.01114   3.02309   3.03108   3.04805
 Alpha virt. eigenvalues --    3.06625   3.08954   3.22867   3.24006   3.25494
 Alpha virt. eigenvalues --    3.31606   3.33564   3.34139   3.46168   3.46785
 Alpha virt. eigenvalues --    3.69898   3.78630
          Condensed to atoms (all electrons):
               1          2          3          4          5          6
     1  O    8.166436   0.386263  -0.036033  -0.001401  -0.024215   0.001630
     2  S    0.386263  13.933487   0.203231  -0.032868   0.000942  -0.000622
     3  N   -0.036033   0.203231   6.863236   0.264831  -0.083565   0.007319
     4  C   -0.001401  -0.032868   0.264831   5.195124   0.245633   0.111662
     5  C   -0.024215   0.000942  -0.083565   0.245633   5.229005   0.263290
     6  C    0.001630  -0.000622   0.007319   0.111662   0.263290   5.054078
     7  C   -0.000033   0.000014  -0.000477  -0.164614   0.089933   0.268338
     8  C   -0.000001  -0.000141   0.006943   0.112696  -0.148797   0.098150
     9  C    0.000127   0.000172  -0.072384   0.259926   0.077492  -0.146612
    10  C   -0.052988   0.237411  -0.095592   0.006283  -0.002143  -0.000185
    11  C   -0.003831  -0.022317  -0.000117  -0.000209  -0.000062   0.000000
    12  C   -0.000104   0.002138  -0.000035  -0.000005   0.000003   0.000000
    13  C   -0.000025   0.001088  -0.000081   0.000008  -0.000004  -0.000000
    14  C   -0.000000   0.000008  -0.000000   0.000000  -0.000000   0.000000
    15  C    0.000371  -0.001965   0.000104  -0.000030   0.000038   0.000006
    16  C    0.005174  -0.041248  -0.002979  -0.000798  -0.000972   0.000086
    17  O   -0.026459   0.430308  -0.045592   0.000585   0.000106   0.000005
    18  H    0.001875  -0.009253   0.325013  -0.001549   0.004070  -0.000222
    19  H    0.036069  -0.008125  -0.012037  -0.071484   0.451843  -0.052818
    20  H    0.000026  -0.000001  -0.000108   0.015431  -0.067831   0.458384
    21  H    0.000000   0.000000   0.000011  -0.001480   0.014835  -0.068037
    22  H   -0.000000   0.000003  -0.000115   0.015485  -0.001836   0.013724
    23  H    0.000008  -0.000105  -0.009782  -0.081190   0.017062  -0.002237
    24  H    0.000180  -0.011937   0.000645  -0.000042   0.000003   0.000000
    25  H    0.000002  -0.000164   0.000003  -0.000000   0.000000   0.000000
    26  H    0.000000  -0.000000   0.000000  -0.000000  -0.000000   0.000000
    27  H   -0.000000  -0.000000   0.000000  -0.000000  -0.000000  -0.000000
    28  H    0.000000  -0.000000  -0.000000   0.000000   0.000000   0.000000
    29  H   -0.000001  -0.000154   0.000005  -0.000002   0.000005  -0.000000
    30  H    0.001641  -0.008687   0.000458   0.001952   0.002333   0.000500
               7          8          9         10         11         12
     1  O   -0.000033  -0.000001   0.000127  -0.052988  -0.003831  -0.000104
     2  S    0.000014  -0.000141   0.000172   0.237411  -0.022317   0.002138
     3  N   -0.000477   0.006943  -0.072384  -0.095592  -0.000117  -0.000035
     4  C   -0.164614   0.112696   0.259926   0.006283  -0.000209  -0.000005
     5  C    0.089933  -0.148797   0.077492  -0.002143  -0.000062   0.000003
     6  C    0.268338   0.098150  -0.146612  -0.000185   0.000000   0.000000
     7  C    5.111059   0.283322   0.086132   0.000001  -0.000000   0.000000
     8  C    0.283322   5.011885   0.307344   0.000003   0.000000  -0.000000
     9  C    0.086132   0.307344   5.142056  -0.000931  -0.000001   0.000001
    10  C    0.000001   0.000003  -0.000931   5.704926   0.263823   0.087799
    11  C   -0.000000   0.000000  -0.000001   0.263823   5.050478   0.273163
    12  C    0.000000  -0.000000   0.000001   0.087799   0.273163   5.109402
    13  C   -0.000000   0.000000  -0.000000  -0.186151   0.100177   0.282397
    14  C   -0.000000   0.000000   0.000000   0.000596   0.009090  -0.077353
    15  C   -0.000000  -0.000000  -0.000010   0.094907  -0.122781   0.052093
    16  C    0.000001   0.000005   0.000073   0.186697   0.054597  -0.121131
    17  O   -0.000000   0.000000  -0.000108  -0.065381   0.004963   0.001380
    18  H    0.000003   0.000233  -0.013338   0.006282   0.000301  -0.000065
    19  H    0.013729  -0.002301   0.013455  -0.000333  -0.000100  -0.000001
    20  H   -0.074698   0.014156  -0.001956   0.000000   0.000000  -0.000000
    21  H    0.452038  -0.070600   0.014501   0.000000   0.000000   0.000000
    22  H   -0.069036   0.453428  -0.068822  -0.000000   0.000000   0.000000
    23  H    0.014861  -0.060161   0.451865  -0.000013  -0.000001   0.000000
    24  H   -0.000000   0.000000   0.000001  -0.069655   0.446564  -0.052096
    25  H   -0.000000   0.000000  -0.000000   0.016848  -0.066709   0.461345
    26  H    0.000000  -0.000000   0.000000  -0.000004  -0.000540   0.007990
    27  H    0.000000  -0.000000  -0.000000   0.000008   0.000720  -0.007817
    28  H   -0.000000   0.000000  -0.000000   0.000117  -0.000087  -0.004283
    29  H    0.000000  -0.000000   0.000000   0.016498  -0.002101   0.014717
    30  H   -0.000055  -0.000010  -0.000234  -0.078055   0.012974  -0.001542
              13         14         15         16         17         18
     1  O   -0.000025  -0.000000   0.000371   0.005174  -0.026459   0.001875
     2  S    0.001088   0.000008  -0.001965  -0.041248   0.430308  -0.009253
     3  N   -0.000081  -0.000000   0.000104  -0.002979  -0.045592   0.325013
     4  C    0.000008   0.000000  -0.000030  -0.000798   0.000585  -0.001549
     5  C   -0.000004  -0.000000   0.000038  -0.000972   0.000106   0.004070
     6  C   -0.000000   0.000000   0.000006   0.000086   0.000005  -0.000222
     7  C   -0.000000  -0.000000  -0.000000   0.000001  -0.000000   0.000003
     8  C    0.000000   0.000000  -0.000000   0.000005   0.000000   0.000233
     9  C   -0.000000   0.000000  -0.000010   0.000073  -0.000108  -0.013338
    10  C   -0.186151   0.000596   0.094907   0.186697  -0.065381   0.006282
    11  C    0.100177   0.009090  -0.122781   0.054597   0.004963   0.000301
    12  C    0.282397  -0.077353   0.052093  -0.121131   0.001380  -0.000065
    13  C    5.259219   0.407668   0.301880   0.085324  -0.000035   0.000014
    14  C    0.407668   4.549503  -0.077017   0.010892   0.000000  -0.000000
    15  C    0.301880  -0.077017   5.004428   0.360277   0.000008  -0.000025
    16  C    0.085324   0.010892   0.360277   5.029636   0.003451  -0.000677
    17  O   -0.000035   0.000000   0.000008   0.003451   8.150740   0.013866
    18  H    0.000014  -0.000000  -0.000025  -0.000677   0.013866   0.501703
    19  H    0.000001  -0.000000   0.000058   0.000525   0.000329  -0.000573
    20  H    0.000000   0.000000  -0.000000  -0.000001   0.000000   0.000011
    21  H    0.000000   0.000000   0.000000   0.000000   0.000000  -0.000001
    22  H   -0.000000  -0.000000  -0.000000  -0.000000  -0.000000  -0.000024
    23  H   -0.000000   0.000000  -0.000000   0.000024  -0.000029   0.003061
    24  H    0.013592  -0.000208  -0.001773   0.013907   0.016472  -0.000092
    25  H   -0.078132  -0.012891   0.014432  -0.001984  -0.000007  -0.000001
    26  H   -0.018675   0.392461  -0.009666   0.000890   0.000000  -0.000000
    27  H   -0.018608   0.391889   0.006469  -0.000534   0.000000  -0.000000
    28  H   -0.012410   0.389425  -0.002243  -0.000423  -0.000000   0.000000
    29  H   -0.075326  -0.014389   0.459759  -0.066156   0.000001  -0.000001
    30  H    0.014555  -0.000253  -0.047672   0.447472   0.000096   0.000143
              19         20         21         22         23         24
     1  O    0.036069   0.000026   0.000000  -0.000000   0.000008   0.000180
     2  S   -0.008125  -0.000001   0.000000   0.000003  -0.000105  -0.011937
     3  N   -0.012037  -0.000108   0.000011  -0.000115  -0.009782   0.000645
     4  C   -0.071484   0.015431  -0.001480   0.015485  -0.081190  -0.000042
     5  C    0.451843  -0.067831   0.014835  -0.001836   0.017062   0.000003
     6  C   -0.052818   0.458384  -0.068037   0.013724  -0.002237   0.000000
     7  C    0.013729  -0.074698   0.452038  -0.069036   0.014861  -0.000000
     8  C   -0.002301   0.014156  -0.070600   0.453428  -0.060161   0.000000
     9  C    0.013455  -0.001956   0.014501  -0.068822   0.451865   0.000001
    10  C   -0.000333   0.000000   0.000000  -0.000000  -0.000013  -0.069655
    11  C   -0.000100   0.000000   0.000000   0.000000  -0.000001   0.446564
    12  C   -0.000001  -0.000000   0.000000   0.000000   0.000000  -0.052096
    13  C    0.000001   0.000000   0.000000  -0.000000  -0.000000   0.013592
    14  C   -0.000000   0.000000   0.000000  -0.000000   0.000000  -0.000208
    15  C    0.000058  -0.000000   0.000000  -0.000000  -0.000000  -0.001773
    16  C    0.000525  -0.000001   0.000000  -0.000000   0.000024   0.013907
    17  O    0.000329   0.000000   0.000000  -0.000000  -0.000029   0.016472
    18  H   -0.000573   0.000011  -0.000001  -0.000024   0.003061  -0.000092
    19  H    0.604879  -0.012780  -0.000189   0.000013  -0.000086  -0.000010
    20  H   -0.012780   0.664967  -0.012009  -0.000258   0.000023  -0.000000
    21  H   -0.000189  -0.012009   0.672616  -0.012326  -0.000229  -0.000000
    22  H    0.000013  -0.000258  -0.012326   0.667473  -0.013051   0.000000
    23  H   -0.000086   0.000023  -0.000229  -0.013051   0.686655  -0.000000
    24  H   -0.000010  -0.000000  -0.000000   0.000000  -0.000000   0.623247
    25  H   -0.000000  -0.000000  -0.000000   0.000000   0.000000  -0.011220
    26  H    0.000000   0.000000  -0.000000   0.000000  -0.000000   0.000008
    27  H   -0.000000   0.000000  -0.000000   0.000000   0.000000  -0.000002
    28  H   -0.000000  -0.000000  -0.000000  -0.000000  -0.000000   0.000001
    29  H   -0.000002  -0.000000   0.000000   0.000000   0.000000   0.000020
    30  H   -0.000022   0.000006  -0.000001  -0.000001  -0.000054  -0.000188
              25         26         27         28         29         30
     1  O    0.000002   0.000000  -0.000000   0.000000  -0.000001   0.001641
     2  S   -0.000164  -0.000000  -0.000000  -0.000000  -0.000154  -0.008687
     3  N    0.000003   0.000000   0.000000  -0.000000   0.000005   0.000458
     4  C   -0.000000  -0.000000  -0.000000   0.000000  -0.000002   0.001952
     5  C    0.000000  -0.000000  -0.000000   0.000000   0.000005   0.002333
     6  C    0.000000   0.000000  -0.000000   0.000000  -0.000000   0.000500
     7  C   -0.000000   0.000000   0.000000  -0.000000   0.000000  -0.000055
     8  C    0.000000  -0.000000  -0.000000   0.000000  -0.000000  -0.000010
     9  C   -0.000000   0.000000  -0.000000  -0.000000   0.000000  -0.000234
    10  C    0.016848  -0.000004   0.000008   0.000117   0.016498  -0.078055
    11  C   -0.066709  -0.000540   0.000720  -0.000087  -0.002101   0.012974
    12  C    0.461345   0.007990  -0.007817  -0.004283   0.014717  -0.001542
    13  C   -0.078132  -0.018675  -0.018608  -0.012410  -0.075326   0.014555
    14  C   -0.012891   0.392461   0.391889   0.389425  -0.014389  -0.000253
    15  C    0.014432  -0.009666   0.006469  -0.002243   0.459759  -0.047672
    16  C   -0.001984   0.000890  -0.000534  -0.000423  -0.066156   0.447472
    17  O   -0.000007   0.000000   0.000000  -0.000000   0.000001   0.000096
    18  H   -0.000001  -0.000000  -0.000000   0.000000  -0.000001   0.000143
    19  H   -0.000000   0.000000  -0.000000  -0.000000  -0.000002  -0.000022
    20  H   -0.000000   0.000000   0.000000  -0.000000  -0.000000   0.000006
    21  H   -0.000000  -0.000000  -0.000000  -0.000000   0.000000  -0.000001
    22  H    0.000000   0.000000   0.000000  -0.000000   0.000000  -0.000001
    23  H    0.000000  -0.000000   0.000000  -0.000000   0.000000  -0.000054
    24  H   -0.011220   0.000008  -0.000002   0.000001   0.000020  -0.000188
    25  H    0.666547   0.000142   0.003931   0.000929  -0.000224   0.000022
    26  H    0.000142   0.622626  -0.021996  -0.017590   0.004941  -0.000003
    27  H    0.003931  -0.021996   0.616938  -0.017262   0.000176   0.000008
    28  H    0.000929  -0.017590  -0.017262   0.600537   0.000590   0.000007
    29  H   -0.000224   0.004941   0.000176   0.000590   0.667493  -0.012473
    30  H    0.000022  -0.000003   0.000008   0.000007  -0.012473   0.647869
 Mulliken charges:
               1
     1  O   -0.454711
     2  S    0.942523
     3  N   -0.312901
     4  C    0.126056
     5  C   -0.067170
     6  C   -0.006438
     7  C   -0.010518
     8  C   -0.006154
     9  C   -0.048749
    10  C   -0.070764
    11  C    0.002007
    12  C   -0.027996
    13  C   -0.076472
    14  C    0.030580
    15  C   -0.031646
    16  C    0.037874
    17  O   -0.484699
    18  H    0.169246
    19  H    0.039959
    20  H    0.016638
    21  H    0.010871
    22  H    0.015342
    23  H   -0.006621
    24  H    0.032584
    25  H    0.007133
    26  H    0.039417
    27  H    0.046080
    28  H    0.062692
    29  H    0.006624
    30  H    0.019213
 Sum of Mulliken charges =  -0.00000
 Mulliken charges with hydrogens summed into heavy atoms:
               1
     1  O   -0.454711
     2  S    0.942523
     3  N   -0.143654
     4  C    0.126056
     5  C   -0.027211
     6  C    0.010199
     7  C    0.000353
     8  C    0.009188
     9  C   -0.055369
    10  C   -0.070764
    11  C    0.034591
    12  C   -0.020863
    13  C   -0.076472
    14  C    0.178768
    15  C   -0.025022
    16  C    0.057087
    17  O   -0.484699
 Electronic spatial extent (au):  <R**2>=           5169.2946
 Charge=             -0.0000 electrons
 Dipole moment (field-independent basis, Debye):
    X=             -1.5235    Y=             -3.5724    Z=             -1.8873  Tot=              4.3180
 Quadrupole moment (field-independent basis, Debye-Ang):
   XX=            -87.9994   YY=           -111.8701   ZZ=           -105.0213
   XY=              0.4076   XZ=             -1.0097   YZ=             -2.9590
 Traceless Quadrupole moment (field-independent basis, Debye-Ang):
   XX=             13.6308   YY=            -10.2398   ZZ=             -3.3911
   XY=              0.4076   XZ=             -1.0097   YZ=             -2.9590
 Octapole moment (field-independent basis, Debye-Ang**2):
  XXX=            -46.5878  YYY=            -14.4968  ZZZ=            -11.6945  XYY=            -13.5163
  XXY=            -22.6247  XXZ=             -6.2470  XZZ=             19.2830  YZZ=             -0.3005
  YYZ=              3.1213  XYZ=             -0.7202
 Hexadecapole moment (field-independent basis, Debye-Ang**3):
 XXXX=          -4855.9927 YYYY=          -1310.6461 ZZZZ=           -488.1595 XXXY=            -74.9623
 XXXZ=             45.0969 YYYX=             45.1337 YYYZ=              9.7198 ZZZX=             -1.7841
 ZZZY=            -11.2745 XXYY=          -1015.8327 XXZZ=           -930.5533 YYZZ=           -300.7109
 XXYZ=             -1.2016 YYXZ=            -12.0820 ZZXY=            -10.8564
 N-N= 1.302494471657D+03 E-N=-5.193709838214D+03  KE= 1.097891590454D+03
   1 Symmetry operations used in ECPInt.
 ECPInt:  NShTT=   10296 NPrTT=   38220 LenC2=    9311 LenP2D=   24461.
 LDataN:  DoStor=T MaxTD1= 5 Len=  102
 Calling FoFJK, ICntrl=      2127 FMM=F ISym2X=0 I1Cent= 0 IOpClX= 0 NMat=1 NMatS=1 NMatT=0.
 ***** Axes restored to original set *****
 -------------------------------------------------------------------
 Center     Atomic                   Forces (Hartrees/Bohr)
 Number     Number              X              Y              Z
 -------------------------------------------------------------------
      1        8          -0.007949142    0.014823873   -0.053197319
      2       16          -0.032819342    0.024138499    0.017524356
      3        7          -0.003783877    0.012290129    0.029935389
      4        6           0.023402143   -0.013175743    0.003161445
      5        6          -0.011967093    0.004424482   -0.001592081
      6        6           0.005125399   -0.003665974   -0.004824050
      7        6           0.006676022   -0.004326687    0.002228321
      8        6           0.002986928   -0.001483014    0.000869983
      9        6          -0.013115530    0.007646544    0.000618007
     10        6           0.007206626    0.012698617    0.002852627
     11        6          -0.003271579    0.011639997   -0.000548780
     12        6           0.001853441   -0.002389500    0.001196498
     13        6          -0.004037967   -0.001209558   -0.002126017
     14        6          -0.002980751   -0.002731024    0.003245885
     15        6           0.001951995    0.002689074    0.000990365
     16        6           0.006383868   -0.008514323    0.002906839
     17        8           0.016612264   -0.046583406    0.020201483
     18        1           0.003555901    0.007973554   -0.016966461
     19        1          -0.001873591   -0.000255059    0.007758056
     20        1           0.001390185   -0.001659961    0.009975785
     21        1           0.008901523   -0.005571441    0.001615485
     22        1           0.005460731   -0.002576858   -0.008507340
     23        1          -0.002356559    0.002461613   -0.012591757
     24        1          -0.000946309    0.010284597   -0.001066724
     25        1          -0.009763828    0.006440551   -0.001520705
     26        1           0.000150430   -0.005911270    0.001358977
     27        1          -0.005641579    0.002643948    0.001272391
     28        1          -0.002114142   -0.001136744   -0.007283410
     29        1           0.001838900   -0.011524783    0.000944866
     30        1           0.009124932   -0.007440132    0.001567885
 -------------------------------------------------------------------
 Cartesian Forces:  Max     0.053197319 RMS     0.011743693

 GradGradGradGradGradGradGradGradGradGradGradGradGradGradGradGradGradGrad
 Berny optimization.
 FormGI is forming the generalized inverse of G from B-inverse, IUseBI=4.
 Internal  Forces:  Max     0.054884609 RMS     0.010485245
 Search for a local minimum.
 Step number   1 out of a maximum of  162
 All quantities printed in internal units (Hartrees-Bohrs-Radians)
 Mixed Optimization -- RFO/linear search
 Second derivative matrix not updated -- first step.
 ITU=  0
     Eigenvalues ---    0.00430   0.00926   0.01166   0.01611   0.01744
     Eigenvalues ---    0.01754   0.02002   0.02139   0.02245   0.02268
     Eigenvalues ---    0.02274   0.02300   0.02309   0.02340   0.02347
     Eigenvalues ---    0.02349   0.02370   0.02385   0.02387   0.02394
     Eigenvalues ---    0.02396   0.02422   0.02663   0.07312   0.07342
     Eigenvalues ---    0.09958   0.11610   0.12047   0.13424   0.15995
     Eigenvalues ---    0.15999   0.16000   0.16000   0.16000   0.16000
     Eigenvalues ---    0.16000   0.16000   0.16000   0.16000   0.16000
     Eigenvalues ---    0.16000   0.17363   0.21999   0.22000   0.22000
     Eigenvalues ---    0.22977   0.22979   0.23458   0.23997   0.24988
     Eigenvalues ---    0.24992   0.25000   0.25000   0.26477   0.33681
     Eigenvalues ---    0.34736   0.34766   0.34773   0.34774   0.36245
     Eigenvalues ---    0.36278   0.36287   0.36297   0.36334   0.36439
     Eigenvalues ---    0.36444   0.36511   0.36742   0.42618   0.43485
     Eigenvalues ---    0.44029   0.44265   0.46413   0.47105   0.47662
     Eigenvalues ---    0.47822   0.48059   0.49089   0.49247   0.49292
     Eigenvalues ---    0.50054   0.50112   0.76342   0.76721
 RFO step:  Lambda=-4.24063598D-02 EMin= 4.30281986D-03
 Linear search not attempted -- first point.
 Maximum step size (   0.300) exceeded in Quadratic search.
    -- Step size scaled by   0.906
 Iteration  1 RMS(Cart)=  0.18338575 RMS(Int)=  0.00680589
 Iteration  2 RMS(Cart)=  0.02557851 RMS(Int)=  0.00073071
 Iteration  3 RMS(Cart)=  0.00036505 RMS(Int)=  0.00072093
 Iteration  4 RMS(Cart)=  0.00000049 RMS(Int)=  0.00072093
 Variable       Old X    -DE/DX   Delta X   Delta X   Delta X     New X
                                 (Linear)    (Quad)   (Total)
    R1        2.83434  -0.05488   0.00000  -0.06145  -0.06145   2.77289
    R2        3.23106   0.00439   0.00000   0.01020   0.01020   3.24126
    R3        3.39294  -0.00334   0.00000  -0.00986  -0.00986   3.38308
    R4        2.83650  -0.05296   0.00000  -0.05957  -0.05957   2.77693
    R5        2.63668   0.02940   0.00000   0.05262   0.05262   2.68930
    R6        1.89001   0.01806   0.00000   0.03154   0.03154   1.92156
    R7        2.64423   0.00785   0.00000   0.01398   0.01398   2.65822
    R8        2.64481   0.00561   0.00000   0.00954   0.00954   2.65435
    R9        2.59652   0.02004   0.00000   0.03370   0.03371   2.63024
   R10        2.02936   0.00686   0.00000   0.01518   0.01518   2.04454
   R11        2.60838   0.01226   0.00000   0.02146   0.02146   2.62984
   R12        2.03649   0.01012   0.00000   0.02264   0.02264   2.05914
   R13        2.60899   0.01109   0.00000   0.01914   0.01913   2.62812
   R14        2.03619   0.01062   0.00000   0.02374   0.02374   2.05994
   R15        2.59864   0.01570   0.00000   0.02589   0.02588   2.62452
   R16        2.03634   0.01038   0.00000   0.02322   0.02322   2.05956
   R17        2.03291   0.01300   0.00000   0.02892   0.02892   2.06182
   R18        2.59621   0.01689   0.00000   0.02860   0.02860   2.62482
   R19        2.59643   0.01945   0.00000   0.03286   0.03287   2.62929
   R20        2.60811   0.01255   0.00000   0.02134   0.02134   2.62944
   R21        2.03700   0.01034   0.00000   0.02316   0.02316   2.06016
   R22        2.62179   0.01398   0.00000   0.02386   0.02385   2.64564
   R23        2.03401   0.01172   0.00000   0.02611   0.02611   2.06012
   R24        2.81171   0.01284   0.00000   0.03068   0.03068   2.84239
   R25        2.62247   0.01545   0.00000   0.02645   0.02644   2.64891
   R26        2.06045   0.00594   0.00000   0.01379   0.01379   2.07424
   R27        2.06057   0.00619   0.00000   0.01438   0.01438   2.07495
   R28        2.06044   0.00763   0.00000   0.01773   0.01773   2.07816
   R29        2.60781   0.01038   0.00000   0.01763   0.01763   2.62544
   R30        2.03393   0.01163   0.00000   0.02591   0.02591   2.05984
   R31        2.03562   0.01158   0.00000   0.02586   0.02586   2.06149
    A1        2.02822  -0.00680   0.00000  -0.02698  -0.03082   1.99740
    A2        1.84619   0.00082   0.00000   0.03029   0.03058   1.87677
    A3        2.12506  -0.00188   0.00000  -0.03343  -0.03623   2.08882
    A4        1.68181   0.02426   0.00000   0.09579   0.09523   1.77705
    A5        1.84822  -0.00936   0.00000  -0.04428  -0.04694   1.80127
    A6        1.87698   0.00051   0.00000   0.01814   0.01933   1.89631
    A7        2.13505   0.05159   0.00000   0.17824   0.17660   2.31165
    A8        1.80832  -0.01517   0.00000  -0.02985  -0.03141   1.77691
    A9        2.03005  -0.01914   0.00000  -0.05762  -0.06089   1.96916
   A10        2.15501   0.02275   0.00000   0.07118   0.07108   2.22608
   A11        2.07628  -0.02446   0.00000  -0.07521  -0.07523   2.00105
   A12        2.05165   0.00168   0.00000   0.00358   0.00353   2.05518
   A13        2.11556  -0.00440   0.00000  -0.01487  -0.01486   2.10070
   A14        2.07245   0.00627   0.00000   0.02572   0.02570   2.09815
   A15        2.09488  -0.00185   0.00000  -0.01068  -0.01069   2.08419
   A16        2.09655   0.00485   0.00000   0.01879   0.01881   2.11537
   A17        2.09281  -0.00379   0.00000  -0.01549  -0.01550   2.07731
   A18        2.09381  -0.00107   0.00000  -0.00331  -0.00331   2.09049
   A19        2.09170  -0.00527   0.00000  -0.01637  -0.01637   2.07533
   A20        2.09555   0.00303   0.00000   0.00996   0.00996   2.10551
   A21        2.09593   0.00224   0.00000   0.00642   0.00642   2.10235
   A22        2.09803   0.00059   0.00000   0.00191   0.00190   2.09992
   A23        2.09240   0.00077   0.00000   0.00382   0.00382   2.09622
   A24        2.09276  -0.00136   0.00000  -0.00572  -0.00572   2.08704
   A25        2.11288   0.00255   0.00000   0.00698   0.00696   2.11984
   A26        2.06946  -0.00017   0.00000   0.00146   0.00146   2.07092
   A27        2.10081  -0.00238   0.00000  -0.00841  -0.00840   2.09241
   A28        2.08876  -0.00292   0.00000  -0.01003  -0.01006   2.07870
   A29        2.09387  -0.00029   0.00000  -0.00190  -0.00193   2.09194
   A30        2.10055   0.00321   0.00000   0.01192   0.01191   2.11246
   A31        2.09287  -0.00374   0.00000  -0.01171  -0.01170   2.08116
   A32        2.07827   0.00261   0.00000   0.00917   0.00917   2.08744
   A33        2.11204   0.00113   0.00000   0.00253   0.00253   2.11457
   A34        2.10414   0.00240   0.00000   0.00747   0.00746   2.11160
   A35        2.09642  -0.00252   0.00000  -0.00966  -0.00966   2.08676
   A36        2.08262   0.00012   0.00000   0.00219   0.00220   2.08482
   A37        2.10273   0.00036   0.00000   0.00200   0.00201   2.10473
   A38        2.07179  -0.00058   0.00000  -0.00349  -0.00350   2.06829
   A39        2.10826   0.00023   0.00000   0.00158   0.00158   2.10985
   A40        1.94129   0.00105   0.00000   0.00554   0.00552   1.94681
   A41        1.93778   0.00104   0.00000   0.00515   0.00513   1.94291
   A42        1.93337   0.00029   0.00000  -0.00006  -0.00006   1.93331
   A43        1.87880  -0.00014   0.00000   0.00193   0.00190   1.88069
   A44        1.88483  -0.00106   0.00000  -0.00570  -0.00570   1.87913
   A45        1.88550  -0.00131   0.00000  -0.00745  -0.00745   1.87805
   A46        2.10456   0.00247   0.00000   0.00764   0.00764   2.11220
   A47        2.08305   0.00011   0.00000   0.00218   0.00218   2.08523
   A48        2.09558  -0.00257   0.00000  -0.00982  -0.00982   2.08576
   A49        2.09237  -0.00374   0.00000  -0.01176  -0.01175   2.08063
   A50        2.08233   0.00457   0.00000   0.01795   0.01794   2.10027
   A51        2.10847  -0.00082   0.00000  -0.00619  -0.00619   2.10228
    D1       -0.09973   0.01290   0.00000   0.10449   0.10402   0.00429
    D2       -2.43613   0.01002   0.00000   0.05659   0.05378  -2.38235
    D3       -2.03862   0.00021   0.00000   0.02314   0.02413  -2.01448
    D4        1.90817  -0.00268   0.00000  -0.02476  -0.02610   1.88206
    D5        2.31931  -0.00660   0.00000  -0.01926  -0.01627   2.30303
    D6       -0.01709  -0.00949   0.00000  -0.06716  -0.06651  -0.08361
    D7        1.97426  -0.00093   0.00000  -0.00082  -0.00202   1.97224
    D8       -1.16656  -0.00011   0.00000   0.01195   0.01067  -1.15589
    D9       -2.22228   0.00139   0.00000   0.01600   0.01665  -2.20563
   D10        0.92009   0.00221   0.00000   0.02876   0.02934   0.94942
   D11       -0.32126   0.00050   0.00000   0.00826   0.00893  -0.31233
   D12        2.82110   0.00132   0.00000   0.02103   0.02162   2.84273
   D13        0.21274  -0.00178   0.00000   0.01172   0.01272   0.22546
   D14       -2.95344  -0.00326   0.00000  -0.01000  -0.00904  -2.96248
   D15        2.45691   0.00895   0.00000   0.09610   0.09513   2.55204
   D16       -0.70926   0.00748   0.00000   0.07437   0.07337  -0.63589
   D17        3.11596  -0.00132   0.00000  -0.01568  -0.01651   3.09945
   D18       -0.05188  -0.00082   0.00000  -0.00872  -0.00930  -0.06118
   D19       -0.00137   0.00049   0.00000   0.00681   0.00682   0.00545
   D20        3.11397   0.00099   0.00000   0.01378   0.01404   3.12801
   D21       -3.11689   0.00033   0.00000   0.00862   0.00773  -3.10917
   D22        0.01561   0.00063   0.00000   0.01218   0.01143   0.02705
   D23        0.00157  -0.00073   0.00000  -0.01078  -0.01066  -0.00909
   D24        3.13407  -0.00043   0.00000  -0.00721  -0.00695   3.12712
   D25       -0.00033   0.00002   0.00000   0.00077   0.00064   0.00032
   D26        3.13460   0.00009   0.00000   0.00095   0.00097   3.13557
   D27       -3.11534  -0.00061   0.00000  -0.00683  -0.00705  -3.12239
   D28        0.01959  -0.00054   0.00000  -0.00664  -0.00673   0.01286
   D29        0.00188  -0.00031   0.00000  -0.00468  -0.00456  -0.00268
   D30        3.14001  -0.00007   0.00000  -0.00129  -0.00121   3.13880
   D31       -3.13304  -0.00037   0.00000  -0.00482  -0.00484  -3.13789
   D32        0.00509  -0.00013   0.00000  -0.00144  -0.00149   0.00359
   D33       -0.00169   0.00007   0.00000   0.00074   0.00079  -0.00089
   D34        3.14080   0.00024   0.00000   0.00373   0.00363  -3.13876
   D35       -3.13982  -0.00017   0.00000  -0.00266  -0.00256   3.14081
   D36        0.00267  -0.00000   0.00000   0.00034   0.00027   0.00295
   D37       -0.00007   0.00047   0.00000   0.00720   0.00699   0.00693
   D38       -3.13241   0.00016   0.00000   0.00352   0.00319  -3.12922
   D39        3.14063   0.00030   0.00000   0.00420   0.00418  -3.13837
   D40        0.00829  -0.00001   0.00000   0.00053   0.00038   0.00866
   D41       -3.13788   0.00062   0.00000   0.00921   0.00922  -3.12867
   D42        0.00726   0.00074   0.00000   0.01087   0.01087   0.01814
   D43        0.00293  -0.00021   0.00000  -0.00361  -0.00363  -0.00070
   D44       -3.13510  -0.00009   0.00000  -0.00195  -0.00198  -3.13708
   D45        3.13852  -0.00063   0.00000  -0.00935  -0.00941   3.12911
   D46       -0.00714  -0.00054   0.00000  -0.00816  -0.00820  -0.01534
   D47       -0.00229   0.00020   0.00000   0.00351   0.00354   0.00125
   D48        3.13523   0.00029   0.00000   0.00470   0.00475   3.13998
   D49        0.00468  -0.00009   0.00000  -0.00112  -0.00114   0.00355
   D50       -3.13672  -0.00004   0.00000  -0.00049  -0.00050  -3.13722
   D51       -3.14053  -0.00021   0.00000  -0.00279  -0.00280   3.13985
   D52        0.00125  -0.00016   0.00000  -0.00216  -0.00217  -0.00092
   D53       -3.12402   0.00018   0.00000   0.00240   0.00241  -3.12161
   D54       -0.01268   0.00041   0.00000   0.00588   0.00588  -0.00680
   D55        0.01739   0.00013   0.00000   0.00177   0.00177   0.01915
   D56        3.12872   0.00036   0.00000   0.00525   0.00524   3.13396
   D57       -2.74962  -0.00044   0.00000  -0.00243  -0.00245  -2.75206
   D58       -0.65784   0.00078   0.00000   0.00714   0.00716  -0.65068
   D59        1.43713   0.00002   0.00000   0.00112   0.00112   1.43825
   D60        0.42287  -0.00065   0.00000  -0.00589  -0.00591   0.41696
   D61        2.51465   0.00057   0.00000   0.00368   0.00370   2.51834
   D62       -1.67357  -0.00020   0.00000  -0.00234  -0.00234  -1.67592
   D63        0.01332  -0.00041   0.00000  -0.00596  -0.00596   0.00737
   D64       -3.12776  -0.00041   0.00000  -0.00597  -0.00596  -3.13373
   D65        3.12456  -0.00018   0.00000  -0.00247  -0.00247   3.12209
   D66       -0.01653  -0.00018   0.00000  -0.00248  -0.00248  -0.01900
   D67       -0.00597   0.00011   0.00000   0.00131   0.00132  -0.00465
   D68        3.13975   0.00001   0.00000   0.00004   0.00005   3.13980
   D69        3.13511   0.00011   0.00000   0.00132   0.00133   3.13644
   D70       -0.00235   0.00001   0.00000   0.00006   0.00006  -0.00229
         Item               Value     Threshold  Converged?
 Maximum Force            0.054885     0.000450     NO 
 RMS     Force            0.010485     0.000300     NO 
 Maximum Displacement     0.628724     0.001800     NO 
 RMS     Displacement     0.203287     0.001200     NO 
 Predicted change in Energy=-2.367534D-02
 GradGradGradGradGradGradGradGradGradGradGradGradGradGradGradGradGradGrad

                          Input orientation:                          
 ---------------------------------------------------------------------
 Center     Atomic      Atomic             Coordinates (Angstroms)
 Number     Number       Type             X           Y           Z
 ---------------------------------------------------------------------
      1          8           0        0.230136    1.381140    1.824430
      2         16           0       -0.091816    1.419969    0.393364
      3          7           0        1.043507    0.618001   -0.611529
      4          6           0        2.245950   -0.088604   -0.328505
      5          6           0        2.705489   -0.530832    0.925278
      6          6           0        3.888488   -1.257403    1.024707
      7          6           0        4.643415   -1.563721   -0.103540
      8          6           0        4.196677   -1.133774   -1.348423
      9          6           0        3.015330   -0.411832   -1.458344
     10          6           0       -1.563779    0.431780    0.144770
     11          6           0       -2.740166    1.058524   -0.245883
     12          6           0       -3.889842    0.295427   -0.424875
     13          6           0       -3.876632   -1.088411   -0.213085
     14          6           0       -5.118038   -1.908498   -0.433931
     15          6           0       -2.674098   -1.694026    0.176816
     16          6           0       -1.520075   -0.942252    0.359277
     17          8           0       -0.276639    2.715028   -0.276009
     18          1           0        1.144905    1.277698   -1.378658
     19          1           0        2.150604   -0.293487    1.823235
     20          1           0        4.227086   -1.584264    2.007481
     21          1           0        5.569924   -2.131129   -0.014729
     22          1           0        4.771224   -1.365086   -2.245201
     23          1           0        2.665417   -0.087977   -2.439726
     24          1           0       -2.746915    2.136025   -0.411583
     25          1           0       -4.815000    0.781354   -0.735399
     26          1           0       -5.082013   -2.852717    0.124607
     27          1           0       -6.017405   -1.365100   -0.115346
     28          1           0       -5.238208   -2.155084   -1.498887
     29          1           0       -2.644094   -2.771516    0.338848
     30          1           0       -0.589574   -1.422950    0.664467
 ---------------------------------------------------------------------
                    Distance matrix (angstroms):
                    1          2          3          4          5
     1  O    0.000000
     2  S    1.467348   0.000000
     3  N    2.679151   1.715202   0.000000
     4  C    3.295266   2.874376   1.423117   0.000000
     5  C    3.254456   3.451590   2.538460   1.406667   0.000000
     6  C    4.580940   4.838361   3.779990   2.428005   1.391861
     7  C    5.645025   5.618873   4.239965   2.823901   2.425053
     8  C    5.667912   5.286453   3.681604   2.436790   2.785120
     9  C    4.663546   4.054463   2.380281   1.404621   2.406619
    10  C    2.634515   1.790249   2.721141   3.874123   4.445500
    11  C    3.634964   2.748279   3.826739   5.117038   5.792480
    12  C    4.817921   4.044640   4.947405   6.148553   6.782626
    13  C    5.207273   4.580894   5.222869   6.204752   6.703065
    14  C    6.672696   6.084901   6.661784   7.586267   8.059342
    15  C    4.539367   4.051178   4.448319   5.199962   5.554564
    16  C    3.257002   2.760648   3.154173   3.922334   4.283109
    17  O    2.539275   1.469488   2.500576   3.771811   4.568565
    18  H    3.332758   2.165590   1.016843   2.044971   3.318784
    19  H    2.548053   3.163686   2.825694   2.163574   1.081923
    20  H    4.980235   5.503064   4.673795   3.408626   2.143861
    21  H    6.650704   6.695680   5.329384   3.913970   3.413143
    22  H    6.687685   6.194168   4.527405   3.417622   3.874942
    23  H    5.125615   4.231151   2.543876   2.152489   3.394257
    24  H    3.799005   2.865350   4.087992   5.466679   6.215146
    25  H    5.689100   4.897999   5.862092   7.125967   7.812646
    26  H    7.002419   6.574964   7.078826   7.845042   8.165624
    27  H    7.094810   6.567192   7.350875   8.364085   8.824273
    28  H    7.311094   6.545759   6.923679   7.851927   8.462688
    29  H    5.264286   4.907713   5.098082   5.617464   5.829460
    30  H    3.143304   2.898871   2.908711   3.287351   3.423645
                    6          7          8          9         10
     6  C    0.000000
     7  C    1.391649   0.000000
     8  C    2.396249   1.390741   0.000000
     9  C    2.764587   2.411017   1.388835   0.000000
    10  C    5.775366   6.524795   6.153327   4.924419   0.000000
    11  C    7.135612   7.836689   7.358094   6.062816   1.388993
    12  C    8.063187   8.739346   8.263615   7.017811   2.398678
    13  C    7.864971   8.533998   8.152874   7.036162   2.790758
    14  C    9.147079   9.773126   9.391506   8.333133   4.294712
    15  C    6.631523   7.324041   7.060296   6.057009   2.398517
    16  C    5.458450   6.212008   5.969437   4.914773   1.391362
    17  O    5.900877   6.522604   5.997824   4.691719   2.654620
    18  H    4.441864   4.683926   3.889656   2.521776   3.220773
    19  H    2.141734   3.397067   3.866770   3.395662   4.140036
    20  H    1.089648   2.151782   3.386142   3.854205   6.408452
    21  H    2.161261   1.090072   2.158533   3.400875   7.581798
    22  H    3.388675   2.154646   1.089872   2.147324   7.005209
    23  H    3.855614   3.398244   2.151602   1.091069   4.983561
    24  H    7.589919   8.270429   7.731929   6.386764   2.147974
    25  H    9.110719   9.765256   9.233300   7.953641   3.386345
    26  H    9.155605   9.813130   9.550846   8.604105   4.813138
    27  H    9.971862  10.662677  10.290843   9.181648   4.809493
    28  H    9.511621   9.997158   9.491193   8.435725   4.784861
    29  H    6.740739   7.400153   7.233617   6.389608   3.386127
    30  H    4.495578   5.290920   5.200341   4.303955   2.158515
                   11         12         13         14         15
    11  C    0.000000
    12  C    1.391441   0.000000
    13  C    2.429395   1.400014   0.000000
    14  C    3.806949   2.523061   1.504129   0.000000
    15  C    2.785600   2.407901   1.401741   2.528211   0.000000
    16  C    2.420318   2.786133   2.429469   3.808956   1.389325
    17  O    2.968817   4.351076   5.237371   6.696348   5.039108
    18  H    4.052775   5.217588   5.672113   7.090050   5.082856
    19  H    5.479855   6.472079   6.411402   7.780502   5.286772
    20  H    7.784894   8.679523   8.417068   9.664211   7.140709
    21  H    8.904207   9.774638   9.505999  10.698496   8.257823
    22  H    8.141998   9.004718   8.887714  10.068441   7.836274
    23  H    5.945397   6.868628   6.982636   8.241340   6.159230
    24  H    1.090189   2.166623   3.422375   4.688378   3.875669
    25  H    2.149741   1.090168   2.156240   2.723605   3.397514
    26  H    4.573764   3.410868   2.163274   1.097639   2.672704
    27  H    4.078148   2.716558   2.160791   1.098016   3.372129
    28  H    4.258815   2.996097   2.155218   1.099716   3.097614
    29  H    3.875609   3.397250   2.157921   2.731737   1.090019
    30  H    3.407564   3.877016   3.418590   4.684999   2.157898
                   16         17         18         19         20
    16  C    0.000000
    17  O    3.914769   0.000000
    18  H    3.879525   2.302724   0.000000
    19  H    4.004742   4.398806   3.705695   0.000000
    20  H    6.013204   6.631876   5.399687   2.451904   0.000000
    21  H    7.198708   7.598407   5.749887   4.294972   2.488294
    22  H    6.822210   6.782770   4.570055   4.956626   4.292951
    23  H    5.107108   4.603717   2.302802   4.298850   4.945234
    24  H    3.402227   2.540844   4.101002   5.906152   8.266143
    25  H    3.876294   4.954478   6.015031   7.498101   9.740578
    26  H    4.048746   7.365589   7.621984   7.857846   9.581937
    27  H    4.542030   7.044832   7.738154   8.463027  10.464417
    28  H    4.329924   7.059078   7.248625   8.312435  10.110007
    29  H    2.147101   6.007084   5.805383   5.597603   7.169869
[...]
     2  S    0.000034   0.000699   0.007009   0.309666  -0.039353   0.005651
     3  N    0.000868   0.013385  -0.040209  -0.063775  -0.000026  -0.001263
     4  C   -0.110797   0.008225   0.337153   0.046410   0.001679   0.000045
     5  C    0.048363  -0.089867   0.057192   0.003690   0.000317   0.000066
     6  C    0.414016   0.021743  -0.097281  -0.000065   0.000183  -0.000012
     7  C    4.962290   0.440738   0.034370  -0.000211  -0.000078   0.000025
     8  C    0.440738   4.930484   0.410901  -0.001700  -0.000560  -0.000104
     9  C    0.034370   0.410901   5.112644  -0.000615  -0.002114   0.000942
    10  C   -0.000211  -0.001700  -0.000615   5.295269   0.363707   0.019829
    11  C   -0.000078  -0.000560  -0.002114   0.363707   5.107588   0.402907
    12  C    0.000025  -0.000104   0.000942   0.019829   0.402907   5.070624
    13  C    0.000069   0.000045  -0.000476  -0.092179   0.020368   0.418913
    14  C   -0.000001  -0.000010  -0.000012  -0.004893   0.012726  -0.073588
    15  C   -0.000200   0.001954  -0.000779   0.050060  -0.051357  -0.006509
    16  C   -0.000452   0.000786  -0.012652   0.318570  -0.064107  -0.055830
    17  O   -0.000003  -0.000001  -0.000527  -0.096303   0.027105   0.002736
    18  H    0.000136   0.001086   0.008820  -0.000760   0.000188  -0.000170
    19  H    0.010168  -0.004416   0.011252   0.001818  -0.000177   0.000008
    20  H   -0.058286   0.010530  -0.003476  -0.000017   0.000001  -0.000000
    21  H    0.443834  -0.056007   0.012166   0.000003  -0.000001   0.000000
    22  H   -0.057009   0.438822  -0.054030   0.000009  -0.000000  -0.000002
    23  H    0.010296  -0.031245   0.439438   0.000792   0.000298   0.000343
    24  H   -0.000003   0.000007  -0.000127  -0.045422   0.432364  -0.048706
    25  H   -0.000000   0.000003   0.000001   0.011573  -0.050890   0.445125
    26  H    0.000000   0.000001   0.000000  -0.000065  -0.000399   0.007483
    27  H   -0.000000   0.000000  -0.000000  -0.000036   0.001915  -0.006000
    28  H   -0.000000  -0.000005   0.000011   0.000488  -0.001175  -0.004016
    29  H   -0.000003   0.000075  -0.000073   0.010534  -0.003716   0.013104
    30  H    0.000158   0.000084  -0.001405  -0.045423   0.008305  -0.002531
              13         14         15         16         17         18
     1  O   -0.000144  -0.000001   0.002946   0.019025  -0.043883   0.002668
     2  S   -0.000764  -0.000002   0.005312  -0.018204   0.584302  -0.016640
     3  N    0.000510   0.000004  -0.000458   0.008739  -0.048030   0.365745
     4  C   -0.001070  -0.000011   0.002774  -0.005788   0.001605  -0.051659
     5  C    0.000206   0.000005  -0.002394   0.001265  -0.000741   0.004593
     6  C   -0.000039  -0.000000   0.000419  -0.001549   0.000001  -0.000711
     7  C    0.000069  -0.000001  -0.000200  -0.000452  -0.000003   0.000136
     8  C    0.000045  -0.000010   0.001954   0.000786  -0.000001   0.001086
     9  C   -0.000476  -0.000012  -0.000779  -0.012652  -0.000527   0.008820
    10  C   -0.092179  -0.004893   0.050060   0.318570  -0.096303  -0.000760
    11  C    0.020368   0.012726  -0.051357  -0.064107   0.027105   0.000188
    12  C    0.418913  -0.073588  -0.006509  -0.055830   0.002736  -0.000170
    13  C    4.971512   0.299507   0.421851   0.030378   0.000154   0.000079
    14  C    0.299507   4.956690  -0.075149   0.015741   0.000001   0.000001
    15  C    0.421851  -0.075149   5.088403   0.362039  -0.000569  -0.000067
    16  C    0.030378   0.015741   0.362039   5.136483   0.008438   0.000744
    17  O    0.000154   0.000001  -0.000569   0.008438   8.022355   0.004383
    18  H    0.000079   0.000001  -0.000067   0.000744   0.004383   0.429308
    19  H    0.000016   0.000000  -0.000160  -0.000429  -0.000131  -0.000061
    20  H   -0.000000  -0.000000   0.000008  -0.000010  -0.000000   0.000013
    21  H   -0.000001   0.000000  -0.000001  -0.000016   0.000000  -0.000002
    22  H   -0.000009  -0.000000   0.000026   0.000019  -0.000000  -0.000040
    23  H   -0.000004   0.000002  -0.000302  -0.000128  -0.000175   0.003596
    24  H    0.008590   0.000013  -0.002690   0.008582   0.013521   0.000354
    25  H   -0.062289  -0.005982   0.012776  -0.003951  -0.000027  -0.000010
    26  H   -0.056004   0.429511  -0.006107   0.002227  -0.000000  -0.000000
    27  H   -0.052024   0.425807   0.006392  -0.000546   0.000000  -0.000000
    28  H   -0.018667   0.390034  -0.004045  -0.001212  -0.000000  -0.000000
    29  H   -0.061893  -0.007704   0.441862  -0.046699   0.000003  -0.000000
    30  H    0.008962  -0.000024  -0.048936   0.434813   0.000386  -0.000096
              19         20         21         22         23         24
     1  O    0.008877  -0.000036   0.000001  -0.000000  -0.000016   0.000529
     2  S   -0.002954  -0.000003   0.000003  -0.000007  -0.000110  -0.004472
     3  N   -0.001410  -0.000118   0.000008  -0.000357   0.002830   0.000293
     4  C   -0.044475   0.013913  -0.003949   0.015180  -0.080095  -0.000185
     5  C    0.434357  -0.057681   0.011290  -0.003854   0.011966  -0.000017
     6  C   -0.048876   0.446224  -0.056213   0.010702  -0.003850   0.000008
     7  C    0.010168  -0.058286   0.443834  -0.057009   0.010296  -0.000003
     8  C   -0.004416   0.010530  -0.056007   0.438822  -0.031245   0.000007
     9  C    0.011252  -0.003476   0.012166  -0.054030   0.439438  -0.000127
    10  C    0.001818  -0.000017   0.000003   0.000009   0.000792  -0.045422
    11  C   -0.000177   0.000001  -0.000001  -0.000000   0.000298   0.432364
    12  C    0.000008  -0.000000   0.000000  -0.000002   0.000343  -0.048706
    13  C    0.000016  -0.000000  -0.000001  -0.000009  -0.000004   0.008590
    14  C    0.000000  -0.000000   0.000000  -0.000000   0.000002   0.000013
    15  C   -0.000160   0.000008  -0.000001   0.000026  -0.000302  -0.002690
    16  C   -0.000429  -0.000010  -0.000016   0.000019  -0.000128   0.008582
    17  O   -0.000131  -0.000000   0.000000  -0.000000  -0.000175   0.013521
    18  H   -0.000061   0.000013  -0.000002  -0.000040   0.003596   0.000354
    19  H    0.475453  -0.006473  -0.000016   0.000015   0.000011  -0.000005
    20  H   -0.006473   0.534783  -0.006843  -0.000126   0.000029   0.000000
    21  H   -0.000016  -0.006843   0.538789  -0.006646  -0.000100  -0.000000
    22  H    0.000015  -0.000126  -0.006646   0.541815  -0.007504   0.000000
    23  H    0.000011   0.000029  -0.000100  -0.007504   0.538898  -0.000070
    24  H   -0.000005   0.000000  -0.000000   0.000000  -0.000070   0.477330
    25  H   -0.000000   0.000000   0.000000   0.000000  -0.000003  -0.005666
    26  H   -0.000000   0.000000  -0.000000  -0.000000   0.000000   0.000004
    27  H   -0.000000  -0.000000  -0.000000   0.000000  -0.000000  -0.000016
    28  H   -0.000000  -0.000000   0.000000   0.000000   0.000001  -0.000002
    29  H   -0.000007   0.000001  -0.000000   0.000000  -0.000003   0.000030
    30  H   -0.000075  -0.000019  -0.000004   0.000003  -0.000045  -0.000067
              25         26         27         28         29         30
     1  O    0.000004   0.000000  -0.000000   0.000000  -0.000010   0.008519
     2  S   -0.000114  -0.000001  -0.000001   0.000001  -0.000088  -0.004319
     3  N    0.000015   0.000000   0.000000  -0.000001   0.000023   0.000459
     4  C   -0.000007  -0.000002   0.000000   0.000004   0.000052  -0.000233
     5  C   -0.000002  -0.000000  -0.000000   0.000001  -0.000103   0.000387
     6  C    0.000000   0.000000   0.000000  -0.000000   0.000053   0.000246
     7  C   -0.000000   0.000000  -0.000000  -0.000000  -0.000003   0.000158
     8  C    0.000003   0.000001   0.000000  -0.000005   0.000075   0.000084
     9  C    0.000001   0.000000  -0.000000   0.000011  -0.000073  -0.001405
    10  C    0.011573  -0.000065  -0.000036   0.000488   0.010534  -0.045423
    11  C   -0.050890  -0.000399   0.001915  -0.001175  -0.003716   0.008305
    12  C    0.445125   0.007483  -0.006000  -0.004016   0.013104  -0.002531
    13  C   -0.062289  -0.056004  -0.052024  -0.018667  -0.061893   0.008962
    14  C   -0.005982   0.429511   0.425807   0.390034  -0.007704  -0.000024
    15  C    0.012776  -0.006107   0.006392  -0.004045   0.441862  -0.048936
    16  C   -0.003951   0.002227  -0.000546  -0.001212  -0.046699   0.434813
    17  O   -0.000027  -0.000000   0.000000  -0.000000   0.000003   0.000386
    18  H   -0.000010  -0.000000  -0.000000  -0.000000  -0.000000  -0.000096
    19  H   -0.000000  -0.000000  -0.000000  -0.000000  -0.000007  -0.000075
    20  H    0.000000   0.000000  -0.000000  -0.000000   0.000001  -0.000019
    21  H    0.000000  -0.000000  -0.000000   0.000000  -0.000000  -0.000004
    22  H    0.000000  -0.000000   0.000000   0.000000   0.000000   0.000003
    23  H   -0.000003   0.000000  -0.000000   0.000001  -0.000003  -0.000045
    24  H   -0.005666   0.000004  -0.000016  -0.000002   0.000030  -0.000067
    25  H    0.532908   0.000047   0.000774   0.000319  -0.000049   0.000025
    26  H    0.000047   0.538108  -0.022834  -0.022821   0.001170  -0.000023
    27  H    0.000774  -0.022834   0.540378  -0.025626   0.000080   0.000006
    28  H    0.000319  -0.022821  -0.025626   0.549735   0.000260  -0.000001
    29  H   -0.000049   0.001170   0.000080   0.000260   0.533906  -0.005566
    30  H    0.000025  -0.000023   0.000006  -0.000001  -0.005566   0.481086
 Mulliken charges:
               1
     1  O   -0.461270
     2  S    0.857399
     3  N   -0.316768
     4  C    0.202585
     5  C   -0.273280
     6  C   -0.071505
     7  C   -0.138442
     8  C   -0.095754
     9  C   -0.219195
    10  C   -0.001528
    11  C   -0.172233
    12  C   -0.188875
    13  C    0.164402
    14  C   -0.362666
    15  C   -0.197099
    16  C   -0.136278
    17  O   -0.474599
    18  H    0.248503
    19  H    0.167690
    20  H    0.127584
    21  H    0.123703
    22  H    0.122993
    23  H    0.115149
    24  H    0.165824
    25  H    0.125419
    26  H    0.129705
    27  H    0.131731
    28  H    0.136717
    29  H    0.124762
    30  H    0.165326
 Sum of Mulliken charges =  -0.00000
 Mulliken charges with hydrogens summed into heavy atoms:
               1
     1  O   -0.461270
     2  S    0.857399
     3  N   -0.068265
     4  C    0.202585
     5  C   -0.105590
     6  C    0.056079
     7  C   -0.014739
     8  C    0.027239
     9  C   -0.104046
    10  C   -0.001528
    11  C   -0.006409
    12  C   -0.063456
    13  C    0.164402
    14  C    0.035487
    15  C   -0.072337
    16  C    0.029048
    17  O   -0.474599
 Electronic spatial extent (au):  <R**2>=           4363.2227
 Charge=             -0.0000 electrons
 Dipole moment (field-independent basis, Debye):
    X=             -1.7865    Y=             -5.4233    Z=             -1.8082  Tot=              5.9894
 Quadrupole moment (field-independent basis, Debye-Ang):
   XX=            -97.2169   YY=           -113.9525   ZZ=           -100.9830
   XY=              0.3658   XZ=              2.8913   YZ=             -4.3930
 Traceless Quadrupole moment (field-independent basis, Debye-Ang):
   XX=              6.8339   YY=             -9.9018   ZZ=              3.0678
   XY=              0.3658   XZ=              2.8913   YZ=             -4.3930
 Octapole moment (field-independent basis, Debye-Ang**2):
  XXX=            -40.6159  YYY=            -42.4032  ZZZ=            -10.7831  XYY=              2.8524
  XXY=            -16.1664  XXZ=              5.8415  XZZ=              3.6406  YZZ=             -1.2343
  YYZ=             -1.4461  XYZ=             -0.7665
 Hexadecapole moment (field-independent basis, Debye-Ang**3):
 XXXX=          -3333.2025 YYYY=          -1988.1480 ZZZZ=           -580.0441 XXXY=             50.3702
 XXXZ=            122.9764 YYYX=            -16.8973 YYYZ=             22.2982 ZZZX=              9.7393
 ZZZY=            -26.8461 XXYY=           -818.5373 XXZZ=           -643.7240 YYZZ=           -409.3673
 XXYZ=            -33.7956 YYXZ=            -12.8289 ZZXY=             -0.6677
 N-N= 1.331871953763D+03 E-N=-5.259108652626D+03  KE= 1.102023506763D+03
 Breneman (CHELPG) radii used.
 Read replacement radii for each type of atom:
 Atom Element Radius
    1     8    1.70
    2    16    2.00
    3     7    1.70
    4     6    1.50
    5     6    1.50
    6     6    1.50
    7     6    1.50
    8     6    1.50
    9     6    1.50
   10     6    1.50
   11     6    1.50
   12     6    1.50
   13     6    1.50
   14     6    1.50
   15     6    1.50
   16     6    1.50
   17     8    1.70
   18     1    1.45
   19     1    1.45
   20     1    1.45
   21     1    1.45
   22     1    1.45
   23     1    1.45
   24     1    1.45
   25     1    1.45
   26     1    1.45
   27     1    1.45
   28     1    1.45
   29     1    1.45
   30     1    1.45
 Generate Potential Derived Charges using the Breneman model, NDens= 1.
 Grid spacing= 0.300 Box extension= 2.800
 NStep X,Y,Z=   50     41     34   Total possible points=       69700
 Number of Points to Fit=   18740

 **********************************************************************

            Electrostatic Properties Using The SCF Density.

 **********************************************************************

       Atomic Center    1 is at   0.761283  2.062754  1.471919
       Atomic Center    2 is at   0.211957  1.959170  0.134395
       Atomic Center    3 is at   1.389262  1.265291 -0.843791
       Atomic Center    4 is at   1.947899  0.001608 -0.532242
       Atomic Center    5 is at   2.675205 -0.172061  0.650652
       Atomic Center    6 is at   3.207271 -1.422300  0.954346
       Atomic Center    7 is at   3.046107 -2.496101  0.078431
       Atomic Center    8 is at   2.335008 -2.316296 -1.106749
       Atomic Center    9 is at   1.774682 -1.076829 -1.406229
       Atomic Center   10 is at  -1.098585  0.756099  0.174926
       Atomic Center   11 is at  -2.132918  0.845102 -0.755248
       Atomic Center   12 is at  -3.123022 -0.131684 -0.760419
       Atomic Center   13 is at  -3.092111 -1.199972  0.146259
       Atomic Center   14 is at  -4.150575 -2.269615  0.107745
       Atomic Center   15 is at  -2.044687 -1.257904  1.073726
       Atomic Center   16 is at  -1.048362 -0.286627  1.098237
       Atomic Center   17 is at  -0.243260  3.115605 -0.613341
       Atomic Center   18 is at   1.148574  1.409299 -1.820603
       Atomic Center   19 is at   2.807391  0.677027  1.321196
       Atomic Center   20 is at   3.769778 -1.553039  1.881326
       Atomic Center   21 is at   3.477329 -3.470171  0.317698
       Atomic Center   22 is at   2.202005 -3.149561 -1.800004
       Atomic Center   23 is at   1.193755 -0.941846 -2.322158
       Atomic Center   24 is at  -2.163780  1.685611 -1.451143
       Atomic Center   25 is at  -3.942993 -0.059180 -1.479420
       Atomic Center   26 is at  -4.253368 -2.770311  1.080413
       Atomic Center   27 is at  -5.129594 -1.855704 -0.172600
       Atomic Center   28 is at  -3.893190 -3.040391 -0.636663
       Atomic Center   29 is at  -2.010235 -2.075945  1.797349
       Atomic Center   30 is at  -0.241488 -0.326943  1.831597
   18740 points will be used for fitting atomic charges
 Fitting point charges to electrostatic potential
 Charges from ESP fit, RMS=   0.00368 RRMS=   0.22454:
 ESP charges:
               1
     1  O   -0.463532
     2  S    0.908986
     3  N   -0.623914
     4  C    0.383413
     5  C   -0.212935
     6  C   -0.044193
     7  C   -0.156618
     8  C   -0.052443
     9  C   -0.251564
    10  C   -0.054740
    11  C   -0.068882
    12  C   -0.219825
    13  C    0.260460
    14  C   -0.289770
    15  C   -0.246533
    16  C   -0.031911
    17  O   -0.480678
    18  H    0.350111
    19  H    0.157432
    20  H    0.092608
    21  H    0.106768
    22  H    0.102775
    23  H    0.107180
    24  H    0.113024
    25  H    0.127811
    26  H    0.090481
    27  H    0.087096
    28  H    0.079554
    29  H    0.130984
    30  H    0.098855
 Sum of ESP charges =   0.00000
 ESP charges with hydrogens summed into heavy atoms:
               1
     1  O   -0.463532
     2  S    0.908986
     3  N   -0.273803
     4  C    0.383413
     5  C   -0.055503
     6  C    0.048415
     7  C   -0.049850
     8  C    0.050332
     9  C   -0.144384
    10  C   -0.054740
    11  C    0.044142
    12  C   -0.092014
    13  C    0.260460
    14  C   -0.032639
    15  C   -0.115549
    16  C    0.066944
    17  O   -0.480678
 Charge=   0.00000 Dipole=    -1.6831    -5.2817    -1.7632 Tot=     5.8170
 -----------------------------------------------------------------

              Electrostatic Properties (Atomic Units)

 -----------------------------------------------------------------
    Center     Electric         -------- Electric Field --------
               Potential          X             Y             Z
 -----------------------------------------------------------------
    1 Atom    -22.373292
    2 Atom    -59.026693
    3 Atom    -18.345484
    4 Atom    -14.712536
    5 Atom    -14.763141
    6 Atom    -14.758945
    7 Atom    -14.761241
    8 Atom    -14.756641
    9 Atom    -14.755740
   10 Atom    -14.731983
   11 Atom    -14.744827
   12 Atom    -14.752113
   13 Atom    -14.736817
   14 Atom    -14.755003
   15 Atom    -14.752957
   16 Atom    -14.745698
   17 Atom    -22.373181
   18 Atom     -1.001876
   19 Atom     -1.101875
   20 Atom     -1.099683
   21 Atom     -1.099238
   22 Atom     -1.095996
   23 Atom     -1.087675
   24 Atom     -1.086134
   25 Atom     -1.090161
   26 Atom     -1.100760
   27 Atom     -1.100062
   28 Atom     -1.097365
   29 Atom     -1.091527
   30 Atom     -1.088666
 -----------------------------------------------------------------
 Unable to Open any file for archive entry.
 1\1\GINC-NOTCH454\SP\RwB97XD\def2TZVP\C13H13N1O2S1\U1366379\17-Feb-202
 6\0\\#N Guess=Read Geom=Check Integral(Ultrafine) Density Pop=(ChelpG,
 ReadRadii) NMR wB97XD def2TZVP\\prod_5l_17\\0,1\O,0,0.4468888301,1.579
 3751089,2.2384849758\S,0,0.0138632327,1.8933591537,0.8911308829\N,0,1.
 3125129141,1.6088592629,-0.1369392685\C,0,1.9363535593,0.3385643016,-0
 .1935762433\C,0,2.578924981,-0.1789908563,0.9367382205\C,0,3.175979798
 7,-1.4352002317,0.8743955912\C,0,3.1638761951,-2.1708076603,-0.3109243
 822\C,0,2.537146315,-1.6459981478,-1.439830538\C,0,1.912457789,-0.4025
 812284,-1.379753612\C,0,-1.2036587079,0.6862703757,0.4145602518\C,0,-2
 .1651598937,1.0279566253,-0.5350483242\C,0,-3.0771691162,0.0635796977,
 -0.9505738576\C,0,-3.0392873628,-1.2394559534,-0.4358684765\C,0,-4.009
 79208,-2.2836648783,-0.9193080696\C,0,-2.066845724,-1.5503416071,0.522
 4403744\C,0,-1.1497709545,-0.5971972139,0.9550321695\O,0,-0.4648708746
 ,3.2091228149,0.5126434924\H,0,1.1396535531,2.05267164,-1.0347044743\H
 ,0,2.5949564936,0.4100810356,1.8536839914\H,0,3.6717328467,-1.83605336
 52,1.7611561661\H,0,3.6454245542,-3.1496597661,-0.3553505567\H,0,2.520
 9290222,-2.2127607738,-2.373179277\H,0,1.397207934,-0.0021343458,-2.25
 65563305\H,0,-2.2028458463,2.0471796885,-0.9242025556\H,0,-3.840996856
 1,0.3302938183,-1.6854226276\H,0,-4.1518232269,-3.078102189,-0.1736243
 564\H,0,-4.9914630489,-1.8445498829,-1.1471103606\H,0,-3.6384667248,-2
 .7575351921,-1.8423740222\H,0,-2.0294315849,-2.5572272128,0.9452728571
 \H,0,-0.4024660169,-0.838773018,1.7124383597\\Version=ES64L-G16RevC.01
 \State=1-A\HF=-1106.6304399\RMSD=4.005e-09\Dipole=-0.4855939,-1.814001
 4,-1.4234889\Quadrupole=4.5812552,-4.3411044,-0.2401509,0.5082347,2.89
 20882,-5.4222114\PG=C01 [X(C13H13N1O2S1)]\\@
 The archive entry for this job was punched.


 SI MONUMENTUM REQUIRIS, CIRCUMSPICE
     -- FROM SIR CHRISTOPHER WREN'S TOMBSTONE
 Job cpu time:       0 days  1 hours 23 minutes 25.5 seconds.
 Elapsed time:       0 days  0 hours 10 minutes 43.8 seconds.
 File lengths (MBytes):  RWF=    226 Int=      0 D2E=      0 Chk=     34 Scr=      2
 Normal termination of Gaussian 16 at Tue Feb 17 17:00:16 2026.
