 Entering Gaussian System, Link 0=g16
 Input=prod_5e_5.com
 Output=prod_5e_5.log
 Initial command:
 /uufs/chpc.utah.edu/sys/installdir/gaussian16/C01/AVX/g16/l1.exe "/scratch/general/vast/u1366379/GAUSSSCRDIR/11028650-notchpeak.peaks/Gau-1651767.inp" -scrdir="/scratch/general/vast/u1366379/GAUSSSCRDIR/11028650-notchpeak.peaks/"
 Entering Link 1 = /uufs/chpc.utah.edu/sys/installdir/gaussian16/C01/AVX/g16/l1.exe PID=   1651773.
  
 Copyright (c) 1988-2019, Gaussian, Inc.  All Rights Reserved.
  
 This is part of the Gaussian(R) 16 program.  It is based on
 the Gaussian(R) 09 system (copyright 2009, Gaussian, Inc.),
 the Gaussian(R) 03 system (copyright 2003, Gaussian, Inc.),
 the Gaussian(R) 98 system (copyright 1998, Gaussian, Inc.),
 the Gaussian(R) 94 system (copyright 1995, Gaussian, Inc.),
 the Gaussian 92(TM) system (copyright 1992, Gaussian, Inc.),
 the Gaussian 90(TM) system (copyright 1990, Gaussian, Inc.),
 the Gaussian 88(TM) system (copyright 1988, Gaussian, Inc.),
 the Gaussian 86(TM) system (copyright 1986, Carnegie Mellon
 University), and the Gaussian 82(TM) system (copyright 1983,
 Carnegie Mellon University). Gaussian is a federally registered
 trademark of Gaussian, Inc.
  
 This software contains proprietary and confidential information,
 including trade secrets, belonging to Gaussian, Inc.
  
 This software is provided under written license and may be
 used, copied, transmitted, or stored only in accord with that
 written license.
  
 The following legend is applicable only to US Government
 contracts under FAR:
  
                    RESTRICTED RIGHTS LEGEND
  
 Use, reproduction and disclosure by the US Government is
 subject to restrictions as set forth in subparagraphs (a)
 and (c) of the Commercial Computer Software - Restricted
 Rights clause in FAR 52.227-19.
  
 Gaussian, Inc.
 340 Quinnipiac St., Bldg. 40, Wallingford CT 06492
  
  
 ---------------------------------------------------------------
 Warning -- This program may not be used in any manner that
 competes with the business of Gaussian, Inc. or will provide
 assistance to any competitor of Gaussian, Inc.  The licensee
 of this program is prohibited from giving any competitor of
 Gaussian, Inc. access to this program.  By using this program,
 the user acknowledges that Gaussian, Inc. is engaged in the
 business of creating and licensing software in the field of
 computational chemistry and represents and warrants to the
 licensee that it is not a competitor of Gaussian, Inc. and that
 it will not use this program in any manner prohibited above.
 ---------------------------------------------------------------
  

 Cite this work as:
 Gaussian 16, Revision C.01,
 M. J. Frisch, G. W. Trucks, H. B. Schlegel, G. E. Scuseria, 
 M. A. Robb, J. R. Cheeseman, G. Scalmani, V. Barone, 
 G. A. Petersson, H. Nakatsuji, X. Li, M. Caricato, A. V. Marenich, 
 J. Bloino, B. G. Janesko, R. Gomperts, B. Mennucci, H. P. Hratchian, 
 J. V. Ortiz, A. F. Izmaylov, J. L. Sonnenberg, D. Williams-Young, 
 F. Ding, F. Lipparini, F. Egidi, J. Goings, B. Peng, A. Petrone, 
 T. Henderson, D. Ranasinghe, V. G. Zakrzewski, J. Gao, N. Rega, 
 G. Zheng, W. Liang, M. Hada, M. Ehara, K. Toyota, R. Fukuda, 
 J. Hasegawa, M. Ishida, T. Nakajima, Y. Honda, O. Kitao, H. Nakai, 
 T. Vreven, K. Throssell, J. A. Montgomery, Jr., J. E. Peralta, 
 F. Ogliaro, M. J. Bearpark, J. J. Heyd, E. N. Brothers, K. N. Kudin, 
 V. N. Staroverov, T. A. Keith, R. Kobayashi, J. Normand, 
 K. Raghavachari, A. P. Rendell, J. C. Burant, S. S. Iyengar, 
 J. Tomasi, M. Cossi, J. M. Millam, M. Klene, C. Adamo, R. Cammi, 
 J. W. Ochterski, R. L. Martin, K. Morokuma, O. Farkas, 
 J. B. Foresman, and D. J. Fox, Gaussian, Inc., Wallingford CT, 2019.
 
 ******************************************
 Gaussian 16:  ES64L-G16RevC.01  3-Jul-2019
                17-Feb-2026 
 ******************************************
 %NProcShared=8
 Will use up to    8 processors via shared memory.
 %Mem=8GB
 %chk=prod_5e_5.chk
 ------------------------------------------------------
 #N OPT FREQ=NORAMAN Integral(Ultrafine) wB97XD def2SVP
 ------------------------------------------------------
 1/18=20,19=15,26=4,38=1/1,3;
 2/9=110,12=2,17=6,18=5,40=1/2;
 3/5=43,7=101,11=2,25=1,30=1,71=1,74=-58,75=-5/1,2,3;
 4//1;
 5/5=2,38=5/2;
 6/7=2,8=2,9=2,10=2,28=1/1;
 7//1,2,3,16;
 1/18=20,19=15,26=4/3(2);
 2/9=110/2;
 99//99;
 2/9=110/2;
 3/5=43,7=101,11=2,25=1,30=1,71=1,74=-58,75=-5/1,2,3;
 4/5=5,16=3,69=1/1;
 5/5=2,38=5/2;
 7//1,2,3,16;
 1/18=20,19=15,26=4/3(-5);
 2/9=110/2;
 6/7=2,8=2,9=2,10=2,19=2,28=1/1;
 99/9=1/99;
 ---------
 prod_5e_5
 ---------
 Symbolic Z-matrix:
 Charge =  0 Multiplicity = 1
 C                     5.30141  -0.19855  -0.39566 
 O                     4.29318  -0.89213   0.29791 
 C                     3.00824  -0.33388   0.18299 
 C                     1.96393  -0.97858   0.84675 
 C                     0.6779   -0.49966   0.78321 
 C                     2.70499   0.81696  -0.54642 
 C                     1.41708   1.29562  -0.60876 
 C                     0.37741   0.64527   0.05087 
 N                    -0.9692    1.13542  -0.003 
 C                    -1.18171   2.57608  -0.13884 
 C                    -2.08681   0.24513  -0.03064 
 C                    -1.99446  -0.97614  -0.69956 
 C                    -3.06097  -1.8452   -0.73492 
 C                    -4.24318  -1.51634  -0.10089 
 C                    -4.35251  -0.31395   0.57045 
 C                    -3.28832   0.55897   0.60669 
 H                     5.07674  -0.18484  -1.46275 
 H                     5.38708   0.81755  -0.00892 
 H                     6.24832  -0.71665  -0.2407 
 H                     2.19228  -1.86365   1.41358 
 H                    -0.11491  -1.00139   1.30988 
 H                     3.48692   1.33749  -1.06855 
 H                     1.20118   2.17818  -1.1843 
 H                    -2.20979   2.8477    0.08657 
 H                    -0.52521   3.11542   0.54143 
 H                    -0.96817   2.88824  -1.15918 
 H                    -1.07558  -1.2233   -1.2019 
 H                    -2.97405  -2.78292  -1.25911 
 H                    -5.07775  -2.19766  -0.12765 
 H                    -5.2724   -0.06107   1.07208 
 H                    -3.36738   1.47727   1.16086 
 

 GradGradGradGradGradGradGradGradGradGradGradGradGradGradGradGradGradGrad
 Berny optimization.
 Initialization pass.
                           ----------------------------
                           !    Initial Parameters    !
                           ! (Angstroms and Degrees)  !
 --------------------------                            --------------------------
 ! Name  Definition              Value          Derivative Info.                !
 --------------------------------------------------------------------------------
 ! R1    R(1,2)                  1.4066         estimate D2E/DX2                !
 ! R2    R(1,17)                 1.0906         estimate D2E/DX2                !
 ! R3    R(1,18)                 1.0906         estimate D2E/DX2                !
 ! R4    R(1,19)                 1.0904         estimate D2E/DX2                !
 ! R5    R(2,3)                  1.4057         estimate D2E/DX2                !
 ! R6    R(3,4)                  1.3953         estimate D2E/DX2                !
 ! R7    R(3,6)                  1.3959         estimate D2E/DX2                !
 ! R8    R(4,5)                  1.3738         estimate D2E/DX2                !
 ! R9    R(4,20)                 1.0755         estimate D2E/DX2                !
 ! R10   R(5,8)                  1.3919         estimate D2E/DX2                !
 ! R11   R(5,21)                 1.0759         estimate D2E/DX2                !
 ! R12   R(6,7)                  1.3754         estimate D2E/DX2                !
 ! R13   R(6,22)                 1.0747         estimate D2E/DX2                !
 ! R14   R(7,8)                  1.3925         estimate D2E/DX2                !
 ! R15   R(7,23)                 1.0755         estimate D2E/DX2                !
 ! R16   R(8,9)                  1.4341         estimate D2E/DX2                !
 ! R17   R(9,10)                 1.4626         estimate D2E/DX2                !
 ! R18   R(9,11)                 1.4291         estimate D2E/DX2                !
 ! R19   R(10,24)                1.087          estimate D2E/DX2                !
 ! R20   R(10,25)                1.0884         estimate D2E/DX2                !
 ! R21   R(10,26)                1.0882         estimate D2E/DX2                !
 ! R22   R(11,12)                1.3955         estimate D2E/DX2                !
 ! R23   R(11,16)                1.3958         estimate D2E/DX2                !
 ! R24   R(12,13)                1.3762         estimate D2E/DX2                !
 ! R25   R(12,27)                1.076          estimate D2E/DX2                !
 ! R26   R(13,14)                1.3812         estimate D2E/DX2                !
 ! R27   R(13,28)                1.0778         estimate D2E/DX2                !
 ! R28   R(14,15)                1.3814         estimate D2E/DX2                !
 ! R29   R(14,29)                1.0777         estimate D2E/DX2                !
 ! R30   R(15,16)                1.3769         estimate D2E/DX2                !
 ! R31   R(15,30)                1.0779         estimate D2E/DX2                !
 ! R32   R(16,31)                1.0755         estimate D2E/DX2                !
 ! A1    A(2,1,17)             109.9372         estimate D2E/DX2                !
 ! A2    A(2,1,18)             109.9291         estimate D2E/DX2                !
 ! A3    A(2,1,19)             108.5466         estimate D2E/DX2                !
 ! A4    A(17,1,18)            110.5762         estimate D2E/DX2                !
 ! A5    A(17,1,19)            108.8998         estimate D2E/DX2                !
 ! A6    A(18,1,19)            108.9092         estimate D2E/DX2                !
 ! A7    A(1,2,3)              114.776          estimate D2E/DX2                !
 ! A8    A(2,3,4)              117.5021         estimate D2E/DX2                !
 ! A9    A(2,3,6)              124.6623         estimate D2E/DX2                !
 ! A10   A(4,3,6)              117.8356         estimate D2E/DX2                !
 ! A11   A(3,4,5)              121.1693         estimate D2E/DX2                !
 ! A12   A(3,4,20)             118.1666         estimate D2E/DX2                !
 ! A13   A(5,4,20)             120.664          estimate D2E/DX2                !
 ! A14   A(4,5,8)              120.8756         estimate D2E/DX2                !
 ! A15   A(4,5,21)             120.3033         estimate D2E/DX2                !
 ! A16   A(8,5,21)             118.8183         estimate D2E/DX2                !
 ! A17   A(3,6,7)              120.9335         estimate D2E/DX2                !
 ! A18   A(3,6,22)             119.6788         estimate D2E/DX2                !
 ! A19   A(7,6,22)             119.3877         estimate D2E/DX2                !
 ! A20   A(6,7,8)              121.0063         estimate D2E/DX2                !
 ! A21   A(6,7,23)             119.8545         estimate D2E/DX2                !
 ! A22   A(8,7,23)             119.1346         estimate D2E/DX2                !
 ! A23   A(5,8,7)              118.1784         estimate D2E/DX2                !
 ! A24   A(5,8,9)              120.2399         estimate D2E/DX2                !
 ! A25   A(7,8,9)              121.5795         estimate D2E/DX2                !
 ! A26   A(8,9,10)             118.4637         estimate D2E/DX2                !
 ! A27   A(8,9,11)             121.4757         estimate D2E/DX2                !
 ! A28   A(10,9,11)            119.8811         estimate D2E/DX2                !
 ! A29   A(9,10,24)            111.3648         estimate D2E/DX2                !
 ! A30   A(9,10,25)            110.0241         estimate D2E/DX2                !
 ! A31   A(9,10,26)            109.9464         estimate D2E/DX2                !
 ! A32   A(24,10,25)           108.4846         estimate D2E/DX2                !
 ! A33   A(24,10,26)           107.9606         estimate D2E/DX2                !
 ! A34   A(25,10,26)           108.9978         estimate D2E/DX2                !
 ! A35   A(9,11,12)            120.1782         estimate D2E/DX2                !
 ! A36   A(9,11,16)            121.6182         estimate D2E/DX2                !
 ! A37   A(12,11,16)           118.2028         estimate D2E/DX2                !
 ! A38   A(11,12,13)           120.9085         estimate D2E/DX2                !
 ! A39   A(11,12,27)           118.7713         estimate D2E/DX2                !
 ! A40   A(13,12,27)           120.3148         estimate D2E/DX2                !
 ! A41   A(12,13,14)           120.0765         estimate D2E/DX2                !
 ! A42   A(12,13,28)           119.9612         estimate D2E/DX2                !
 ! A43   A(14,13,28)           119.9623         estimate D2E/DX2                !
 ! A44   A(13,14,15)           119.8711         estimate D2E/DX2                !
 ! A45   A(13,14,29)           120.0599         estimate D2E/DX2                !
 ! A46   A(15,14,29)           120.0688         estimate D2E/DX2                !
 ! A47   A(14,15,16)           120.2273         estimate D2E/DX2                !
 ! A48   A(14,15,30)           119.8621         estimate D2E/DX2                !
 ! A49   A(16,15,30)           119.9097         estimate D2E/DX2                !
 ! A50   A(11,16,15)           120.7132         estimate D2E/DX2                !
 ! A51   A(11,16,31)           119.3762         estimate D2E/DX2                !
 ! A52   A(15,16,31)           119.873          estimate D2E/DX2                !
 ! D1    D(17,1,2,3)           -60.8156         estimate D2E/DX2                !
 ! D2    D(18,1,2,3)            61.1351         estimate D2E/DX2                !
 ! D3    D(19,1,2,3)          -179.8369         estimate D2E/DX2                !
 ! D4    D(1,2,3,4)            179.8655         estimate D2E/DX2                !
 ! D5    D(1,2,3,6)             -0.1424         estimate D2E/DX2                !
 ! D6    D(2,3,4,5)           -179.8603         estimate D2E/DX2                !
 ! D7    D(2,3,4,20)             0.2301         estimate D2E/DX2                !
 ! D8    D(6,3,4,5)              0.1471         estimate D2E/DX2                !
 ! D9    D(6,3,4,20)          -179.7625         estimate D2E/DX2                !
 ! D10   D(2,3,6,7)            179.8861         estimate D2E/DX2                !
 ! D11   D(2,3,6,22)            -0.0378         estimate D2E/DX2                !
 ! D12   D(4,3,6,7)             -0.1219         estimate D2E/DX2                !
 ! D13   D(4,3,6,22)           179.9542         estimate D2E/DX2                !
 ! D14   D(3,4,5,8)              0.0985         estimate D2E/DX2                !
 ! D15   D(3,4,5,21)          -179.2874         estimate D2E/DX2                !
 ! D16   D(20,4,5,8)          -179.9941         estimate D2E/DX2                !
 ! D17   D(20,4,5,21)            0.62           estimate D2E/DX2                !
 ! D18   D(4,5,8,7)             -0.3635         estimate D2E/DX2                !
 ! D19   D(4,5,8,9)           -179.8205         estimate D2E/DX2                !
 ! D20   D(21,5,8,7)           179.0314         estimate D2E/DX2                !
 ! D21   D(21,5,8,9)            -0.4257         estimate D2E/DX2                !
 ! D22   D(3,6,7,8)             -0.149          estimate D2E/DX2                !
 ! D23   D(3,6,7,23)          -179.3661         estimate D2E/DX2                !
 ! D24   D(22,6,7,8)           179.775          estimate D2E/DX2                !
 ! D25   D(22,6,7,23)            0.558          estimate D2E/DX2                !
 ! D26   D(6,7,8,5)              0.3888         estimate D2E/DX2                !
 ! D27   D(6,7,8,9)            179.8383         estimate D2E/DX2                !
 ! D28   D(23,7,8,5)           179.6114         estimate D2E/DX2                !
 ! D29   D(23,7,8,9)            -0.9392         estimate D2E/DX2                !
 ! D30   D(5,8,9,10)           148.9147         estimate D2E/DX2                !
 ! D31   D(5,8,9,11)           -35.9626         estimate D2E/DX2                !
 ! D32   D(7,8,9,10)           -30.5235         estimate D2E/DX2                !
 ! D33   D(7,8,9,11)           144.5991         estimate D2E/DX2                !
 ! D34   D(8,9,10,24)         -165.3608         estimate D2E/DX2                !
 ! D35   D(8,9,10,25)          -45.0349         estimate D2E/DX2                !
 ! D36   D(8,9,10,26)           75.0213         estimate D2E/DX2                !
 ! D37   D(11,9,10,24)          19.4365         estimate D2E/DX2                !
 ! D38   D(11,9,10,25)         139.7624         estimate D2E/DX2                !
 ! D39   D(11,9,10,26)        -100.1814         estimate D2E/DX2                !
 ! D40   D(8,9,11,12)          -34.7571         estimate D2E/DX2                !
 ! D41   D(8,9,11,16)          144.9105         estimate D2E/DX2                !
 ! D42   D(10,9,11,12)         140.2975         estimate D2E/DX2                !
 ! D43   D(10,9,11,16)         -40.0349         estimate D2E/DX2                !
 ! D44   D(9,11,12,13)         179.9547         estimate D2E/DX2                !
 ! D45   D(9,11,12,27)          -0.8928         estimate D2E/DX2                !
 ! D46   D(16,11,12,13)          0.2759         estimate D2E/DX2                !
 ! D47   D(16,11,12,27)        179.4284         estimate D2E/DX2                !
 ! D48   D(9,11,16,15)        -179.8666         estimate D2E/DX2                !
 ! D49   D(9,11,16,31)          -2.1024         estimate D2E/DX2                !
 ! D50   D(12,11,16,15)         -0.1926         estimate D2E/DX2                !
 ! D51   D(12,11,16,31)        177.5715         estimate D2E/DX2                !
 ! D52   D(11,12,13,14)         -0.1402         estimate D2E/DX2                !
 ! D53   D(11,12,13,28)        179.7762         estimate D2E/DX2                !
 ! D54   D(27,12,13,14)       -179.2797         estimate D2E/DX2                !
 ! D55   D(27,12,13,28)          0.6367         estimate D2E/DX2                !
 ! D56   D(12,13,14,15)         -0.0847         estimate D2E/DX2                !
 ! D57   D(12,13,14,29)       -179.9194         estimate D2E/DX2                !
 ! D58   D(28,13,14,15)        179.9989         estimate D2E/DX2                !
 ! D59   D(28,13,14,29)          0.1642         estimate D2E/DX2                !
 ! D60   D(13,14,15,16)          0.1673         estimate D2E/DX2                !
 ! D61   D(13,14,15,30)       -179.494          estimate D2E/DX2                !
 ! D62   D(29,14,15,16)       -179.9981         estimate D2E/DX2                !
 ! D63   D(29,14,15,30)          0.3406         estimate D2E/DX2                !
 ! D64   D(14,15,16,11)         -0.0258         estimate D2E/DX2                !
 ! D65   D(14,15,16,31)       -177.7789         estimate D2E/DX2                !
 ! D66   D(30,15,16,11)        179.6353         estimate D2E/DX2                !
 ! D67   D(30,15,16,31)          1.8822         estimate D2E/DX2                !
 --------------------------------------------------------------------------------
 Trust Radius=3.00D-01 FncErr=1.00D-07 GrdErr=1.00D-06 EigMax=2.50D+02 EigMin=1.00D-04
 Number of steps in this run=    161 maximum allowed number of steps=    186.
 GradGradGradGradGradGradGradGradGradGradGradGradGradGradGradGradGradGrad

                          Input orientation:                          
 ---------------------------------------------------------------------
 Center     Atomic      Atomic             Coordinates (Angstroms)
 Number     Number       Type             X           Y           Z
 ---------------------------------------------------------------------
      1          6           0        5.301410   -0.198550   -0.395660
      2          8           0        4.293180   -0.892130    0.297910
      3          6           0        3.008240   -0.333880    0.182990
      4          6           0        1.963930   -0.978580    0.846750
      5          6           0        0.677900   -0.499660    0.783210
      6          6           0        2.704990    0.816960   -0.546420
      7          6           0        1.417080    1.295620   -0.608760
      8          6           0        0.377410    0.645270    0.050870
      9          7           0       -0.969200    1.135420   -0.003000
     10          6           0       -1.181710    2.576080   -0.138840
     11          6           0       -2.086810    0.245130   -0.030640
     12          6           0       -1.994460   -0.976140   -0.699560
     13          6           0       -3.060970   -1.845200   -0.734920
     14          6           0       -4.243180   -1.516340   -0.100890
     15          6           0       -4.352510   -0.313950    0.570450
     16          6           0       -3.288320    0.558970    0.606690
     17          1           0        5.076740   -0.184840   -1.462750
     18          1           0        5.387080    0.817550   -0.008920
     19          1           0        6.248320   -0.716650   -0.240700
     20          1           0        2.192280   -1.863650    1.413580
     21          1           0       -0.114910   -1.001390    1.309880
     22          1           0        3.486920    1.337490   -1.068550
     23          1           0        1.201180    2.178180   -1.184300
     24          1           0       -2.209790    2.847700    0.086570
     25          1           0       -0.525210    3.115420    0.541430
     26          1           0       -0.968170    2.888240   -1.159180
     27          1           0       -1.075580   -1.223300   -1.201900
     28          1           0       -2.974050   -2.782920   -1.259110
     29          1           0       -5.077750   -2.197660   -0.127650
     30          1           0       -5.272400   -0.061070    1.072080
     31          1           0       -3.367380    1.477270    1.160860
 ---------------------------------------------------------------------
                    Distance matrix (angstroms):
                    1          2          3          4          5
     1  C    0.000000
     2  O    1.406634   0.000000
     3  C    2.368919   1.405674   0.000000
     4  C    3.645655   2.394599   1.395277   0.000000
     5  C    4.780925   3.668760   2.412101   1.373781   0.000000
     6  C    2.792022   2.481175   1.395863   2.390409   2.758713
     7  C    4.167250   3.725621   2.411209   2.754912   2.388932
     8  C    5.015695   4.214010   2.810241   2.405693   1.391934
     9  N    6.422944   5.647491   4.244227   3.714071   2.450419
    10  C    7.056584   6.495664   5.111470   4.847891   3.710593
    11  C    7.410525   6.488881   5.132292   4.321548   2.976690
    12  C    7.343481   6.366822   5.120391   4.249698   3.093081
    13  C    8.529710   7.487229   6.321547   5.338757   4.253745
    14  C    9.639640   8.568438   7.352679   6.302017   5.102186
    15  C    9.702827   8.669286   7.370968   6.357318   5.038331
    16  C    8.681129   7.725295   6.373647   5.477939   4.108863
    17  H    1.090571   2.052839   2.647521   3.956438   4.949065
    18  H    1.090581   2.052746   2.649811   3.959319   4.953674
    19  H    1.090449   2.035551   3.290007   4.427996   5.667897
    20  H    3.963912   2.569504   2.126109   1.075541   2.133350
    21  H    5.734975   4.524078   3.386667   2.129926   1.075947
    22  H    2.470744   2.736508   2.142187   3.369281   3.833370
    23  H    4.804444   4.602631   3.383104   3.830416   3.363888
    24  H    8.119748   7.504639   6.112249   5.712988   4.475364
    25  H    6.768311   6.271893   4.950901   4.801028   3.817687
    26  H    7.029856   6.640490   5.291060   5.251025   4.237958
    27  H    6.508927   5.584146   4.403019   3.673619   2.745726
    28  H    8.712506   7.668900   6.623084   5.663386   4.766664
    29  H   10.573326   9.471000   8.303819   7.212549   6.069627
    30  H   10.676077   9.632773   8.332701   7.297744   5.973431
    31  H    8.965436   8.064919   6.699629   5.878157   4.518314
                    6          7          8          9         10
     6  C    0.000000
     7  C    1.375396   0.000000
     8  C    2.409120   1.392473   0.000000
     9  N    3.727787   2.467173   1.434053   0.000000
    10  C    4.285681   2.934981   2.488950   1.462571   0.000000
    11  C    4.853284   3.703376   2.497826   1.429137   2.502847
    12  C    5.032245   4.099725   2.969492   2.448477   3.686901
    13  C    6.353654   5.471161   4.317680   3.714203   4.840934
    14  C    7.343014   6.340630   5.103473   4.214304   5.110963
    15  C    7.234270   6.104869   4.854092   3.725091   4.348487
    16  C    6.108681   4.915360   3.708633   2.466239   3.010374
    17  H    2.732849   4.039081   5.006379   6.358250   6.967325
    18  H    2.735418   4.043422   5.012988   6.364226   6.801346
    19  H    3.873062   5.246483   6.033856   7.455150   8.127594
    20  H    3.360081   3.830376   3.383107   4.582147   5.788352
    21  H    3.834590   3.362206   2.130487   2.649419   4.004391
    22  H    1.074703   2.120707   3.376584   4.586200   4.918798
    23  H    2.126324   1.075533   2.134023   2.682045   2.632390
    24  H    5.355338   4.005824   3.397878   2.116362   1.086985
    25  H    4.111025   2.899500   2.675259   2.100936   1.088415
    26  H    4.261195   2.920414   2.881965   2.099793   1.088181
    27  H    4.345690   3.593067   2.678090   2.648063   3.946726
    28  H    6.761550   6.028222   4.969992   4.577185   5.760761
    29  H    8.356695   7.390351   6.154095   5.291989   6.161805
    30  H    8.187138   7.029578   5.784647   4.594009   5.015439
    31  H    6.342278   5.104470   3.993464   2.687508   2.770155
                   11         12         13         14         15
    11  C    0.000000
    12  C    1.395522   0.000000
    13  C    2.411323   1.376212   0.000000
    14  C    2.785255   2.388925   1.381218   0.000000
    15  C    2.409829   2.758953   2.390982   1.381446   0.000000
    16  C    1.395819   2.395188   2.762542   2.391514   1.376882
    17  H    7.317941   7.156150   8.337197   9.512542   9.646830
    18  H    7.495810   7.627676   8.887455   9.909461   9.822198
    19  H    8.393065   8.259619   9.390461  10.522862  10.639442
    20  H    4.984309   4.773031   5.675652   6.620377   6.778401
    21  H    2.690575   2.751580   3.684086   4.392956   4.356212
    22  H    5.773818   5.961087   7.288051   8.296696   8.177422
    23  H    3.984783   4.516284   5.878389   6.668156   6.335087
    24  H    2.608109   3.909747   4.839697   4.818160   3.849860
    25  H    3.317292   4.521019   5.715496   5.974034   5.139032
    26  H    3.083989   4.024668   5.192809   5.589812   4.969849
    27  H    2.133242   1.075999   2.132277   3.366272   3.834894
    28  H    3.386063   2.130058   1.077798   2.134570   3.367975
    29  H    3.862947   3.365393   2.135511   1.077692   2.135809
    30  H    3.384927   3.836789   3.367312   2.133767   1.077858
    31  H    2.139556   3.371245   3.837535   3.364631   2.127800
                   16         17         18         19         20
    16  C    0.000000
    17  H    8.649281   0.000000
    18  H    8.701058   1.792964   0.000000
    19  H    9.658819   1.774494   1.774606   0.000000
    20  H    6.046250   4.405881   4.406709   4.528102   0.000000
    21  H    3.605514   5.942008   5.943035   6.555614   2.465233
    22  H    7.022564   2.236160   2.236909   3.539796   4.252571
    23  H    5.097558   4.547677   4.555721   5.894408   4.905879
    24  H    2.583029   8.043022   7.864036   9.184298   6.583008
    25  H    3.764900   6.803697   6.366967   7.821585   5.739036
    26  H    3.731875   6.787998   6.782334   8.118902   6.260032
    27  H    3.368041   6.244796   6.881442   7.404060   4.234347
    28  H    3.840339   8.462075   9.188844   9.505721   5.888913
    29  H    3.367540  10.437797  10.891201  11.423048   7.439105
    30  H    2.130167  10.655767  10.750119  11.613792   7.686831
    31  H    1.075467   8.997172   8.856872   9.961894   6.491181
                   21         22         23         24         25
    21  H    0.000000
    22  H    4.909223   0.000000
    23  H    4.250023   2.438189   0.000000
    24  H    4.549781   6.005626   3.701092   0.000000
    25  H    4.207967   4.674426   2.614763   1.765328   0.000000
    26  H    4.685460   4.718142   2.282739   1.759306   1.771976
    27  H    2.698364   5.233721   4.093167   4.418102   4.708142
    28  H    4.236536   7.665391   6.484648   5.839420   6.635448
    29  H    5.303521   9.313224   7.725895   5.807473   7.028663
    30  H    5.247900   9.124908   7.211985   4.337252   5.736505
    31  H    4.092007   7.209108   5.182933   2.090979   3.338437
                   26         27         28         29         30
    26  H    0.000000
    27  H    4.113165   0.000000
    28  H    6.016278   2.457616   0.000000
    29  H    6.619598   4.256848   2.459326   0.000000
    30  H    5.674799   4.912745   4.257385   2.458100   0.000000
    31  H    3.623483   4.257706   4.915301   4.253320   2.450199
                   31
    31  H    0.000000
 Stoichiometry    C14H15NO
 Framework group  C1[X(C14H15NO)]
 Deg. of freedom    87
 Full point group                 C1      NOp   1
 Largest Abelian subgroup         C1      NOp   1
 Largest concise Abelian subgroup C1      NOp   1
                         Standard orientation:                         
 ---------------------------------------------------------------------
 Center     Atomic      Atomic             Coordinates (Angstroms)
 Number     Number       Type             X           Y           Z
 ---------------------------------------------------------------------
      1          6           0       -5.287465   -0.380633    0.323325
      2          8           0       -4.246254   -1.070056   -0.324130
      3          6           0       -2.982512   -0.463908   -0.217077
      4          6           0       -1.907326   -1.101964   -0.836480
      5          6           0       -0.639071   -0.577292   -0.777130
      6          6           0       -2.728891    0.728179    0.463391
      7          6           0       -1.458730    1.252601    0.521580
      8          6           0       -0.388056    0.608932   -0.093505
      9          7           0        0.940512    1.146438   -0.043494
     10          6           0        1.102848    2.598130    0.029663
     11          6           0        2.086591    0.296742    0.039886
     12          6           0        2.024771   -0.895663    0.762264
     13          6           0        3.118960   -1.725550    0.851690
     14          6           0        4.299088   -1.385574    0.219648
     15          6           0        4.378543   -0.211551   -0.504057
     16          6           0        3.286557    0.622229   -0.594505
     17          1           0       -5.079659   -0.311363    1.391671
     18          1           0       -5.401014    0.613566   -0.110313
     19          1           0       -6.214131   -0.937019    0.179089
     20          1           0       -2.097422   -2.018854   -1.365597
     21          1           0        0.177935   -1.074981   -1.269542
     22          1           0       -3.535581    1.244804    0.950563
     23          1           0       -1.281125    2.166954    1.059340
     24          1           0        2.124630    2.894088   -0.193733
     25          1           0        0.439196    3.083757   -0.683345
     26          1           0        0.863514    2.948400    1.031744
     27          1           0        1.107082   -1.151048    1.262664
     28          1           0        3.055331   -2.641175    1.416695
     29          1           0        5.155373   -2.036279    0.288774
     30          1           0        5.297039    0.049611   -1.003994
     31          1           0        3.343435    1.516851   -1.188682
 ---------------------------------------------------------------------
 Rotational constants (GHZ):           1.3912351           0.2549891           0.2279094
 Standard basis: def2SVP (5D, 7F)
 There are   315 symmetry adapted cartesian basis functions of A   symmetry.
 There are   299 symmetry adapted basis functions of A   symmetry.
   299 basis functions,   505 primitive gaussians,   315 cartesian basis functions
    57 alpha electrons       57 beta electrons
       nuclear repulsion energy      1019.7907616656 Hartrees.
 NAtoms=   31 NActive=   31 NUniq=   31 SFac= 1.00D+00 NAtFMM=   60 NAOKFM=F Big=F
 Integral buffers will be    131072 words long.
 Raffenetti 2 integral format.
 Two-electron integral symmetry is turned on.
 Nuclear repulsion after empirical dispersion term =     1019.7705860955 Hartrees.
 One-electron integrals computed using PRISM.
   1 Symmetry operations used in ECPInt.
 ECPInt:  NShTT=   10011 NPrTT=   36031 LenC2=    9183 LenP2D=   23983.
 LDataN:  DoStor=T MaxTD1= 4 Len=   56
 NBasis=   299 RedAO= T EigKep=  2.16D-04  NBF=   299
 NBsUse=   299 1.00D-06 EigRej= -1.00D+00 NBFU=   299
 ExpMin= 1.22D-01 ExpMax= 2.27D+03 ExpMxC= 3.41D+02 IAcc=3 IRadAn=         5 AccDes= 0.00D+00
 Harris functional with IExCor= 4639 and IRadAn=       5 diagonalized for initial guess.
 HarFok:  IExCor= 4639 AccDes= 0.00D+00 IRadAn=         5 IDoV= 1 UseB2=F ITyADJ=14
 ICtDFT=  3500011 ScaDFX=  1.000000  1.000000  1.000000  1.000000
 FoFCou: FMM=F IPFlag=           0 FMFlag=      100000 FMFlg1=           0
         NFxFlg=           0 DoJE=T BraDBF=F KetDBF=T FulRan=T
         wScrn=  0.000000 ICntrl=       500 IOpCl=  0 I1Cent=   200000004 NGrid=           0
         NMat0=    1 NMatS0=      1 NMatT0=    0 NMatD0=    1 NMtDS0=    0 NMtDT0=    0
 Petite list used in FoFCou.
 Requested convergence on RMS density matrix=1.00D-08 within 128 cycles.
 Requested convergence on MAX density matrix=1.00D-06.
 Requested convergence on             energy=1.00D-06.
 No special actions if energy rises.
 Integral accuracy reduced to 1.0D-05 until final iterations.
 Initial convergence to 1.0D-05 achieved.  Increase integral accuracy.
 SCF Done:  E(RwB97XD) =  -671.769016328     A.U. after   15 cycles
            NFock= 15  Conv=0.86D-08     -V/T= 2.0105

 **********************************************************************

            Population analysis using the SCF Density.

 **********************************************************************

 Orbital symmetries:
       Occupied  (A) (A) (A) (A) (A) (A) (A) (A) (A) (A) (A) (A)
                 (A) (A) (A) (A) (A) (A) (A) (A) (A) (A) (A) (A)
                 (A) (A) (A) (A) (A) (A) (A) (A) (A) (A) (A) (A)
                 (A) (A) (A) (A) (A) (A) (A) (A) (A) (A) (A) (A)
                 (A) (A) (A) (A) (A) (A) (A) (A) (A)
       Virtual   (A) (A) (A) (A) (A) (A) (A) (A) (A) (A) (A) (A)
                 (A) (A) (A) (A) (A) (A) (A) (A) (A) (A) (A) (A)
                 (A) (A) (A) (A) (A) (A) (A) (A) (A) (A) (A) (A)
                 (A) (A) (A) (A) (A) (A) (A) (A) (A) (A) (A) (A)
                 (A) (A) (A) (A) (A) (A) (A) (A) (A) (A) (A) (A)
                 (A) (A) (A) (A) (A) (A) (A) (A) (A) (A) (A) (A)
                 (A) (A) (A) (A) (A) (A) (A) (A) (A) (A) (A) (A)
                 (A) (A) (A) (A) (A) (A) (A) (A) (A) (A) (A) (A)
                 (A) (A) (A) (A) (A) (A) (A) (A) (A) (A) (A) (A)
                 (A) (A) (A) (A) (A) (A) (A) (A) (A) (A) (A) (A)
                 (A) (A) (A) (A) (A) (A) (A) (A) (A) (A) (A) (A)
                 (A) (A) (A) (A) (A) (A) (A) (A) (A) (A) (A) (A)
                 (A) (A) (A) (A) (A) (A) (A) (A) (A) (A) (A) (A)
                 (A) (A) (A) (A) (A) (A) (A) (A) (A) (A) (A) (A)
                 (A) (A) (A) (A) (A) (A) (A) (A) (A) (A) (A) (A)
                 (A) (A) (A) (A) (A) (A) (A) (A) (A) (A) (A) (A)
                 (A) (A) (A) (A) (A) (A) (A) (A) (A) (A) (A) (A)
                 (A) (A) (A) (A) (A) (A) (A) (A) (A) (A) (A) (A)
                 (A) (A) (A) (A) (A) (A) (A) (A) (A) (A) (A) (A)
                 (A) (A) (A) (A) (A) (A) (A) (A) (A) (A) (A) (A)
                 (A) (A)
 The electronic state is 1-A.
 Alpha  occ. eigenvalues --  -19.27942 -14.46100 -10.35290 -10.34580 -10.33835
 Alpha  occ. eigenvalues --  -10.33404 -10.32855 -10.29838 -10.29720 -10.29601
 Alpha  occ. eigenvalues --  -10.29477 -10.29461 -10.29398 -10.29293 -10.28967
 Alpha  occ. eigenvalues --  -10.28808  -1.14227  -1.03809  -0.95476  -0.93861
 Alpha  occ. eigenvalues --   -0.85213  -0.84806  -0.83821  -0.83241  -0.78963
 Alpha  occ. eigenvalues --   -0.76270  -0.70286  -0.70182  -0.69173  -0.66182
 Alpha  occ. eigenvalues --   -0.63245  -0.61475  -0.58220  -0.57813  -0.55794
 Alpha  occ. eigenvalues --   -0.55579  -0.53867  -0.53501  -0.52536  -0.52254
 Alpha  occ. eigenvalues --   -0.51343  -0.50734  -0.49682  -0.48560  -0.47097
 Alpha  occ. eigenvalues --   -0.46739  -0.46140  -0.44466  -0.43462  -0.42357
 Alpha  occ. eigenvalues --   -0.41082  -0.40571  -0.36741  -0.33851  -0.33044
 Alpha  occ. eigenvalues --   -0.31595  -0.25290
 Alpha virt. eigenvalues --    0.05689   0.05929   0.07390   0.09541   0.13830
 Alpha virt. eigenvalues --    0.15071   0.15909   0.17161   0.18229   0.19108
 Alpha virt. eigenvalues --    0.20407   0.20575   0.20851   0.21439   0.21954
 Alpha virt. eigenvalues --    0.22668   0.22866   0.23486   0.24305   0.24461
 Alpha virt. eigenvalues --    0.25099   0.27182   0.27793   0.31292   0.32169
 Alpha virt. eigenvalues --    0.34302   0.36141   0.37418   0.37984   0.38811
 Alpha virt. eigenvalues --    0.40274   0.41350   0.42229   0.42808   0.43588
 Alpha virt. eigenvalues --    0.45389   0.47681   0.48627   0.49293   0.49780
 Alpha virt. eigenvalues --    0.50874   0.52345   0.53975   0.54435   0.55202
 Alpha virt. eigenvalues --    0.55494   0.56352   0.57116   0.57592   0.57967
 Alpha virt. eigenvalues --    0.58896   0.59191   0.60077   0.61028   0.61991
 Alpha virt. eigenvalues --    0.63257   0.65105   0.65615   0.66648   0.67468
 Alpha virt. eigenvalues --    0.67584   0.69814   0.70453   0.72052   0.72097
 Alpha virt. eigenvalues --    0.73229   0.73830   0.73997   0.74424   0.74728
 Alpha virt. eigenvalues --    0.75082   0.75694   0.76233   0.76370   0.77006
 Alpha virt. eigenvalues --    0.77246   0.78174   0.78550   0.79828   0.81324
 Alpha virt. eigenvalues --    0.82141   0.83320   0.83737   0.84386   0.85204
 Alpha virt. eigenvalues --    0.85687   0.86997   0.87930   0.90088   0.90951
 Alpha virt. eigenvalues --    0.92256   0.93261   0.93738   0.97023   0.98040
 Alpha virt. eigenvalues --    1.00085   1.02697   1.03442   1.06196   1.08362
 Alpha virt. eigenvalues --    1.10443   1.13467   1.14999   1.17234   1.18612
 Alpha virt. eigenvalues --    1.20803   1.22427   1.25692   1.27069   1.29834
 Alpha virt. eigenvalues --    1.30517   1.32722   1.33413   1.34264   1.34585
 Alpha virt. eigenvalues --    1.35732   1.37250   1.37587   1.38342   1.39059
 Alpha virt. eigenvalues --    1.39780   1.41425   1.42501   1.44542   1.47420
 Alpha virt. eigenvalues --    1.53943   1.55754   1.58653   1.60388   1.61750
 Alpha virt. eigenvalues --    1.62517   1.63999   1.68607   1.70963   1.74816
 Alpha virt. eigenvalues --    1.77023   1.77503   1.78087   1.78512   1.79566
 Alpha virt. eigenvalues --    1.80296   1.82203   1.82878   1.83628   1.84224
 Alpha virt. eigenvalues --    1.85154   1.85262   1.86133   1.87227   1.87525
 Alpha virt. eigenvalues --    1.88160   1.89371   1.90061   1.90407   1.91365
 Alpha virt. eigenvalues --    1.91748   1.92657   1.94814   1.95396   1.96001
 Alpha virt. eigenvalues --    1.97741   1.98789   1.99635   2.02127   2.03082
 Alpha virt. eigenvalues --    2.04657   2.05573   2.06227   2.08181   2.08691
 Alpha virt. eigenvalues --    2.09395   2.11001   2.13003   2.16710   2.17671
 Alpha virt. eigenvalues --    2.18724   2.21549   2.23326   2.24378   2.25817
 Alpha virt. eigenvalues --    2.26253   2.26701   2.28804   2.29101   2.29353
 Alpha virt. eigenvalues --    2.31540   2.32278   2.35808   2.38399   2.38787
 Alpha virt. eigenvalues --    2.40739   2.41426   2.41708   2.42939   2.43878
 Alpha virt. eigenvalues --    2.45719   2.46249   2.46693   2.47921   2.50387
 Alpha virt. eigenvalues --    2.53273   2.56994   2.61945   2.65411   2.69564
 Alpha virt. eigenvalues --    2.70791   2.71336   2.73042   2.74336   2.75743
 Alpha virt. eigenvalues --    2.76125   2.77541   2.78114   2.80742   2.85067
 Alpha virt. eigenvalues --    2.85628   2.86760   2.90318   2.90896   2.93117
 Alpha virt. eigenvalues --    2.95561   2.96674   2.98006   3.00456   3.01025
 Alpha virt. eigenvalues --    3.02143   3.03169   3.05256   3.05696   3.08019
 Alpha virt. eigenvalues --    3.14774   3.17205   3.21351   3.22973   3.28159
 Alpha virt. eigenvalues --    3.29794   3.36987   3.42771   3.52968   3.54548
 Alpha virt. eigenvalues --    3.79518   3.82582
          Condensed to atoms (all electrons):
               1          2          3          4          5          6
     1  C    4.391775   0.303934  -0.059088   0.006199  -0.000248   0.000641
     2  O    0.303934   7.919778   0.381139  -0.067039   0.003385  -0.080936
     3  C   -0.059088   0.381139   5.072584   0.273589   0.118951   0.172335
     4  C    0.006199  -0.067039   0.273589   5.125951   0.268038   0.058824
     5  C   -0.000248   0.003385   0.118951   0.268038   5.166369  -0.149105
     6  C    0.000641  -0.080936   0.172335   0.058824  -0.149105   5.336608
     7  C    0.001317   0.004558   0.117543  -0.134258   0.067088   0.220584
     8  C    0.000043   0.000008  -0.181872   0.128650   0.244801   0.119262
     9  N   -0.000000   0.000000  -0.000240   0.008512  -0.078883   0.008399
    10  C    0.000000  -0.000000   0.000065  -0.000202   0.005503   0.000311
    11  C    0.000000  -0.000000   0.000040  -0.000177  -0.005916  -0.000046
    12  C    0.000000   0.000000   0.000035  -0.001403  -0.005054  -0.000056
    13  C   -0.000000   0.000000  -0.000003   0.000025  -0.001190   0.000003
    14  C   -0.000000  -0.000000   0.000000  -0.000004   0.000015  -0.000000
    15  C   -0.000000   0.000000  -0.000000   0.000005   0.000047  -0.000000
    16  C   -0.000000   0.000000   0.000002  -0.000065   0.000646   0.000003
    17  H    0.402354  -0.031421  -0.009036  -0.000199   0.000061   0.006069
    18  H    0.402156  -0.031445  -0.009745  -0.000191  -0.000009   0.006524
    19  H    0.397634  -0.020824   0.005234  -0.000076   0.000008   0.000211
    20  H   -0.000215   0.001534  -0.071493   0.447266  -0.072011   0.020010
    21  H    0.000007  -0.000055   0.015894  -0.074484   0.466187  -0.003098
    22  H    0.008860  -0.008110  -0.093612   0.013068  -0.002137   0.460111
    23  H   -0.000039  -0.000061   0.016126  -0.003080   0.017561  -0.069863
    24  H    0.000000   0.000000   0.000003   0.000000  -0.000110  -0.000028
    25  H    0.000000   0.000000  -0.000048  -0.000162   0.000800   0.000548
    26  H    0.000000   0.000000  -0.000044   0.000082  -0.000856   0.000597
    27  H   -0.000000   0.000000   0.000103  -0.001018   0.003232  -0.000013
    28  H    0.000000   0.000000  -0.000000   0.000003   0.000039  -0.000000
    29  H    0.000000   0.000000  -0.000000   0.000000  -0.000000   0.000000
    30  H   -0.000000   0.000000   0.000000  -0.000000  -0.000001   0.000000
    31  H   -0.000000  -0.000000   0.000000   0.000001  -0.000033  -0.000000
               7          8          9         10         11         12
     1  C    0.001317   0.000043  -0.000000   0.000000   0.000000   0.000000
     2  O    0.004558   0.000008   0.000000  -0.000000  -0.000000   0.000000
     3  C    0.117543  -0.181872  -0.000240   0.000065   0.000040   0.000035
     4  C   -0.134258   0.128650   0.008512  -0.000202  -0.000177  -0.001403
     5  C    0.067088   0.244801  -0.078883   0.005503  -0.005916  -0.005054
     6  C    0.220584   0.119262   0.008399   0.000311  -0.000046  -0.000056
     7  C    5.178822   0.253774  -0.081506   0.003489   0.005794   0.000846
     8  C    0.253774   5.150770   0.314373  -0.053027  -0.048110  -0.003138
     9  N   -0.081506   0.314373   6.823693   0.341997   0.313744  -0.080935
    10  C    0.003489  -0.053027   0.341997   4.431076  -0.046576   0.004434
    11  C    0.005794  -0.048110   0.313744  -0.046576   5.089346   0.281693
    12  C    0.000846  -0.003138  -0.080935   0.004434   0.281693   5.168310
    13  C   -0.000062  -0.000195   0.009310  -0.000118   0.118242   0.269079
    14  C    0.000001   0.000054  -0.000429  -0.000032  -0.163138   0.086176
    15  C   -0.000000  -0.000211   0.007745   0.000825   0.111297  -0.146843
    16  C   -0.000496   0.005466  -0.077455  -0.008894   0.276571   0.057060
    17  H    0.000617  -0.000098   0.000000  -0.000000   0.000000  -0.000000
    18  H    0.000690  -0.000077   0.000000   0.000000  -0.000000   0.000000
    19  H   -0.000035   0.000004  -0.000000  -0.000000   0.000000  -0.000000
    20  H   -0.003093   0.015900  -0.000106   0.000006  -0.000021   0.000036
    21  H    0.016916  -0.070549  -0.013967  -0.000071   0.006395   0.002626
    22  H   -0.057777   0.016895  -0.000127  -0.000026   0.000006  -0.000001
    23  H    0.460315  -0.078946  -0.014996   0.009346  -0.000178  -0.000030
    24  H    0.000562   0.005911  -0.018128   0.400632  -0.010087  -0.000003
    25  H    0.003638  -0.003648  -0.027882   0.400041   0.003914  -0.000484
    26  H    0.002745  -0.010559  -0.037610   0.403061   0.003732   0.001162
    27  H   -0.000709   0.005758  -0.014624  -0.000132  -0.066614   0.459248
    28  H    0.000001  -0.000023  -0.000126   0.000005   0.015249  -0.067577
    29  H    0.000000   0.000001   0.000009   0.000000  -0.001623   0.014874
    30  H   -0.000000   0.000008  -0.000133  -0.000010   0.015323  -0.001979
    31  H    0.000001  -0.000281  -0.010029  -0.000967  -0.073237   0.016166
              13         14         15         16         17         18
     1  C   -0.000000  -0.000000  -0.000000  -0.000000   0.402354   0.402156
     2  O    0.000000  -0.000000   0.000000   0.000000  -0.031421  -0.031445
     3  C   -0.000003   0.000000  -0.000000   0.000002  -0.009036  -0.009745
     4  C    0.000025  -0.000004   0.000005  -0.000065  -0.000199  -0.000191
     5  C   -0.001190   0.000015   0.000047   0.000646   0.000061  -0.000009
     6  C    0.000003  -0.000000  -0.000000   0.000003   0.006069   0.006524
     7  C   -0.000062   0.000001  -0.000000  -0.000496   0.000617   0.000690
     8  C   -0.000195   0.000054  -0.000211   0.005466  -0.000098  -0.000077
     9  N    0.009310  -0.000429   0.007745  -0.077455   0.000000   0.000000
    10  C   -0.000118  -0.000032   0.000825  -0.008894  -0.000000   0.000000
    11  C    0.118242  -0.163138   0.111297   0.276571   0.000000  -0.000000
    12  C    0.269079   0.086176  -0.146843   0.057060  -0.000000   0.000000
    13  C    5.064408   0.276368   0.097739  -0.148746  -0.000000   0.000000
    14  C    0.276368   5.106098   0.287371   0.082713   0.000000  -0.000000
    15  C    0.097739   0.287371   5.026778   0.293859  -0.000000   0.000000
    16  C   -0.148746   0.082713   0.293859   5.172579   0.000000  -0.000000
    17  H   -0.000000   0.000000  -0.000000   0.000000   0.666969  -0.044827
    18  H    0.000000  -0.000000   0.000000  -0.000000  -0.044827   0.666803
    19  H   -0.000000  -0.000000   0.000000  -0.000000  -0.023748  -0.023664
    20  H    0.000002  -0.000000  -0.000000   0.000001   0.000091   0.000074
    21  H   -0.000793   0.000078  -0.000004  -0.000837   0.000000  -0.000000
    22  H   -0.000000   0.000000   0.000000  -0.000000   0.000118   0.000864
    23  H   -0.000000   0.000000   0.000000   0.000003   0.000027   0.000029
    24  H    0.000033  -0.000050   0.000477   0.003238   0.000000  -0.000000
    25  H    0.000021   0.000002  -0.000046   0.000844   0.000000  -0.000001
    26  H   -0.000071  -0.000005   0.000008   0.000186  -0.000000   0.000000
    27  H   -0.072003   0.014832  -0.002463   0.016201  -0.000000   0.000000
    28  H    0.453330  -0.072538   0.014400  -0.002135  -0.000000   0.000000
    29  H   -0.070021   0.452833  -0.070244   0.014728  -0.000000   0.000000
    30  H    0.014129  -0.070858   0.449868  -0.065813   0.000000  -0.000000
    31  H   -0.002517   0.015050  -0.064352   0.451472  -0.000000   0.000000
              19         20         21         22         23         24
     1  C    0.397634  -0.000215   0.000007   0.008860  -0.000039   0.000000
     2  O   -0.020824   0.001534  -0.000055  -0.008110  -0.000061   0.000000
     3  C    0.005234  -0.071493   0.015894  -0.093612   0.016126   0.000003
     4  C   -0.000076   0.447266  -0.074484   0.013068  -0.003080   0.000000
     5  C    0.000008  -0.072011   0.466187  -0.002137   0.017561  -0.000110
     6  C    0.000211   0.020010  -0.003098   0.460111  -0.069863  -0.000028
     7  C   -0.000035  -0.003093   0.016916  -0.057777   0.460315   0.000562
     8  C    0.000004   0.015900  -0.070549   0.016895  -0.078946   0.005911
     9  N   -0.000000  -0.000106  -0.013967  -0.000127  -0.014996  -0.018128
    10  C   -0.000000   0.000006  -0.000071  -0.000026   0.009346   0.400632
    11  C    0.000000  -0.000021   0.006395   0.000006  -0.000178  -0.010087
    12  C   -0.000000   0.000036   0.002626  -0.000001  -0.000030  -0.000003
    13  C   -0.000000   0.000002  -0.000793  -0.000000  -0.000000   0.000033
    14  C   -0.000000  -0.000000   0.000078   0.000000   0.000000  -0.000050
    15  C    0.000000  -0.000000  -0.000004   0.000000   0.000000   0.000477
    16  C   -0.000000   0.000001  -0.000837  -0.000000   0.000003   0.003238
    17  H   -0.023748   0.000091   0.000000   0.000118   0.000027   0.000000
    18  H   -0.023664   0.000074  -0.000000   0.000864   0.000029  -0.000000
    19  H    0.613580  -0.000098  -0.000000  -0.000329  -0.000001  -0.000000
    20  H   -0.000098   0.664835  -0.013180  -0.000220   0.000021  -0.000000
    21  H   -0.000000  -0.013180   0.651910   0.000011  -0.000218  -0.000016
    22  H   -0.000329  -0.000220   0.000011   0.683816  -0.015035  -0.000001
    23  H   -0.000001   0.000021  -0.000218  -0.015035   0.692533  -0.000043
    24  H   -0.000000  -0.000000  -0.000016  -0.000001  -0.000043   0.610457
    25  H   -0.000000   0.000001   0.000007  -0.000013  -0.000871  -0.015268
    26  H    0.000000  -0.000001  -0.000013   0.000031  -0.001019  -0.025499
    27  H   -0.000000   0.000006  -0.001743  -0.000004  -0.000021  -0.000040
    28  H    0.000000  -0.000000   0.000011   0.000000  -0.000000   0.000000
    29  H    0.000000   0.000000   0.000000   0.000000   0.000000  -0.000001
    30  H   -0.000000   0.000000  -0.000004  -0.000000  -0.000000   0.000062
    31  H    0.000000  -0.000000  -0.000000   0.000000  -0.000002   0.000897
              25         26         27         28         29         30
     1  C    0.000000   0.000000  -0.000000   0.000000   0.000000  -0.000000
     2  O    0.000000   0.000000   0.000000   0.000000   0.000000   0.000000
     3  C   -0.000048  -0.000044   0.000103  -0.000000  -0.000000   0.000000
     4  C   -0.000162   0.000082  -0.001018   0.000003   0.000000  -0.000000
     5  C    0.000800  -0.000856   0.003232   0.000039  -0.000000  -0.000001
     6  C    0.000548   0.000597  -0.000013  -0.000000   0.000000   0.000000
     7  C    0.003638   0.002745  -0.000709   0.000001   0.000000  -0.000000
     8  C   -0.003648  -0.010559   0.005758  -0.000023   0.000001   0.000008
     9  N   -0.027882  -0.037610  -0.014624  -0.000126   0.000009  -0.000133
    10  C    0.400041   0.403061  -0.000132   0.000005   0.000000  -0.000010
    11  C    0.003914   0.003732  -0.066614   0.015249  -0.001623   0.015323
    12  C   -0.000484   0.001162   0.459248  -0.067577   0.014874  -0.001979
    13  C    0.000021  -0.000071  -0.072003   0.453330  -0.070021   0.014129
    14  C    0.000002  -0.000005   0.014832  -0.072538   0.452833  -0.070858
    15  C   -0.000046   0.000008  -0.002463   0.014400  -0.070244   0.449868
    16  C    0.000844   0.000186   0.016201  -0.002135   0.014728  -0.065813
    17  H    0.000000  -0.000000  -0.000000  -0.000000  -0.000000   0.000000
    18  H   -0.000001   0.000000   0.000000   0.000000   0.000000  -0.000000
    19  H   -0.000000   0.000000  -0.000000   0.000000   0.000000  -0.000000
    20  H    0.000001  -0.000001   0.000006  -0.000000   0.000000   0.000000
    21  H    0.000007  -0.000013  -0.001743   0.000011   0.000000  -0.000004
    22  H   -0.000013   0.000031  -0.000004   0.000000   0.000000  -0.000000
    23  H   -0.000871  -0.001019  -0.000021  -0.000000   0.000000  -0.000000
    24  H   -0.015268  -0.025499  -0.000040   0.000000  -0.000001   0.000062
    25  H    0.636083  -0.038951  -0.000011  -0.000000   0.000000   0.000001
    26  H   -0.038951   0.666700   0.000064   0.000001  -0.000000  -0.000003
    27  H   -0.000011   0.000064   0.657979  -0.012645  -0.000232   0.000020
    28  H   -0.000000   0.000001  -0.012645   0.673740  -0.012406  -0.000269
    29  H    0.000000  -0.000000  -0.000232  -0.012406   0.677962  -0.012415
    30  H    0.000001  -0.000003   0.000020  -0.000269  -0.012415   0.676403
    31  H   -0.000494   0.000342  -0.000187   0.000026  -0.000240  -0.013563
              31
     1  C   -0.000000
     2  O   -0.000000
     3  C    0.000000
     4  C    0.000001
     5  C   -0.000033
     6  C   -0.000000
     7  C    0.000001
     8  C   -0.000281
     9  N   -0.010029
    10  C   -0.000967
    11  C   -0.073237
    12  C    0.016166
    13  C   -0.002517
    14  C    0.015050
    15  C   -0.064352
    16  C    0.451472
    17  H   -0.000000
    18  H    0.000000
    19  H    0.000000
    20  H   -0.000000
    21  H   -0.000000
    22  H    0.000000
    23  H   -0.000002
    24  H    0.000897
    25  H   -0.000494
    26  H    0.000342
    27  H   -0.000187
    28  H    0.000026
    29  H   -0.000240
    30  H   -0.013563
    31  H    0.684854
 Mulliken charges:
               1
     1  C    0.144669
     2  O   -0.374447
     3  C    0.251538
     4  C   -0.047855
     5  C   -0.047180
     6  C   -0.107897
     7  C   -0.061363
     8  C    0.189055
     9  N   -0.370605
    10  C    0.109263
    11  C    0.174379
    12  C   -0.054242
    13  C   -0.006969
    14  C   -0.014538
    15  C   -0.006255
    16  C   -0.071131
    17  H    0.033023
    18  H    0.032818
    19  H    0.052105
    20  H    0.010653
    21  H    0.018990
    22  H   -0.006389
    23  H   -0.011559
    24  H    0.047001
    25  H    0.041980
    26  H    0.035922
    27  H    0.015017
    28  H    0.010916
    29  H    0.006775
    30  H    0.009234
    31  H   -0.002907
 Sum of Mulliken charges =  -0.00000
 Mulliken charges with hydrogens summed into heavy atoms:
               1
     1  C    0.262615
     2  O   -0.374447
     3  C    0.251538
     4  C   -0.037202
     5  C   -0.028190
     6  C   -0.114286
     7  C   -0.072923
     8  C    0.189055
     9  N   -0.370605
    10  C    0.234166
    11  C    0.174379
    12  C   -0.039225
    13  C    0.003947
    14  C   -0.007763
    15  C    0.002978
    16  C   -0.074038
 Electronic spatial extent (au):  <R**2>=           4739.1632
 Charge=             -0.0000 electrons
 Dipole moment (field-independent basis, Debye):
    X=             -0.4883    Y=              1.6819    Z=              0.6761  Tot=              1.8773
 Quadrupole moment (field-independent basis, Debye-Ang):
   XX=            -82.9431   YY=            -88.5322   ZZ=            -96.0760
   XY=             -2.9758   XZ=             -6.3086   YZ=             -0.6687
 Traceless Quadrupole moment (field-independent basis, Debye-Ang):
   XX=              6.2407   YY=              0.6515   ZZ=             -6.8922
   XY=             -2.9758   XZ=             -6.3086   YZ=             -0.6687
 Octapole moment (field-independent basis, Debye-Ang**2):
  XXX=            -69.0958  YYY=              9.0639  ZZZ=             -0.3881  XYY=              8.5477
  XXY=             10.4114  XXZ=              8.2031  XZZ=             -9.3755  YZZ=             -1.2811
  YYZ=              3.6192  XYZ=             -9.2422
 Hexadecapole moment (field-independent basis, Debye-Ang**3):
 XXXX=          -4539.4997 YYYY=           -898.0448 ZZZZ=           -298.1370 XXXY=            -48.3500
 XXXZ=           -158.5625 YYYX=             16.1898 YYYZ=             -4.7423 ZZZX=             -6.0604
 ZZZY=              1.9353 XXYY=          -1004.1802 XXZZ=           -933.6497 YYZZ=           -192.5233
 XXYZ=            -34.1146 YYXZ=              7.5991 ZZXY=             10.6085
 N-N= 1.019770586096D+03 E-N=-3.597481464808D+03  KE= 6.648152680964D+02
   1 Symmetry operations used in ECPInt.
 ECPInt:  NShTT=   10011 NPrTT=   36031 LenC2=    9183 LenP2D=   23983.
 LDataN:  DoStor=T MaxTD1= 5 Len=  102
 Calling FoFJK, ICntrl=      2127 FMM=F ISym2X=0 I1Cent= 0 IOpClX= 0 NMat=1 NMatS=1 NMatT=0.
 ***** Axes restored to original set *****
 -------------------------------------------------------------------
 Center     Atomic                   Forces (Hartrees/Bohr)
 Number     Number              X              Y              Z
 -------------------------------------------------------------------
      1        6          -0.007700203   -0.008761980    0.007633768
      2        8          -0.030287831    0.015504994   -0.004264670
      3        6           0.024068655   -0.010349806    0.001528502
      4        6           0.010465307   -0.002288319   -0.001963635
      5        6          -0.000207294    0.002159304    0.000752784
      6        6           0.017014892   -0.010216779    0.005341851
      7        6          -0.015197659    0.000323696    0.003368826
      8        6          -0.027705452    0.010690463   -0.006174316
      9        7          -0.000887862   -0.005386557    0.005843174
     10        6           0.005580794   -0.020311913   -0.000059582
     11        6           0.020221035    0.012395345    0.000693115
     12        6           0.004345446    0.005048377   -0.001763680
     13        6          -0.001130418   -0.001331372    0.001439072
     14        6          -0.006459533   -0.004306240    0.000279333
     15        6          -0.002501821   -0.001908717   -0.001935507
     16        6           0.008508616    0.004112489    0.000381732
     17        1           0.001688271    0.003025662   -0.009341765
     18        1           0.003590042    0.009318339   -0.000286448
     19        1           0.002501723   -0.004225529    0.002394321
     20        1           0.002274250   -0.009658443    0.006648490
     21        1          -0.006827694   -0.006433218    0.005993759
     22        1           0.006172272    0.007177507   -0.006176154
     23        1          -0.000003711    0.009179110   -0.006574362
     24        1          -0.005474852   -0.000282526    0.001159714
     25        1           0.004799814    0.004879391    0.004831067
     26        1           0.001001478    0.007266306   -0.009708857
     27        1           0.009260956   -0.003259167   -0.005543543
     28        1           0.001421577   -0.008780159   -0.005481672
     29        1          -0.008169162   -0.006552833   -0.000192955
     30        1          -0.008497785    0.003010346    0.005210248
     31        1          -0.001863853    0.009962228    0.005967389
 -------------------------------------------------------------------
 Cartesian Forces:  Max     0.030287831 RMS     0.008454590

 GradGradGradGradGradGradGradGradGradGradGradGradGradGradGradGradGradGrad
 Berny optimization.
 FormGI is forming the generalized inverse of G from B-inverse, IUseBI=4.
 Internal  Forces:  Max     0.033832795 RMS     0.006304207
 Search for a local minimum.
 Step number   1 out of a maximum of  161
 All quantities printed in internal units (Hartrees-Bohrs-Radians)
 Mixed Optimization -- RFO/linear search
 Second derivative matrix not updated -- first step.
 ITU=  0
     Eigenvalues ---    0.00864   0.01116   0.01241   0.01306   0.01604
     Eigenvalues ---    0.01617   0.01893   0.01893   0.02061   0.02166
     Eigenvalues ---    0.02176   0.02240   0.02253   0.02260   0.02283
     Eigenvalues ---    0.02299   0.02300   0.02333   0.02333   0.02336
     Eigenvalues ---    0.02346   0.02354   0.02367   0.02375   0.07336
     Eigenvalues ---    0.07466   0.10346   0.10572   0.15989   0.15998
     Eigenvalues ---    0.15999   0.15999   0.16000   0.16000   0.16000
     Eigenvalues ---    0.16000   0.16000   0.16000   0.16000   0.16000
     Eigenvalues ---    0.16000   0.16000   0.16000   0.22000   0.22000
     Eigenvalues ---    0.22001   0.22953   0.23467   0.24000   0.24922
     Eigenvalues ---    0.24946   0.24999   0.25000   0.25000   0.25000
     Eigenvalues ---    0.34746   0.34747   0.34761   0.34996   0.35024
     Eigenvalues ---    0.35163   0.36254   0.36262   0.36275   0.36482
     Eigenvalues ---    0.36488   0.36538   0.36539   0.36548   0.36642
     Eigenvalues ---    0.36644   0.40412   0.41114   0.42701   0.42975
     Eigenvalues ---    0.43443   0.43703   0.44539   0.44693   0.46650
     Eigenvalues ---    0.46667   0.47256   0.47873   0.48359   0.49074
     Eigenvalues ---    0.49741   0.50114
 RFO step:  Lambda=-1.57837285D-02 EMin= 8.64084607D-03
 Linear search not attempted -- first point.
 Iteration  1 RMS(Cart)=  0.04790501 RMS(Int)=  0.00153883
 Iteration  2 RMS(Cart)=  0.00220632 RMS(Int)=  0.00015390
 Iteration  3 RMS(Cart)=  0.00000545 RMS(Int)=  0.00015386
 Iteration  4 RMS(Cart)=  0.00000000 RMS(Int)=  0.00015386
 Variable       Old X    -DE/DX   Delta X   Delta X   Delta X     New X
                                 (Linear)    (Quad)   (Total)
    R1        2.65815  -0.00046   0.00000  -0.00099  -0.00099   2.65716
    R2        2.06088   0.00883   0.00000   0.02431   0.02431   2.08519
    R3        2.06090   0.00886   0.00000   0.02440   0.02440   2.08530
    R4        2.06065   0.00452   0.00000   0.01244   0.01244   2.07309
    R5        2.65634  -0.03383   0.00000  -0.07312  -0.07312   2.58322
    R6        2.63669   0.00324   0.00000   0.00607   0.00607   2.64277
    R7        2.63780   0.00131   0.00000   0.00231   0.00231   2.64011
    R8        2.59607   0.01210   0.00000   0.02313   0.02313   2.61920
    R9        2.03248   0.01193   0.00000   0.03131   0.03131   2.06379
   R10        2.63037   0.01300   0.00000   0.02720   0.02719   2.65757
   R11        2.03325   0.01096   0.00000   0.02880   0.02880   2.06205
   R12        2.59912   0.01950   0.00000   0.03807   0.03807   2.63719
   R13        2.03089   0.01097   0.00000   0.02870   0.02870   2.05959
   R14        2.63139   0.00626   0.00000   0.01358   0.01358   2.64497
   R15        2.03246   0.01105   0.00000   0.02899   0.02899   2.06145
   R16        2.70997  -0.02083   0.00000  -0.04961  -0.04961   2.66036
   R17        2.76386  -0.00883   0.00000  -0.02310  -0.02310   2.74076
   R18        2.70068  -0.01704   0.00000  -0.03992  -0.03992   2.66076
   R19        2.05410   0.00535   0.00000   0.01456   0.01456   2.06866
   R20        2.05681   0.00833   0.00000   0.02278   0.02278   2.07959
   R21        2.05636   0.01138   0.00000   0.03110   0.03110   2.08746
   R22        2.63716   0.00961   0.00000   0.01958   0.01957   2.65672
   R23        2.63772   0.00790   0.00000   0.01596   0.01595   2.65367
   R24        2.60066   0.01581   0.00000   0.03084   0.03083   2.63150
   R25        2.03334   0.01125   0.00000   0.02955   0.02955   2.06289
   R26        2.61012   0.01380   0.00000   0.02786   0.02787   2.63799
   R27        2.03674   0.01042   0.00000   0.02754   0.02754   2.06428
   R28        2.61055   0.01249   0.00000   0.02522   0.02523   2.63579
   R29        2.03654   0.01047   0.00000   0.02767   0.02767   2.06421
   R30        2.60193   0.01640   0.00000   0.03192   0.03192   2.63385
   R31        2.03686   0.01038   0.00000   0.02744   0.02744   2.06430
   R32        2.03234   0.01172   0.00000   0.03073   0.03073   2.06307
    A1        1.91877   0.00665   0.00000   0.03923   0.03886   1.95762
    A2        1.91862   0.00663   0.00000   0.03914   0.03876   1.95738
    A3        1.89449  -0.00722   0.00000  -0.04383  -0.04357   1.85092
    A4        1.92992  -0.00446   0.00000  -0.02010  -0.02095   1.90897
    A5        1.90066  -0.00091   0.00000  -0.00798  -0.00773   1.89293
    A6        1.90082  -0.00090   0.00000  -0.00792  -0.00767   1.89316
    A7        2.00322   0.01627   0.00000   0.06120   0.06120   2.06442
    A8        2.05080  -0.00874   0.00000  -0.03207  -0.03208   2.01872
    A9        2.17577   0.00237   0.00000   0.00974   0.00973   2.18550
   A10        2.05662   0.00637   0.00000   0.02233   0.02233   2.07895
   A11        2.11480  -0.00178   0.00000  -0.00894  -0.00896   2.10584
   A12        2.06240   0.00122   0.00000   0.00636   0.00634   2.06873
   A13        2.10598   0.00056   0.00000   0.00256   0.00254   2.10853
   A14        2.10968  -0.00035   0.00000  -0.00061  -0.00062   2.10906
   A15        2.09969  -0.00178   0.00000  -0.01081  -0.01081   2.08888
   A16        2.07377   0.00214   0.00000   0.01147   0.01147   2.08524
   A17        2.11069  -0.00348   0.00000  -0.01472  -0.01471   2.09598
   A18        2.08879   0.00452   0.00000   0.02314   0.02313   2.11192
   A19        2.08371  -0.00103   0.00000  -0.00843  -0.00844   2.07527
   A20        2.11196   0.00005   0.00000   0.00255   0.00255   2.11451
   A21        2.09185  -0.00237   0.00000  -0.01458  -0.01459   2.07726
   A22        2.07929   0.00232   0.00000   0.01212   0.01211   2.09140
   A23        2.06260  -0.00081   0.00000  -0.00067  -0.00079   2.06181
   A24        2.09858   0.00366   0.00000   0.01248   0.01234   2.11092
   A25        2.12196  -0.00286   0.00000  -0.01206  -0.01218   2.10978
   A26        2.06758  -0.00294   0.00000  -0.01169  -0.01179   2.05579
   A27        2.12015   0.00027   0.00000   0.00040   0.00029   2.12044
   A28        2.09232   0.00262   0.00000   0.00928   0.00916   2.10148
   A29        1.94368  -0.00398   0.00000  -0.02558  -0.02550   1.91818
   A30        1.92028   0.00073   0.00000   0.00425   0.00401   1.92429
   A31        1.91893   0.00674   0.00000   0.04114   0.04108   1.96001
   A32        1.89341   0.00042   0.00000  -0.00302  -0.00312   1.89029
   A33        1.88427  -0.00157   0.00000  -0.00918  -0.00894   1.87533
   A34        1.90237  -0.00246   0.00000  -0.00823  -0.00857   1.89380
   A35        2.09750   0.00169   0.00000   0.00728   0.00725   2.10476
   A36        2.12264  -0.00310   0.00000  -0.01073  -0.01075   2.11189
   A37        2.06303   0.00141   0.00000   0.00352   0.00346   2.06649
   A38        2.11025  -0.00090   0.00000  -0.00453  -0.00455   2.10570
   A39        2.07295   0.00127   0.00000   0.00700   0.00700   2.07995
   A40        2.09989  -0.00037   0.00000  -0.00239  -0.00239   2.09750
   A41        2.09573   0.00189   0.00000   0.00934   0.00931   2.10504
   A42        2.09372  -0.00167   0.00000  -0.00883  -0.00885   2.08487
   A43        2.09374  -0.00021   0.00000  -0.00053  -0.00055   2.09319
   A44        2.09215  -0.00381   0.00000  -0.01402  -0.01401   2.07814
   A45        2.09544   0.00202   0.00000   0.00765   0.00764   2.10309
   A46        2.09560   0.00179   0.00000   0.00637   0.00636   2.10196
   A47        2.09836   0.00159   0.00000   0.00760   0.00759   2.10596
   A48        2.09199  -0.00003   0.00000   0.00055   0.00053   2.09252
   A49        2.09282  -0.00156   0.00000  -0.00819  -0.00820   2.08462
   A50        2.10684  -0.00018   0.00000  -0.00187  -0.00190   2.10494
   A51        2.08351   0.00105   0.00000   0.00654   0.00653   2.09003
   A52        2.09218  -0.00085   0.00000  -0.00426  -0.00428   2.08790
    D1       -1.06143  -0.00159   0.00000  -0.01419  -0.01504  -1.07647
    D2        1.06701   0.00152   0.00000   0.01194   0.01279   1.07980
    D3       -3.13875  -0.00003   0.00000  -0.00111  -0.00111  -3.13986
    D4        3.13925   0.00007   0.00000   0.00172   0.00168   3.14092
    D5       -0.00249  -0.00018   0.00000  -0.00527  -0.00523  -0.00771
    D6       -3.13915  -0.00030   0.00000  -0.00764  -0.00756   3.13647
    D7        0.00402   0.00017   0.00000   0.00445   0.00456   0.00858
    D8        0.00257  -0.00007   0.00000  -0.00113  -0.00110   0.00146
    D9       -3.13745   0.00040   0.00000   0.01096   0.01102  -3.12643
   D10        3.13960  -0.00017   0.00000  -0.00402  -0.00394   3.13566
   D11       -0.00066   0.00008   0.00000   0.00212   0.00226   0.00160
   D12       -0.00213  -0.00041   0.00000  -0.01105  -0.01107  -0.01320
   D13        3.14079  -0.00017   0.00000  -0.00490  -0.00487   3.13592
   D14        0.00172   0.00056   0.00000   0.01460   0.01466   0.01638
   D15       -3.12916   0.00036   0.00000   0.00944   0.00954  -3.11962
   D16       -3.14149   0.00008   0.00000   0.00221   0.00227  -3.13922
   D17        0.01082  -0.00012   0.00000  -0.00295  -0.00286   0.00796
   D18       -0.00634  -0.00055   0.00000  -0.01554  -0.01557  -0.02191
   D19       -3.13846   0.00048   0.00000   0.01376   0.01393  -3.12453
   D20        3.12469  -0.00037   0.00000  -0.01058  -0.01059   3.11410
   D21       -0.00743   0.00065   0.00000   0.01871   0.01891   0.01148
   D22       -0.00260   0.00040   0.00000   0.00995   0.00994   0.00734
   D23       -3.13053   0.00007   0.00000   0.00190   0.00197  -3.12856
   D24        3.13767   0.00016   0.00000   0.00384   0.00389   3.14156
   D25        0.00974  -0.00017   0.00000  -0.00420  -0.00408   0.00566
   D26        0.00679   0.00007   0.00000   0.00337   0.00331   0.01010
   D27        3.13877  -0.00093   0.00000  -0.02619  -0.02602   3.11275
   D28        3.13481   0.00036   0.00000   0.01116   0.01114  -3.13723
   D29       -0.01639  -0.00064   0.00000  -0.01841  -0.01819  -0.03459
   D30        2.59905  -0.00011   0.00000   0.00238   0.00230   2.60136
   D31       -0.62767  -0.00072   0.00000  -0.02453  -0.02445  -0.65211
   D32       -0.53274   0.00095   0.00000   0.03262   0.03254  -0.50019
   D33        2.52373   0.00033   0.00000   0.00571   0.00579   2.52952
   D34       -2.88609   0.00019   0.00000  -0.00578  -0.00591  -2.89200
   D35       -0.78601  -0.00139   0.00000  -0.02340  -0.02349  -0.80950
   D36        1.30937   0.00028   0.00000  -0.00494  -0.00471   1.30466
   D37        0.33923   0.00090   0.00000   0.02111   0.02097   0.36020
   D38        2.43931  -0.00067   0.00000   0.00349   0.00338   2.44270
   D39       -1.74850   0.00099   0.00000   0.02195   0.02217  -1.72633
   D40       -0.60663  -0.00065   0.00000  -0.02224  -0.02215  -0.62877
   D41        2.52916  -0.00009   0.00000  -0.00597  -0.00590   2.52326
   D42        2.44865  -0.00154   0.00000  -0.05054  -0.05061   2.39805
   D43       -0.69874  -0.00098   0.00000  -0.03427  -0.03436  -0.73310
   D44        3.14080   0.00007   0.00000   0.00316   0.00331  -3.13907
   D45       -0.01558   0.00031   0.00000   0.00933   0.00946  -0.00613
   D46        0.00482  -0.00046   0.00000  -0.01251  -0.01247  -0.00766
   D47        3.13162  -0.00022   0.00000  -0.00634  -0.00633   3.12529
   D48       -3.13926  -0.00063   0.00000  -0.01699  -0.01688   3.12705
   D49       -0.03669  -0.00016   0.00000  -0.00473  -0.00460  -0.04129
   D50       -0.00336  -0.00007   0.00000  -0.00102  -0.00096  -0.00433
   D51        3.09921   0.00039   0.00000   0.01125   0.01131   3.11052
   D52       -0.00245   0.00059   0.00000   0.01533   0.01534   0.01290
   D53        3.13769   0.00012   0.00000   0.00309   0.00310   3.14078
   D54       -3.12902   0.00034   0.00000   0.00899   0.00906  -3.11996
   D55        0.01111  -0.00014   0.00000  -0.00326  -0.00319   0.00792
   D56       -0.00148  -0.00018   0.00000  -0.00442  -0.00444  -0.00592
   D57       -3.14019  -0.00029   0.00000  -0.00757  -0.00759   3.13541
   D58        3.14157   0.00030   0.00000   0.00783   0.00787  -3.13375
   D59        0.00287   0.00018   0.00000   0.00468   0.00472   0.00759
   D60        0.00292  -0.00035   0.00000  -0.00902  -0.00902  -0.00610
   D61       -3.13276  -0.00002   0.00000  -0.00054  -0.00048  -3.13324
   D62       -3.14156  -0.00023   0.00000  -0.00586  -0.00588   3.13575
   D63        0.00595   0.00010   0.00000   0.00262   0.00266   0.00861
   D64       -0.00045   0.00047   0.00000   0.01170   0.01173   0.01128
   D65       -3.10283  -0.00005   0.00000  -0.00087  -0.00077  -3.10360
   D66        3.13523   0.00014   0.00000   0.00324   0.00326   3.13848
   D67        0.03285  -0.00037   0.00000  -0.00933  -0.00924   0.02361
         Item               Value     Threshold  Converged?
 Maximum Force            0.033833     0.000450     NO 
 RMS     Force            0.006304     0.000300     NO 
 Maximum Displacement     0.219556     0.001800     NO 
 RMS     Displacement     0.048810     0.001200     NO 
 Predicted change in Energy=-8.339438D-03
 GradGradGradGradGradGradGradGradGradGradGradGradGradGradGradGradGradGrad

                          Input orientation:                          
 ---------------------------------------------------------------------
 Center     Atomic      Atomic             Coordinates (Angstroms)
 Number     Number       Type             X           Y           Z
 ---------------------------------------------------------------------
      1          6           0        5.327392   -0.200619   -0.366779
      2          8           0        4.258681   -0.835446    0.290489
      3          6           0        3.008785   -0.296466    0.164393
      4          6           0        1.987047   -0.971795    0.839494
      5          6           0        0.680779   -0.511407    0.787011
      6          6           0        2.697063    0.853439   -0.565265
      7          6           0        1.378587    1.306499   -0.627676
      8          6           0        0.348994    0.632383    0.039073
      9          7           0       -0.973377    1.113801    0.000655
     10          6           0       -1.168584    2.542346   -0.156364
     11          6           0       -2.074876    0.237100   -0.023774
     12          6           0       -2.006422   -0.978468   -0.726767
     13          6           0       -3.096161   -1.844985   -0.754152
     14          6           0       -4.282754   -1.515809   -0.096611
     15          6           0       -4.360972   -0.307752    0.596168
     16          6           0       -3.269835    0.558326    0.640179
     17          1           0        5.192924   -0.186049   -1.461893
     18          1           0        5.486331    0.829243   -0.003710
     19          1           0        6.221127   -0.792850   -0.134450
     20          1           0        2.243770   -1.861360    1.418695
     21          1           0       -0.100559   -1.038849    1.336566
     22          1           0        3.469976    1.406604   -1.098622
     23          1           0        1.152952    2.199281   -1.212516
     24          1           0       -2.204090    2.805419    0.082093
     25          1           0       -0.505587    3.094773    0.526495
     26          1           0       -0.969972    2.881580   -1.188692
     27          1           0       -1.088843   -1.233696   -1.260222
     28          1           0       -3.021895   -2.784130   -1.307114
     29          1           0       -5.138392   -2.194280   -0.124105
     30          1           0       -5.280339   -0.040254    1.122006
     31          1           0       -3.337490    1.482812    1.216915
 ---------------------------------------------------------------------
                    Distance matrix (angstroms):
                    1          2          3          4          5
     1  C    0.000000
     2  O    1.406111   0.000000
     3  C    2.380602   1.366982   0.000000
     4  C    3.634241   2.341008   1.398492   0.000000
     5  C    4.797794   3.626695   2.419394   1.386019   0.000000
     6  C    2.840610   2.454241   1.397087   2.410176   2.785113
     7  C    4.234682   3.704848   2.419591   2.777308   2.406877
     8  C    5.063897   4.183705   2.820098   2.428432   1.406325
     9  N    6.446890   5.590886   4.227680   3.717187   2.448651
    10  C    7.054490   6.408148   5.060845   4.826897   3.692629
    11  C    7.423128   6.431413   5.115048   4.325030   2.968379
    12  C    7.383730   6.348763   5.139222   4.289641   3.119410
    13  C    8.591288   7.496943   6.364904   5.398257   4.291723
    14  C    9.703485   8.577229   7.397396   6.362598   5.140649
    15  C    9.736690   8.641199   7.382403   6.387293   5.049470
    16  C    8.689205   7.664427   6.354378   5.478669   4.095515
    17  H    1.103435   2.089347   2.725337   4.023857   5.052017
    18  H    1.103494   2.089226   2.726483   4.024887   5.051328
    19  H    1.097031   2.008378   3.264176   4.348335   5.623500
    20  H    3.931246   2.526898   2.146488   1.092110   2.159708
    21  H    5.750362   4.487608   3.404870   2.147016   1.091190
    22  H    2.562957   2.752902   2.169873   3.407661   3.874790
    23  H    4.888838   4.595013   3.401286   3.868098   3.401306
    24  H    8.121636   7.420697   6.066509   5.692683   4.452046
    25  H    6.758786   6.180661   4.897187   4.779976   3.805243
    26  H    7.059198   6.583546   5.268902   5.263649   4.259195
    27  H    6.559997   5.582054   4.438298   3.733430   2.800790
    28  H    8.790298   7.704316   6.687519   5.742995   4.822906
    29  H   10.656744   9.503857   8.370270   7.293482   6.125760
    30  H   10.712896   9.608155   8.348188   7.332290   5.989084
    31  H    8.967842   7.995899   6.674492   5.875222   4.506463
                    6          7          8          9         10
     6  C    0.000000
     7  C    1.395542   0.000000
     8  C    2.434649   1.399660   0.000000
     9  N    3.722927   2.442062   1.407802   0.000000
    10  C    4.238258   2.870110   2.447284   1.450346   0.000000
    11  C    4.841951   3.665341   2.456695   1.408014   2.480546
    12  C    5.050221   4.085239   2.954545   2.444159   3.663805
    13  C    6.393638   5.474598   4.316903   3.718919   4.829243
    14  C    7.385852   6.348089   5.107468   4.228035   5.115687
    15  C    7.246595   6.086554   4.835079   3.721727   4.345194
    16  C    6.094593   4.875967   3.669161   2.447706   2.997679
    17  H    2.848473   4.180046   5.136768   6.469306   7.043957
    18  H    2.845337   4.182184   5.141285   6.465974   6.873566
    19  H    3.913425   5.301012   6.045109   7.444089   8.107517
    20  H    3.392890   3.869303   3.422322   4.605698   5.789438
    21  H    3.876132   3.398055   2.163008   2.679622   4.024236
    22  H    1.089888   2.146094   3.410908   4.586669   4.867648
    23  H    2.148139   1.090875   2.160553   2.677933   2.573456
    24  H    5.315129   3.947924   3.352935   2.093528   1.094688
    25  H    4.058631   2.842560   2.651651   2.102281   1.100471
    26  H    4.236645   2.882941   2.882007   2.130633   1.104638
    27  H    4.378605   3.597349   2.690315   2.667187   3.934890
    28  H    6.818264   6.046414   4.984744   4.593533   5.755896
    29  H    8.418881   7.414853   6.174792   5.320368   6.180295
    30  H    8.202713   7.015442   5.771878   4.597737   5.021014
    31  H    6.323615   5.067049   3.962412   2.684118   2.777168
                   11         12         13         14         15
    11  C    0.000000
    12  C    1.405877   0.000000
    13  C    2.431369   1.392528   0.000000
    14  C    2.820056   2.422296   1.395966   0.000000
    15  C    2.430519   2.782790   2.405451   1.394798   0.000000
    16  C    1.404260   2.413812   2.783923   2.422994   1.393775
    17  H    7.420793   7.280036   8.483036   9.665440   9.773810
    18  H    7.584385   7.741574   9.020744  10.047035   9.930860
    19  H    8.360426   8.250931   9.396961  10.528800  10.618378
[...]
    18  H   -0.000313   0.000134  -0.000000   0.000002  -0.000001   0.000000
    19  H    0.000343  -0.000071  -0.000000   0.000000  -0.000000   0.000000
    20  H   -0.008633   0.017401  -0.000116   0.000009   0.000046  -0.000092
    21  H    0.013566  -0.057811  -0.001627  -0.000039   0.000166  -0.002083
    22  H   -0.014386   0.009657  -0.000098   0.000022   0.000003  -0.000001
    23  H    0.420530  -0.059436  -0.005918   0.004904  -0.001597   0.000490
    24  H   -0.000065   0.007609  -0.026989   0.405284  -0.008564  -0.001469
    25  H   -0.006723  -0.003786  -0.042416   0.412517   0.015639  -0.001844
    26  H    0.011941  -0.009638  -0.054811   0.408704  -0.011101   0.007465
    27  H    0.002376   0.000649  -0.005322   0.000031  -0.043123   0.432771
    28  H    0.000003   0.000091  -0.000193   0.000005   0.012349  -0.053674
    29  H    0.000000   0.000002   0.000015  -0.000001  -0.003855   0.012093
    30  H   -0.000003  -0.000017  -0.000215   0.000025   0.014350  -0.004443
    31  H    0.000033   0.000984   0.006424  -0.003638  -0.050490   0.007957
              13         14         15         16         17         18
     1  C   -0.000000   0.000000   0.000000   0.000000   0.413126   0.412151
     2  O    0.000000  -0.000000  -0.000000   0.000000  -0.043122  -0.042730
     3  C   -0.000037   0.000005  -0.000002   0.000065  -0.017728  -0.017817
     4  C    0.000044  -0.000040  -0.000003  -0.000001   0.000652   0.000566
     5  C   -0.001219   0.000276  -0.000004   0.005167  -0.000198  -0.000254
     6  C    0.000084  -0.000009  -0.000003   0.000039   0.014599   0.013689
     7  C   -0.001134   0.000147   0.000054   0.000387  -0.001769  -0.000313
     8  C   -0.003493   0.001285  -0.000612  -0.009593   0.000311   0.000134
     9  N    0.006899   0.000709   0.003422  -0.039537   0.000002  -0.000000
    10  C   -0.000046   0.000004   0.001627  -0.007851  -0.000002   0.000002
    11  C   -0.005301  -0.076551  -0.029170   0.472886   0.000002  -0.000001
    12  C    0.410783   0.025705  -0.056462   0.014907  -0.000001   0.000000
    13  C    4.928335   0.443998  -0.003955  -0.054919  -0.000000   0.000000
    14  C    0.443998   4.940252   0.462308   0.005583   0.000000  -0.000000
    15  C   -0.003955   0.462308   4.858006   0.472015  -0.000000   0.000000
    16  C   -0.054919   0.005583   0.472015   5.048112   0.000000  -0.000000
    17  H   -0.000000   0.000000  -0.000000   0.000000   0.594940  -0.058621
    18  H    0.000000  -0.000000   0.000000  -0.000000  -0.058621   0.595476
    19  H    0.000000  -0.000000   0.000000   0.000000  -0.020275  -0.020493
    20  H    0.000007  -0.000003   0.000002  -0.000009   0.000135   0.000100
    21  H   -0.000800   0.000321   0.000145   0.000384  -0.000001  -0.000001
    22  H   -0.000000  -0.000000   0.000000  -0.000001   0.000809   0.001333
    23  H   -0.000019   0.000001   0.000007  -0.000036  -0.000056  -0.000021
    24  H    0.000477  -0.000182   0.000319  -0.001897   0.000000  -0.000000
    25  H    0.000154  -0.000035  -0.000158  -0.000735   0.000001  -0.000002
    26  H   -0.000997   0.000117   0.000027   0.003568  -0.000001   0.000001
    27  H   -0.040431   0.007506  -0.001887   0.007448   0.000001  -0.000000
    28  H    0.439955  -0.056506   0.010548  -0.003373  -0.000000   0.000000
    29  H   -0.057175   0.444921  -0.057462   0.011722   0.000000  -0.000000
    30  H    0.011430  -0.056970   0.441252  -0.056033   0.000000  -0.000000
    31  H   -0.002114   0.006871  -0.028602   0.419130  -0.000000   0.000000
              19         20         21         22         23         24
     1  C    0.401183  -0.000166   0.000016   0.009852  -0.000134   0.000000
     2  O   -0.030901   0.008357  -0.000090  -0.006413  -0.000027  -0.000000
     3  C    0.007401  -0.079337   0.013605  -0.068123   0.005731  -0.000043
     4  C   -0.000389   0.453918  -0.052760   0.002916   0.000560   0.000087
     5  C    0.000125  -0.063361   0.446444  -0.000398   0.001937  -0.000466
     6  C   -0.002939   0.022801  -0.006143   0.425064  -0.012487   0.000178
     7  C    0.000343  -0.008633   0.013566  -0.014386   0.420530  -0.000065
     8  C   -0.000071   0.017401  -0.057811   0.009657  -0.059436   0.007609
     9  N   -0.000000  -0.000116  -0.001627  -0.000098  -0.005918  -0.026989
    10  C    0.000000   0.000009  -0.000039   0.000022   0.004904   0.405284
    11  C   -0.000000   0.000046   0.000166   0.000003  -0.001597  -0.008564
    12  C    0.000000  -0.000092  -0.002083  -0.000001   0.000490  -0.001469
    13  C    0.000000   0.000007  -0.000800  -0.000000  -0.000019   0.000477
    14  C   -0.000000  -0.000003   0.000321  -0.000000   0.000001  -0.000182
    15  C    0.000000   0.000002   0.000145   0.000000   0.000007   0.000319
    16  C    0.000000  -0.000009   0.000384  -0.000001  -0.000036  -0.001897
    17  H   -0.020275   0.000135  -0.000001   0.000809  -0.000056   0.000000
    18  H   -0.020493   0.000100  -0.000001   0.001333  -0.000021  -0.000000
    19  H    0.528071  -0.000197   0.000000  -0.000399   0.000003  -0.000000
    20  H   -0.000197   0.537814  -0.008921  -0.000016   0.000019   0.000000
    21  H    0.000000  -0.008921   0.509738   0.000005  -0.000140  -0.000049
    22  H   -0.000399  -0.000016   0.000005   0.519479  -0.005296   0.000001
    23  H    0.000003   0.000019  -0.000140  -0.005296   0.524109   0.000090
    24  H   -0.000000   0.000000  -0.000049   0.000001   0.000090   0.531129
    25  H   -0.000000   0.000001  -0.000059  -0.000027  -0.007743  -0.009564
    26  H    0.000000  -0.000001   0.000063  -0.000017   0.006139  -0.031357
    27  H   -0.000000  -0.000006  -0.000461  -0.000003   0.000044  -0.000173
    28  H    0.000000   0.000001  -0.000010   0.000000   0.000000   0.000001
    29  H   -0.000000  -0.000000   0.000003  -0.000000   0.000000  -0.000001
    30  H   -0.000000   0.000000  -0.000008  -0.000000  -0.000000   0.000047
    31  H    0.000000   0.000000  -0.000015   0.000000   0.000007  -0.003074
              25         26         27         28         29         30
     1  C   -0.000001   0.000000   0.000000  -0.000000   0.000000  -0.000000
     2  O    0.000001   0.000000  -0.000002   0.000000  -0.000000  -0.000000
     3  C   -0.000360   0.000306   0.000028  -0.000003   0.000000  -0.000000
     4  C    0.000048  -0.000182  -0.000184  -0.000003  -0.000000   0.000000
     5  C    0.001199  -0.000932  -0.000591  -0.000110   0.000003   0.000002
     6  C    0.001578  -0.001533  -0.000064   0.000001  -0.000000   0.000000
     7  C   -0.006723   0.011941   0.002376   0.000003   0.000000  -0.000003
     8  C   -0.003786  -0.009638   0.000649   0.000091   0.000002  -0.000017
     9  N   -0.042416  -0.054811  -0.005322  -0.000193   0.000015  -0.000215
    10  C    0.412517   0.408704   0.000031   0.000005  -0.000001   0.000025
    11  C    0.015639  -0.011101  -0.043123   0.012349  -0.003855   0.014350
    12  C   -0.001844   0.007465   0.432771  -0.053674   0.012093  -0.004443
    13  C    0.000154  -0.000997  -0.040431   0.439955  -0.057175   0.011430
    14  C   -0.000035   0.000117   0.007506  -0.056506   0.444921  -0.056970
    15  C   -0.000158   0.000027  -0.001887   0.010548  -0.057462   0.441252
    16  C   -0.000735   0.003568   0.007448  -0.003373   0.011722  -0.056033
    17  H    0.000001  -0.000001   0.000001  -0.000000   0.000000   0.000000
    18  H   -0.000002   0.000001  -0.000000   0.000000  -0.000000  -0.000000
    19  H   -0.000000   0.000000  -0.000000   0.000000  -0.000000  -0.000000
    20  H    0.000001  -0.000001  -0.000006   0.000001  -0.000000   0.000000
    21  H   -0.000059   0.000063  -0.000461  -0.000010   0.000003  -0.000008
    22  H   -0.000027  -0.000017  -0.000003   0.000000  -0.000000  -0.000000
    23  H   -0.007743   0.006139   0.000044   0.000000   0.000000  -0.000000
    24  H   -0.009564  -0.031357  -0.000173   0.000001  -0.000001   0.000047
    25  H    0.552399  -0.048727  -0.000055  -0.000000   0.000000   0.000006
    26  H   -0.048727   0.599683   0.000622   0.000002   0.000000  -0.000013
    27  H   -0.000055   0.000622   0.499534  -0.006291  -0.000082   0.000016
    28  H   -0.000000   0.000002  -0.006291   0.543460  -0.006881  -0.000150
    29  H    0.000000   0.000000  -0.000082  -0.006881   0.544969  -0.006918
    30  H    0.000006  -0.000013   0.000016  -0.000150  -0.006918   0.546263
    31  H   -0.000647   0.000856  -0.000140   0.000036  -0.000101  -0.007092
              31
     1  C   -0.000000
     2  O    0.000000
     3  C   -0.000001
     4  C    0.000019
     5  C   -0.000193
     6  C   -0.000004
     7  C    0.000033
     8  C    0.000984
     9  N    0.006424
    10  C   -0.003638
    11  C   -0.050490
    12  C    0.007957
    13  C   -0.002114
    14  C    0.006871
    15  C   -0.028602
    16  C    0.419130
    17  H   -0.000000
    18  H    0.000000
    19  H    0.000000
    20  H    0.000000
    21  H   -0.000015
    22  H    0.000000
    23  H    0.000007
    24  H   -0.003074
    25  H   -0.000647
    26  H    0.000856
    27  H   -0.000140
    28  H    0.000036
    29  H   -0.000101
    30  H   -0.007092
    31  H    0.516328
 Mulliken charges:
               1
     1  C   -0.202912
     2  O   -0.290365
     3  C    0.343444
     4  C   -0.198935
     5  C   -0.207173
     6  C   -0.260795
     7  C   -0.286844
     8  C    0.180674
     9  N   -0.069959
    10  C   -0.303429
    11  C    0.212595
    12  C   -0.271976
    13  C   -0.070530
    14  C   -0.149711
    15  C   -0.071413
    16  C   -0.287429
    17  H    0.117196
    18  H    0.116801
    19  H    0.138538
    20  H    0.120247
    21  H    0.146563
    22  H    0.126036
    23  H    0.128337
    24  H    0.138673
    25  H    0.139338
    26  H    0.119814
    27  H    0.147790
    28  H    0.120742
    29  H    0.118748
    30  H    0.118471
    31  H    0.137465
 Sum of Mulliken charges =   0.00000
 Mulliken charges with hydrogens summed into heavy atoms:
               1
     1  C    0.169623
     2  O   -0.290365
     3  C    0.343444
     4  C   -0.078689
     5  C   -0.060610
     6  C   -0.134759
     7  C   -0.158507
     8  C    0.180674
     9  N   -0.069959
    10  C    0.094396
    11  C    0.212595
    12  C   -0.124186
    13  C    0.050212
    14  C   -0.030964
    15  C    0.047058
    16  C   -0.149964
 Electronic spatial extent (au):  <R**2>=           4731.4708
 Charge=              0.0000 electrons
 Dipole moment (field-independent basis, Debye):
    X=             -0.2561    Y=              1.2696    Z=              0.7176  Tot=              1.4807
 Quadrupole moment (field-independent basis, Debye-Ang):
   XX=            -81.7040   YY=            -89.6802   ZZ=            -96.2114
   XY=             -3.0054   XZ=             -5.4906   YZ=             -0.7159
 Traceless Quadrupole moment (field-independent basis, Debye-Ang):
   XX=              7.4945   YY=             -0.4816   ZZ=             -7.0128
   XY=             -3.0054   XZ=             -5.4906   YZ=             -0.7159
 Octapole moment (field-independent basis, Debye-Ang**2):
  XXX=            -67.7892  YYY=              7.7026  ZZZ=              0.2626  XYY=              4.5704
  XXY=              1.0551  XXZ=              2.4056  XZZ=             -5.0693  YZZ=             -2.5936
  YYZ=              4.1096  XYZ=            -11.6710
 Hexadecapole moment (field-independent basis, Debye-Ang**3):
 XXXX=          -4547.4811 YYYY=           -896.5233 ZZZZ=           -333.3350 XXXY=            -53.6174
 XXXZ=           -146.3220 YYYX=             17.6719 YYYZ=             -2.7951 ZZZX=             -7.7907
 ZZZY=             -4.8655 XXYY=          -1000.2476 XXZZ=           -934.7489 YYZZ=           -195.6416
 XXYZ=            -35.0351 YYXZ=             12.4831 ZZXY=              8.8581
 N-N= 1.019260234983D+03 E-N=-3.601951729734D+03  KE= 6.688010257665D+02
 Breneman (CHELPG) radii used.
 Read replacement radii for each type of atom:
 Atom Element Radius
    1     6    1.50
    2     8    1.70
    3     6    1.50
    4     6    1.50
    5     6    1.50
    6     6    1.50
    7     6    1.50
    8     6    1.50
    9     7    1.70
   10     6    1.50
   11     6    1.50
   12     6    1.50
   13     6    1.50
   14     6    1.50
   15     6    1.50
   16     6    1.50
   17     1    1.45
   18     1    1.45
   19     1    1.45
   20     1    1.45
   21     1    1.45
   22     1    1.45
   23     1    1.45
   24     1    1.45
   25     1    1.45
   26     1    1.45
   27     1    1.45
   28     1    1.45
   29     1    1.45
   30     1    1.45
   31     1    1.45
 Generate Potential Derived Charges using the Breneman model, NDens= 1.
 Grid spacing= 0.300 Box extension= 2.800
 NStep X,Y,Z=   57     39     31   Total possible points=       68913
 Number of Points to Fit=   18933

 **********************************************************************

            Electrostatic Properties Using The SCF Density.

 **********************************************************************

       Atomic Center    1 is at  -5.304826 -0.414726  0.282351
       Atomic Center    2 is at  -4.199246 -1.061919 -0.277718
       Atomic Center    3 is at  -2.986082 -0.464521 -0.194554
       Atomic Center    4 is at  -1.909461 -1.156217 -0.770845
       Atomic Center    5 is at  -0.632445 -0.627411 -0.746700
       Atomic Center    6 is at  -2.742637  0.767962  0.406924
       Atomic Center    7 is at  -1.444757  1.292484  0.444816
       Atomic Center    8 is at  -0.365666  0.611113 -0.125580
       Atomic Center    9 is at   0.932110  1.145797 -0.139714
       Atomic Center   10 is at   1.108244  2.546363  0.174697
       Atomic Center   11 is at   2.056424  0.295840 -0.012445
       Atomic Center   12 is at   2.055131 -0.787751  0.878025
       Atomic Center   13 is at   3.174896 -1.606794  0.995475
       Atomic Center   14 is at   4.322521 -1.350215  0.245816
       Atomic Center   15 is at   4.334009 -0.269021 -0.634498
       Atomic Center   16 is at   3.209211  0.540263 -0.771746
       Atomic Center   17 is at  -5.187234 -0.264379  1.370708
       Atomic Center   18 is at  -5.491737  0.566358 -0.190449
       Atomic Center   19 is at  -6.173724 -1.061377  0.107594
       Atomic Center   20 is at  -2.107794 -2.115027 -1.253218
       Atomic Center   21 is at   0.183511 -1.176639 -1.219731
       Atomic Center   22 is at  -3.549088  1.341999  0.864017
       Atomic Center   23 is at  -1.294057  2.252469  0.938893
       Atomic Center   24 is at   2.133429  2.853256 -0.064768
       Atomic Center   25 is at   0.419064  3.163991 -0.421327
       Atomic Center   26 is at   0.936291  2.770119  1.245933
       Atomic Center   27 is at   1.163590 -0.986801  1.475985
       Atomic Center   28 is at   3.153567 -2.447573  1.692699
       Atomic Center   29 is at   5.201273 -1.990501  0.345126
       Atomic Center   30 is at   5.222105 -0.061728 -1.235882
       Atomic Center   31 is at   3.212657  1.366398 -1.486250
   18933 points will be used for fitting atomic charges
 Fitting point charges to electrostatic potential
 Charges from ESP fit, RMS=   0.00373 RRMS=   0.35255:
 ESP charges:
               1
     1  C    0.182876
     2  O   -0.387805
     3  C    0.366268
     4  C   -0.229399
     5  C   -0.164030
     6  C   -0.267986
     7  C   -0.207522
     8  C    0.311367
     9  N   -0.451432
    10  C    0.091967
    11  C    0.361874
    12  C   -0.132922
    13  C   -0.112435
    14  C   -0.124789
    15  C   -0.077199
    16  C   -0.243554
    17  H   -0.002442
    18  H   -0.005240
    19  H    0.041221
    20  H    0.135118
    21  H    0.089862
    22  H    0.136393
    23  H    0.131842
    24  H    0.027365
    25  H    0.023724
    26  H    0.001053
    27  H    0.070417
    28  H    0.106440
    29  H    0.095925
    30  H    0.096299
    31  H    0.136743
 Sum of ESP charges =  -0.00000
 ESP charges with hydrogens summed into heavy atoms:
               1
     1  C    0.216416
     2  O   -0.387805
     3  C    0.366268
     4  C   -0.094280
     5  C   -0.074168
     6  C   -0.131593
     7  C   -0.075681
     8  C    0.311367
     9  N   -0.451432
    10  C    0.144109
    11  C    0.361874
    12  C   -0.062506
    13  C   -0.005995
    14  C   -0.028864
    15  C    0.019101
    16  C   -0.106811
 Charge=  -0.00000 Dipole=    -0.1972     1.3243     0.7132 Tot=     1.5170
 -----------------------------------------------------------------

              Electrostatic Properties (Atomic Units)

 -----------------------------------------------------------------
    Center     Electric         -------- Electric Field --------
               Potential          X             Y             Z
 -----------------------------------------------------------------
    1 Atom    -14.717136
    2 Atom    -22.331675
    3 Atom    -14.718145
    4 Atom    -14.777205
    5 Atom    -14.775288
    6 Atom    -14.773625
    7 Atom    -14.774023
    8 Atom    -14.735009
    9 Atom    -18.364607
   10 Atom    -14.738192
   11 Atom    -14.728872
   12 Atom    -14.772979
   13 Atom    -14.768961
   14 Atom    -14.772873
   15 Atom    -14.768142
   16 Atom    -14.771333
   17 Atom     -1.109961
   18 Atom     -1.109970
   19 Atom     -1.107806
   20 Atom     -1.110143
   21 Atom     -1.111127
   22 Atom     -1.103461
   23 Atom     -1.107688
   24 Atom     -1.107142
   25 Atom     -1.112228
   26 Atom     -1.117970
   27 Atom     -1.107725
   28 Atom     -1.108430
   29 Atom     -1.109424
   30 Atom     -1.107178
   31 Atom     -1.104059
 -----------------------------------------------------------------
 Unable to Open any file for archive entry.
 1\1\GINC-NOTCH445\SP\RwB97XD\def2TZVP\C14H15N1O1\U1366379\17-Feb-2026\
 0\\#N Guess=Read Geom=Check Integral(Ultrafine) Density Pop=(ChelpG,Re
 adRadii) NMR wB97XD def2TZVP\\prod_5e_5\\0,1\C,0,5.3181724643,-0.21115
 59802,-0.3291419271\O,0,4.2452082868,-0.8570163792,0.2925129053\C,0,3.
 0092411908,-0.3124582136,0.1857021033\C,0,1.9671111034,-1.0004411046,0
 .8262589514\C,0,0.6707013116,-0.5223837762,0.7841752063\C,0,2.71147684
 91,0.8638546234,-0.4981676947\C,0,1.3942079717,1.3358839613,-0.5533370
 982\C,0,0.34914273,0.6576783408,0.080643595\N,0,-0.967748052,1.1435718
 033,0.0766377073\C,0,-1.2010049259,2.5104982316,-0.3339274799\C,0,-2.0
 60443127,0.2456236073,0.027501892\C,0,-2.0292366224,-0.8982418328,-0.7
 83488162\C,0,-3.1184376011,-1.7645035001,-0.825102642\C,0,-4.265384130
 7,-1.4975015792,-0.078048716\C,0,-4.3068143036,-0.3571310231,0.7231401
 783\C,0,-3.2119621504,0.5010098987,0.7851169385\H,0,5.1811415625,-0.14
 37024151,-1.4235024269\H,0,5.4736165443,0.8075547835,0.0696903652\H,0,
 6.2131866422,-0.8109879629,-0.1221810542\H,0,2.2078781062,-1.914186739
 2,1.3725526252\H,0,-0.1177027096,-1.0661149702,1.3075952213\H,0,3.4896
 422324,1.4331055659,-1.0073122105\H,0,1.2008422201,2.2517249821,-1.112
 1195772\H,0,-2.2339996335,2.795597377,-0.1011782092\H,0,-0.5283069451,
 3.1943755672,0.2059490126\H,0,-1.0512992343,2.6630721176,-1.4208921722
 \H,0,-1.1384319411,-1.1065071267,-1.3794024711\H,0,-3.073994664,-2.651
 7486867,-1.4609524374\H,0,-5.120334762,-2.1753632096,-0.1180012596\H,0
 ,-5.1944483151,-0.1402767459,1.3218300807\H,0,-3.2377600976,1.37556038
 54,1.4389687559\\Version=ES64L-G16RevC.01\State=1-A\HF=-672.4911621\RM
 SD=3.237e-09\Dipole=0.0781093,0.4813366,-0.3186841\Quadrupole=5.287743
 5,-0.1555647,-5.1321788,2.1480968,-4.3980968,-0.0106722\PG=C01 [X(C14H
 15N1O1)]\\@
 The archive entry for this job was punched.


 IN NATURE THERE ARE NEITHER REWARDS OR
 PUNISHMENTS -- THERE ARE CONSEQUENCES.

                            -- ROBERT GREEN INGERSOLL
 Job cpu time:       0 days  0 hours 49 minutes 46.1 seconds.
 Elapsed time:       0 days  0 hours  6 minutes 25.5 seconds.
 File lengths (MBytes):  RWF=    209 Int=      0 D2E=      0 Chk=     32 Scr=      2
 Normal termination of Gaussian 16 at Tue Feb 17 16:14:02 2026.
