 Entering Gaussian System, Link 0=g16
 Input=prod_5l_27.com
 Output=prod_5l_27.log
 Initial command:
 /uufs/chpc.utah.edu/sys/installdir/gaussian16/C01/AVX/g16/l1.exe "/scratch/general/vast/u1366379/GAUSSSCRDIR/11028702-notchpeak.peaks/Gau-794072.inp" -scrdir="/scratch/general/vast/u1366379/GAUSSSCRDIR/11028702-notchpeak.peaks/"
 Entering Link 1 = /uufs/chpc.utah.edu/sys/installdir/gaussian16/C01/AVX/g16/l1.exe PID=    794073.
  
 Copyright (c) 1988-2019, Gaussian, Inc.  All Rights Reserved.
  
 This is part of the Gaussian(R) 16 program.  It is based on
 the Gaussian(R) 09 system (copyright 2009, Gaussian, Inc.),
 the Gaussian(R) 03 system (copyright 2003, Gaussian, Inc.),
 the Gaussian(R) 98 system (copyright 1998, Gaussian, Inc.),
 the Gaussian(R) 94 system (copyright 1995, Gaussian, Inc.),
 the Gaussian 92(TM) system (copyright 1992, Gaussian, Inc.),
 the Gaussian 90(TM) system (copyright 1990, Gaussian, Inc.),
 the Gaussian 88(TM) system (copyright 1988, Gaussian, Inc.),
 the Gaussian 86(TM) system (copyright 1986, Carnegie Mellon
 University), and the Gaussian 82(TM) system (copyright 1983,
 Carnegie Mellon University). Gaussian is a federally registered
 trademark of Gaussian, Inc.
  
 This software contains proprietary and confidential information,
 including trade secrets, belonging to Gaussian, Inc.
  
 This software is provided under written license and may be
 used, copied, transmitted, or stored only in accord with that
 written license.
  
 The following legend is applicable only to US Government
 contracts under FAR:
  
                    RESTRICTED RIGHTS LEGEND
  
 Use, reproduction and disclosure by the US Government is
 subject to restrictions as set forth in subparagraphs (a)
 and (c) of the Commercial Computer Software - Restricted
 Rights clause in FAR 52.227-19.
  
 Gaussian, Inc.
 340 Quinnipiac St., Bldg. 40, Wallingford CT 06492
  
  
 ---------------------------------------------------------------
 Warning -- This program may not be used in any manner that
 competes with the business of Gaussian, Inc. or will provide
 assistance to any competitor of Gaussian, Inc.  The licensee
 of this program is prohibited from giving any competitor of
 Gaussian, Inc. access to this program.  By using this program,
 the user acknowledges that Gaussian, Inc. is engaged in the
 business of creating and licensing software in the field of
 computational chemistry and represents and warrants to the
 licensee that it is not a competitor of Gaussian, Inc. and that
 it will not use this program in any manner prohibited above.
 ---------------------------------------------------------------
  

 Cite this work as:
 Gaussian 16, Revision C.01,
 M. J. Frisch, G. W. Trucks, H. B. Schlegel, G. E. Scuseria, 
 M. A. Robb, J. R. Cheeseman, G. Scalmani, V. Barone, 
 G. A. Petersson, H. Nakatsuji, X. Li, M. Caricato, A. V. Marenich, 
 J. Bloino, B. G. Janesko, R. Gomperts, B. Mennucci, H. P. Hratchian, 
 J. V. Ortiz, A. F. Izmaylov, J. L. Sonnenberg, D. Williams-Young, 
 F. Ding, F. Lipparini, F. Egidi, J. Goings, B. Peng, A. Petrone, 
 T. Henderson, D. Ranasinghe, V. G. Zakrzewski, J. Gao, N. Rega, 
 G. Zheng, W. Liang, M. Hada, M. Ehara, K. Toyota, R. Fukuda, 
 J. Hasegawa, M. Ishida, T. Nakajima, Y. Honda, O. Kitao, H. Nakai, 
 T. Vreven, K. Throssell, J. A. Montgomery, Jr., J. E. Peralta, 
 F. Ogliaro, M. J. Bearpark, J. J. Heyd, E. N. Brothers, K. N. Kudin, 
 V. N. Staroverov, T. A. Keith, R. Kobayashi, J. Normand, 
 K. Raghavachari, A. P. Rendell, J. C. Burant, S. S. Iyengar, 
 J. Tomasi, M. Cossi, J. M. Millam, M. Klene, C. Adamo, R. Cammi, 
 J. W. Ochterski, R. L. Martin, K. Morokuma, O. Farkas, 
 J. B. Foresman, and D. J. Fox, Gaussian, Inc., Wallingford CT, 2019.
 
 ******************************************
 Gaussian 16:  ES64L-G16RevC.01  3-Jul-2019
                17-Feb-2026 
 ******************************************
 %NProcShared=8
 Will use up to    8 processors via shared memory.
 %Mem=8GB
 %chk=prod_5l_27.chk
 ------------------------------------------------------
 #N OPT FREQ=NORAMAN Integral(Ultrafine) wB97XD def2SVP
 ------------------------------------------------------
 1/18=20,19=15,26=4,38=1/1,3;
 2/9=110,12=2,17=6,18=5,40=1/2;
 3/5=43,7=101,11=2,25=1,30=1,71=1,74=-58,75=-5/1,2,3;
 4//1;
 5/5=2,38=5/2;
 6/7=2,8=2,9=2,10=2,28=1/1;
 7//1,2,3,16;
 1/18=20,19=15,26=4/3(2);
 2/9=110/2;
 99//99;
 2/9=110/2;
 3/5=43,7=101,11=2,25=1,30=1,71=1,74=-58,75=-5/1,2,3;
 4/5=5,16=3,69=1/1;
 5/5=2,38=5/2;
 7//1,2,3,16;
 1/18=20,19=15,26=4/3(-5);
 2/9=110/2;
 6/7=2,8=2,9=2,10=2,19=2,28=1/1;
 99/9=1/99;
 ----------
 prod_5l_27
 ----------
 Symbolic Z-matrix:
 Charge =  0 Multiplicity = 1
 O                    -0.36729   2.90144   0.40133 
 S                     0.00732   1.60529  -0.25471 
 N                     0.99698   0.78129   0.87225 
 C                     2.04869  -0.05005   0.48852 
 C                     2.26783  -0.45076  -0.83366 
 C                     3.29608  -1.30282  -1.15749 
 C                     4.13769  -1.77859  -0.17217 
 C                     3.94721  -1.39287   1.1398 
 C                     2.91914  -0.54059   1.46805 
 C                    -1.38802   0.48441  -0.11348 
 C                    -2.16401   0.49935   1.02012 
 C                    -3.23097  -0.3687    1.13503 
 C                    -3.52629  -1.26358   0.11657 
 C                    -4.69048  -2.18321   0.22838 
 C                    -2.73981  -1.25511  -1.02633 
 C                    -1.67369  -0.38591  -1.13765 
 O                     0.46922   1.53893  -1.6804 
 H                     1.18993   1.45829   1.58427 
 H                     1.63535  -0.05206  -1.60461 
 H                     3.45009  -1.59377  -2.18362 
 H                     4.94428  -2.44596  -0.42715 
 H                     4.60526  -1.76218   1.90905 
 H                     2.76205  -0.24592   2.49067 
 H                    -1.93275   1.19848   1.80695 
 H                    -3.84498  -0.35474   2.01892 
 H                    -4.88647  -2.44497   1.26855 
 H                    -5.58969  -1.71935  -0.17779 
 H                    -4.513    -3.11004  -0.3179 
 H                    -2.9703   -1.93258  -1.8303 
 H                    -1.06227  -0.37103  -2.02476 
 

 GradGradGradGradGradGradGradGradGradGradGradGradGradGradGradGradGradGrad
 Berny optimization.
 Initialization pass.
                           ----------------------------
                           !    Initial Parameters    !
                           ! (Angstroms and Degrees)  !
 --------------------------                            --------------------------
 ! Name  Definition              Value          Derivative Info.                !
 --------------------------------------------------------------------------------
 ! R1    R(1,2)                  1.5002         estimate D2E/DX2                !
 ! R2    R(2,3)                  1.7113         estimate D2E/DX2                !
 ! R3    R(2,10)                 1.7954         estimate D2E/DX2                !
 ! R4    R(2,17)                 1.5001         estimate D2E/DX2                !
 ! R5    R(3,4)                  1.3944         estimate D2E/DX2                !
 ! R6    R(3,18)                 1.0013         estimate D2E/DX2                !
 ! R7    R(4,5)                  1.3988         estimate D2E/DX2                !
 ! R8    R(4,9)                  1.3992         estimate D2E/DX2                !
 ! R9    R(5,6)                  1.3741         estimate D2E/DX2                !
 ! R10   R(5,19)                 1.0739         estimate D2E/DX2                !
 ! R11   R(6,7)                  1.3804         estimate D2E/DX2                !
 ! R12   R(6,20)                 1.0776         estimate D2E/DX2                !
 ! R13   R(7,8)                  1.3807         estimate D2E/DX2                !
 ! R14   R(7,21)                 1.0775         estimate D2E/DX2                !
 ! R15   R(8,9)                  1.3752         estimate D2E/DX2                !
 ! R16   R(8,22)                 1.0776         estimate D2E/DX2                !
 ! R17   R(9,23)                 1.0758         estimate D2E/DX2                !
 ! R18   R(10,11)                1.3738         estimate D2E/DX2                !
 ! R19   R(10,16)                1.374          estimate D2E/DX2                !
 ! R20   R(11,12)                1.3803         estimate D2E/DX2                !
 ! R21   R(11,24)                1.0777         estimate D2E/DX2                !
 ! R22   R(12,13)                1.3875         estimate D2E/DX2                !
 ! R23   R(12,25)                1.0763         estimate D2E/DX2                !
 ! R24   R(13,14)                1.4878         estimate D2E/DX2                !
 ! R25   R(13,15)                1.3874         estimate D2E/DX2                !
 ! R26   R(14,26)                1.0904         estimate D2E/DX2                !
 ! R27   R(14,27)                1.0903         estimate D2E/DX2                !
 ! R28   R(14,28)                1.0904         estimate D2E/DX2                !
 ! R29   R(15,16)                1.38           estimate D2E/DX2                !
 ! R30   R(15,29)                1.0763         estimate D2E/DX2                !
 ! R31   R(16,30)                1.0775         estimate D2E/DX2                !
 ! A1    A(1,2,3)              105.8094         estimate D2E/DX2                !
 ! A2    A(1,2,10)             108.115          estimate D2E/DX2                !
 ! A3    A(1,2,17)             122.0526         estimate D2E/DX2                !
 ! A4    A(3,2,10)              95.5689         estimate D2E/DX2                !
 ! A5    A(3,2,17)             115.2462         estimate D2E/DX2                !
 ! A6    A(10,2,17)            106.6455         estimate D2E/DX2                !
 ! A7    A(2,3,4)              122.8215         estimate D2E/DX2                !
 ! A8    A(2,3,18)             104.7252         estimate D2E/DX2                !
 ! A9    A(4,3,18)             116.9654         estimate D2E/DX2                !
 ! A10   A(3,4,5)              123.3012         estimate D2E/DX2                !
 ! A11   A(3,4,9)              119.0494         estimate D2E/DX2                !
 ! A12   A(5,4,9)              117.6332         estimate D2E/DX2                !
 ! A13   A(4,5,6)              121.1719         estimate D2E/DX2                !
 ! A14   A(4,5,19)             118.6801         estimate D2E/DX2                !
 ! A15   A(6,5,19)             120.1144         estimate D2E/DX2                !
 ! A16   A(5,6,7)              120.1145         estimate D2E/DX2                !
 ! A17   A(5,6,20)             119.9179         estimate D2E/DX2                !
 ! A18   A(7,6,20)             119.9659         estimate D2E/DX2                !
 ! A19   A(6,7,8)              119.8586         estimate D2E/DX2                !
 ! A20   A(6,7,21)             120.0634         estimate D2E/DX2                !
 ! A21   A(8,7,21)             120.0774         estimate D2E/DX2                !
 ! A22   A(7,8,9)              120.2052         estimate D2E/DX2                !
 ! A23   A(7,8,22)             119.8905         estimate D2E/DX2                !
 ! A24   A(9,8,22)             119.9042         estimate D2E/DX2                !
 ! A25   A(4,9,8)              121.0148         estimate D2E/DX2                !
 ! A26   A(4,9,23)             118.5942         estimate D2E/DX2                !
 ! A27   A(8,9,23)             120.3874         estimate D2E/DX2                !
 ! A28   A(2,10,11)            119.8087         estimate D2E/DX2                !
 ! A29   A(2,10,16)            119.8939         estimate D2E/DX2                !
 ! A30   A(11,10,16)           120.2973         estimate D2E/DX2                !
 ! A31   A(10,11,12)           119.8994         estimate D2E/DX2                !
 ! A32   A(10,11,24)           119.2286         estimate D2E/DX2                !
 ! A33   A(12,11,24)           120.8703         estimate D2E/DX2                !
 ! A34   A(11,12,13)           120.5986         estimate D2E/DX2                !
 ! A35   A(11,12,25)           120.079          estimate D2E/DX2                !
 ! A36   A(13,12,25)           119.3222         estimate D2E/DX2                !
 ! A37   A(12,13,14)           120.6655         estimate D2E/DX2                !
 ! A38   A(12,13,15)           118.6896         estimate D2E/DX2                !
 ! A39   A(14,13,15)           120.6144         estimate D2E/DX2                !
 ! A40   A(13,14,26)           111.1451         estimate D2E/DX2                !
 ! A41   A(13,14,27)           110.7558         estimate D2E/DX2                !
 ! A42   A(13,14,28)           111.1237         estimate D2E/DX2                !
 ! A43   A(26,14,27)           108.0157         estimate D2E/DX2                !
 ! A44   A(26,14,28)           107.6461         estimate D2E/DX2                !
 ! A45   A(27,14,28)           108.0132         estimate D2E/DX2                !
 ! A46   A(13,15,16)           120.5456         estimate D2E/DX2                !
 ! A47   A(13,15,29)           119.3468         estimate D2E/DX2                !
 ! A48   A(16,15,29)           120.1073         estimate D2E/DX2                !
 ! A49   A(10,16,15)           119.9621         estimate D2E/DX2                !
 ! A50   A(10,16,30)           119.1398         estimate D2E/DX2                !
 ! A51   A(15,16,30)           120.8954         estimate D2E/DX2                !
 ! D1    D(1,2,3,4)           -146.7335         estimate D2E/DX2                !
 ! D2    D(1,2,3,18)           -10.0624         estimate D2E/DX2                !
 ! D3    D(10,2,3,4)           102.6391         estimate D2E/DX2                !
 ! D4    D(10,2,3,18)         -120.6898         estimate D2E/DX2                !
 ! D5    D(17,2,3,4)            -8.7179         estimate D2E/DX2                !
 ! D6    D(17,2,3,18)          127.9532         estimate D2E/DX2                !
 ! D7    D(1,2,10,11)          -36.1608         estimate D2E/DX2                !
 ! D8    D(1,2,10,16)          143.9629         estimate D2E/DX2                !
 ! D9    D(3,2,10,11)           72.4962         estimate D2E/DX2                !
 ! D10   D(3,2,10,16)         -107.3801         estimate D2E/DX2                !
 ! D11   D(17,2,10,11)        -169.0517         estimate D2E/DX2                !
 ! D12   D(17,2,10,16)          11.0721         estimate D2E/DX2                !
 ! D13   D(2,3,4,5)            -10.084          estimate D2E/DX2                !
 ! D14   D(2,3,4,9)            171.4184         estimate D2E/DX2                !
 ! D15   D(18,3,4,5)          -141.9592         estimate D2E/DX2                !
 ! D16   D(18,3,4,9)            39.5433         estimate D2E/DX2                !
 ! D17   D(3,4,5,6)           -178.0991         estimate D2E/DX2                !
 ! D18   D(3,4,5,19)             4.0086         estimate D2E/DX2                !
 ! D19   D(9,4,5,6)              0.4184         estimate D2E/DX2                !
 ! D20   D(9,4,5,19)          -177.474          estimate D2E/DX2                !
 ! D21   D(3,4,9,8)            178.1815         estimate D2E/DX2                !
 ! D22   D(3,4,9,23)            -1.1404         estimate D2E/DX2                !
 ! D23   D(5,4,9,8)             -0.4011         estimate D2E/DX2                !
 ! D24   D(5,4,9,23)          -179.723          estimate D2E/DX2                !
 ! D25   D(4,5,6,7)             -0.1128         estimate D2E/DX2                !
 ! D26   D(4,5,6,20)          -179.6342         estimate D2E/DX2                !
 ! D27   D(19,5,6,7)           177.7496         estimate D2E/DX2                !
 ! D28   D(19,5,6,20)           -1.7718         estimate D2E/DX2                !
 ! D29   D(5,6,7,8)             -0.2236         estimate D2E/DX2                !
 ! D30   D(5,6,7,21)          -179.9431         estimate D2E/DX2                !
 ! D31   D(20,6,7,8)           179.2976         estimate D2E/DX2                !
 ! D32   D(20,6,7,21)           -0.422          estimate D2E/DX2                !
 ! D33   D(6,7,8,9)              0.2402         estimate D2E/DX2                !
 ! D34   D(6,7,8,22)          -179.8609         estimate D2E/DX2                !
 ! D35   D(21,7,8,9)           179.9597         estimate D2E/DX2                !
 ! D36   D(21,7,8,22)           -0.1413         estimate D2E/DX2                !
 ! D37   D(7,8,9,4)              0.0792         estimate D2E/DX2                !
 ! D38   D(7,8,9,23)           179.3889         estimate D2E/DX2                !
 ! D39   D(22,8,9,4)          -179.8198         estimate D2E/DX2                !
 ! D40   D(22,8,9,23)           -0.51           estimate D2E/DX2                !
 ! D41   D(2,10,11,12)        -179.5012         estimate D2E/DX2                !
 ! D42   D(2,10,11,24)           0.9713         estimate D2E/DX2                !
 ! D43   D(16,10,11,12)          0.3746         estimate D2E/DX2                !
 ! D44   D(16,10,11,24)       -179.1529         estimate D2E/DX2                !
 ! D45   D(2,10,16,15)         179.5107         estimate D2E/DX2                !
 ! D46   D(2,10,16,30)          -1.0836         estimate D2E/DX2                !
 ! D47   D(11,10,16,15)         -0.3649         estimate D2E/DX2                !
 ! D48   D(11,10,16,30)        179.0407         estimate D2E/DX2                !
 ! D49   D(10,11,12,13)          0.2682         estimate D2E/DX2                !
 ! D50   D(10,11,12,25)       -179.5728         estimate D2E/DX2                !
 ! D51   D(24,11,12,13)        179.7878         estimate D2E/DX2                !
 ! D52   D(24,11,12,25)         -0.0532         estimate D2E/DX2                !
 ! D53   D(11,12,13,14)       -178.9048         estimate D2E/DX2                !
 ! D54   D(11,12,13,15)         -0.9015         estimate D2E/DX2                !
 ! D55   D(25,12,13,14)          0.9373         estimate D2E/DX2                !
 ! D56   D(25,12,13,15)        178.9407         estimate D2E/DX2                !
 ! D57   D(12,13,14,26)        -30.5178         estimate D2E/DX2                !
 ! D58   D(12,13,14,27)         89.5616         estimate D2E/DX2                !
 ! D59   D(12,13,14,28)       -150.3763         estimate D2E/DX2                !
 ! D60   D(15,13,14,26)        151.5175         estimate D2E/DX2                !
 ! D61   D(15,13,14,27)        -88.4032         estimate D2E/DX2                !
 ! D62   D(15,13,14,28)         31.6589         estimate D2E/DX2                !
 ! D63   D(12,13,15,16)          0.9109         estimate D2E/DX2                !
 ! D64   D(12,13,15,29)       -178.9064         estimate D2E/DX2                !
 ! D65   D(14,13,15,16)        178.9153         estimate D2E/DX2                !
 ! D66   D(14,13,15,29)         -0.902          estimate D2E/DX2                !
 ! D67   D(13,15,16,10)         -0.2878         estimate D2E/DX2                !
 ! D68   D(13,15,16,30)       -179.6828         estimate D2E/DX2                !
 ! D69   D(29,15,16,10)        179.5282         estimate D2E/DX2                !
 ! D70   D(29,15,16,30)          0.1331         estimate D2E/DX2                !
 --------------------------------------------------------------------------------
 Trust Radius=3.00D-01 FncErr=1.00D-07 GrdErr=1.00D-06 EigMax=2.50D+02 EigMin=1.00D-04
 Number of steps in this run=    162 maximum allowed number of steps=    180.
 GradGradGradGradGradGradGradGradGradGradGradGradGradGradGradGradGradGrad

                          Input orientation:                          
 ---------------------------------------------------------------------
 Center     Atomic      Atomic             Coordinates (Angstroms)
 Number     Number       Type             X           Y           Z
 ---------------------------------------------------------------------
      1          8           0       -0.367290    2.901440    0.401330
      2         16           0        0.007320    1.605290   -0.254710
      3          7           0        0.996980    0.781290    0.872250
      4          6           0        2.048690   -0.050050    0.488520
      5          6           0        2.267830   -0.450760   -0.833660
      6          6           0        3.296080   -1.302820   -1.157490
      7          6           0        4.137690   -1.778590   -0.172170
      8          6           0        3.947210   -1.392870    1.139800
      9          6           0        2.919140   -0.540590    1.468050
     10          6           0       -1.388020    0.484410   -0.113480
     11          6           0       -2.164010    0.499350    1.020120
     12          6           0       -3.230970   -0.368700    1.135030
     13          6           0       -3.526290   -1.263580    0.116570
     14          6           0       -4.690480   -2.183210    0.228380
     15          6           0       -2.739810   -1.255110   -1.026330
     16          6           0       -1.673690   -0.385910   -1.137650
     17          8           0        0.469220    1.538930   -1.680400
     18          1           0        1.189930    1.458290    1.584270
     19          1           0        1.635350   -0.052060   -1.604610
     20          1           0        3.450090   -1.593770   -2.183620
     21          1           0        4.944280   -2.445960   -0.427150
     22          1           0        4.605260   -1.762180    1.909050
     23          1           0        2.762050   -0.245920    2.490670
     24          1           0       -1.932750    1.198480    1.806950
     25          1           0       -3.844980   -0.354740    2.018920
     26          1           0       -4.886470   -2.444970    1.268550
     27          1           0       -5.589690   -1.719350   -0.177790
     28          1           0       -4.513000   -3.110040   -0.317900
     29          1           0       -2.970300   -1.932580   -1.830300
     30          1           0       -1.062270   -0.371030   -2.024760
 ---------------------------------------------------------------------
                    Distance matrix (angstroms):
                    1          2          3          4          5
     1  O    0.000000
     2  S    1.500242   0.000000
     3  N    2.564768   1.711269   0.000000
     4  C    3.815214   2.731251   1.394442   0.000000
     5  C    4.439178   3.110053   2.458279   1.398839   0.000000
     6  C    5.790164   4.481970   3.707994   2.415525   1.374107
     7  C    6.521229   5.340170   4.184239   2.790750   2.386855
     8  C    6.131994   5.143574   3.674563   2.414893   2.757251
     9  C    4.877098   4.006420   2.407705   1.399211   2.393772
    10  C    2.673753   1.795353   2.597696   3.529735   3.841672
    11  C    3.062865   2.750085   3.176982   4.281504   4.896980
    12  C    4.408264   4.039126   4.389430   5.328632   5.841171
    13  C    5.235242   4.566691   5.021207   5.717640   5.927515
    14  C    6.676342   6.054373   6.445931   7.073504   7.248958
    15  C    4.994394   4.040298   4.659950   5.164947   5.075486
    16  C    3.857695   2.751410   3.540414   4.075947   3.953757
    17  O    2.624839   1.500116   2.714511   3.118300   2.812620
    18  H    2.430424   2.191352   1.001265   2.052615   3.263851
    19  H    4.093596   2.686917   2.690135   2.133553   1.073944
    20  H    6.439043   5.080093   4.582248   3.389296   2.127581
    21  H    7.582469   6.388735   5.261631   3.868240   3.362954
    22  H    6.982036   6.096127   4.534741   3.389004   3.834822
    23  H    4.905506   4.307276   2.605747   2.134444   3.367103
    24  H    2.706752   2.860036   3.103390   4.375951   5.228545
    25  H    5.031266   4.883782   5.103919   6.096746   6.746323
    26  H    7.054017   6.532542   6.721666   7.378383   7.718819
    27  H    6.997181   6.510428   7.123202   7.846998   7.986245
    28  H    7.337717   6.532352   6.849729   7.284890   7.301879
    29  H    5.926515   4.885205   5.514361   5.840471   5.534175
    30  H    4.132550   2.860584   3.736445   4.012191   3.537604
                    6          7          8          9         10
     6  C    0.000000
     7  C    1.380406   0.000000
     8  C    2.389481   1.380698   0.000000
     9  C    2.759808   2.389106   1.375157   0.000000
    10  C    5.121029   5.971439   5.793062   4.701435   0.000000
    11  C    6.148364   6.806026   6.398580   5.207738   1.373839
    12  C    6.980731   7.615360   7.250877   6.161518   2.383912
    13  C    6.940425   7.686690   7.544330   6.625163   2.771388
    14  C    8.153580   8.846510   8.721526   7.882975   4.259027
    15  C    6.037503   6.950081   7.030458   6.225447   2.384651
    16  C    5.053685   6.053416   6.147785   5.282773   1.374041
    17  O    4.042291   5.170916   5.352139   4.498805   2.648885
    18  H    4.424573   4.717177   3.991148   2.645599   3.236761
    19  H    2.126580   3.360728   3.830699   3.365712   3.413508
    20  H    1.077643   2.133749   3.366394   3.837420   5.657881
    21  H    2.134650   1.077490   2.135060   3.365027   6.984517
    22  H    3.365803   2.133159   1.077574   2.128324   6.712466
    23  H    3.835531   3.366330   2.131888   1.075760   4.953591
    24  H    6.510382   7.044864   6.460195   5.165274   2.120066
    25  H    7.872939   8.399479   7.910044   6.789059   3.359755
    26  H    8.610709   9.162707   8.897044   8.037040   4.767644
    27  H    8.949314   9.727562   9.633021   8.746339   4.744968
    28  H    8.059323   8.753767   8.754925   8.064019   4.767322
    29  H    6.333782   7.300454   7.547498   6.892188   3.360494
    30  H    4.540441   5.696745   6.012777   5.299066   2.119170
                   11         12         13         14         15
    11  C    0.000000
    12  C    1.380260   0.000000
    13  C    2.404190   1.387546   0.000000
    14  C    3.769089   2.498926   1.487803   0.000000
    15  C    2.756380   2.387140   1.387387   2.498155   0.000000
    16  C    2.383290   2.755085   2.403227   3.767937   1.380041
    17  O    3.912472   5.025645   5.200698   6.642309   4.304921
    18  H    3.533659   4.804588   5.639632   7.048275   5.442484
    19  H    4.650634   5.593475   5.574295   6.922267   4.574250
    20  H    6.794352   7.559815   7.353215   8.510820   6.306257
    21  H    7.829255   8.578469   8.569960   9.660609   7.798870
    22  H    7.192199   7.996711   8.341684   9.455829   7.926136
    23  H    5.194614   6.145659   6.798176   8.025662   6.607436
    24  H    1.077667   2.143106   3.385040   4.640343   3.833918
    25  H    2.133713   1.076320   2.132250   2.695219   3.362382
    26  H    4.017776   2.658835   2.138418   1.090360   3.360118
    27  H    4.253575   3.018495   2.133540   1.090284   3.009544
    28  H    4.509517   3.357015   2.138171   1.090383   2.662112
    29  H    3.832660   3.362566   2.132367   2.694438   1.076317
    30  H    3.353012   3.832432   3.384278   4.639455   2.143035
                   16         17         18         19         20
    16  C    0.000000
    17  O    2.931152   0.000000
    18  H    4.360074   3.344248   0.000000
    19  H    3.358460   1.974045   3.556475   0.000000
    20  H    5.367131   4.353461   5.349803   2.450592   0.000000
    21  H    6.967506   6.121776   5.777899   4.250434   2.458459
    22  H    7.113488   6.394396   4.705464   4.908226   4.255905
    23  H    5.732372   5.083363   2.489469   4.251865   4.913154
    24  H    3.353815   4.248173   3.141372   5.092537   7.259220
    25  H    3.831371   5.990265   5.369015   6.576899   8.509676
    26  H    4.511262   7.297341   7.228953   7.517659   9.063126
    27  H    4.246699   7.041634   7.691911   7.550952   9.260494
    28  H    4.019273   6.949233   7.550583   6.986349   8.318100
    29  H    2.133811   4.889187   6.361195   4.979890   6.439024
    30  H    1.077506   2.472244   4.630757   2.748713   4.677790
                   21         22         23         24         25
    21  H    0.000000
    22  H    2.457706   0.000000
    23  H    4.256287   2.456573   0.000000
    24  H    8.097326   7.177848   4.959326   0.000000
    25  H    9.359891   8.567352   6.624744   2.472660   0.000000
    26  H    9.975923   9.537787   8.051662   4.721130   2.452920
    27  H   10.561944  10.406428   8.890626   5.081942   3.119569
    28  H    9.481196   9.482547   8.307683   5.453075   3.674052
    29  H    8.054376   8.449904   7.373970   4.910156   4.251016
    30  H    6.552582   7.037830   5.918630   4.231205   4.908675
                   26         27         28         29         30
    26  H    0.000000
    27  H    1.764353   0.000000
    28  H    1.760290   1.764344   0.000000
    29  H    3.679283   3.104426   2.460425   0.000000
    30  H    5.456338   5.072159   4.724731   2.473223   0.000000
 Stoichiometry    C13H13NO2S
 Framework group  C1[X(C13H13NO2S)]
 Deg. of freedom    84
 Full point group                 C1      NOp   1
 Largest Abelian subgroup         C1      NOp   1
 Largest concise Abelian subgroup C1      NOp   1
                         Standard orientation:                         
 ---------------------------------------------------------------------
 Center     Atomic      Atomic             Coordinates (Angstroms)
 Number     Number       Type             X           Y           Z
 ---------------------------------------------------------------------
      1          8           0        0.302438    2.954413   -0.410360
      2         16           0       -0.053022    1.657285    0.254345
      3          7           0       -1.033824    0.813056   -0.865363
      4          6           0       -2.073255   -0.030190   -0.474227
      5          6           0       -2.284009   -0.425817    0.850844
      6          6           0       -3.299832   -1.289825    1.182152
      7          6           0       -4.137035   -1.782987    0.201641
      8          6           0       -3.954711   -1.402677   -1.113064
      9          6           0       -2.939082   -0.538478   -1.448794
     10          6           0        1.357160    0.554682    0.116710
     11          6           0        2.130385    0.573312   -1.018723
     12          6           0        3.208828   -0.280804   -1.130818
     13          6           0        3.518558   -1.165381   -0.107648
     14          6           0        4.694932   -2.069727   -0.216553
     15          6           0        2.734544   -1.160690    1.036968
     16          6           0        1.656917   -0.305435    1.145464
     17          8           0       -0.510845    1.593292    1.681458
     18          1           0       -1.237549    1.483031   -1.581017
     19          1           0       -1.655335   -0.013867    1.617930
     20          1           0       -3.447608   -1.576614    2.210368
     21          1           0       -4.933888   -2.459723    0.462482
     22          1           0       -4.609350   -1.785578   -1.878570
     23          1           0       -2.788268   -0.247907   -2.473529
     24          1           0        1.887888    1.264439   -1.809231
     25          1           0        3.820650   -0.263845   -2.016171
     26          1           0        4.892191   -2.335101   -1.255567
     27          1           0        5.588622   -1.591204    0.184761
     28          1           0        4.531306   -2.995557    0.335716
     29          1           0        2.976014   -1.830066    1.844487
     30          1           0        1.047299   -0.293502    2.033857
 ---------------------------------------------------------------------
 Rotational constants (GHZ):           0.7048602           0.2665683           0.2332374
 Standard basis: def2SVP (5D, 7F)
 There are   324 symmetry adapted cartesian basis functions of A   symmetry.
 There are   307 symmetry adapted basis functions of A   symmetry.
   307 basis functions,   528 primitive gaussians,   324 cartesian basis functions
    65 alpha electrons       65 beta electrons
       nuclear repulsion energy      1308.0121452016 Hartrees.
 NAtoms=   30 NActive=   30 NUniq=   30 SFac= 1.00D+00 NAtFMM=   60 NAOKFM=F Big=F
 Integral buffers will be    131072 words long.
 Raffenetti 2 integral format.
 Two-electron integral symmetry is turned on.
 Nuclear repulsion after empirical dispersion term =     1307.9933027170 Hartrees.
 One-electron integrals computed using PRISM.
   1 Symmetry operations used in ECPInt.
 ECPInt:  NShTT=   10296 NPrTT=   38220 LenC2=    9397 LenP2D=   24624.
 LDataN:  DoStor=T MaxTD1= 4 Len=   56
 NBasis=   307 RedAO= T EigKep=  2.40D-04  NBF=   307
 NBsUse=   307 1.00D-06 EigRej= -1.00D+00 NBFU=   307
 ExpMin= 1.22D-01 ExpMax= 9.18D+03 ExpMxC= 1.38D+03 IAcc=3 IRadAn=         5 AccDes= 0.00D+00
 Harris functional with IExCor= 4639 and IRadAn=       5 diagonalized for initial guess.
 HarFok:  IExCor= 4639 AccDes= 0.00D+00 IRadAn=         5 IDoV= 1 UseB2=F ITyADJ=14
 ICtDFT=  3500011 ScaDFX=  1.000000  1.000000  1.000000  1.000000
 FoFCou: FMM=F IPFlag=           0 FMFlag=      100000 FMFlg1=           0
         NFxFlg=           0 DoJE=T BraDBF=F KetDBF=T FulRan=T
         wScrn=  0.000000 ICntrl=       500 IOpCl=  0 I1Cent=   200000004 NGrid=           0
         NMat0=    1 NMatS0=      1 NMatT0=    0 NMatD0=    1 NMtDS0=    0 NMtDT0=    0
 Petite list used in FoFCou.
 Requested convergence on RMS density matrix=1.00D-08 within 128 cycles.
 Requested convergence on MAX density matrix=1.00D-06.
 Requested convergence on             energy=1.00D-06.
 No special actions if energy rises.
 Integral accuracy reduced to 1.0D-05 until final iterations.
 Initial convergence to 1.0D-05 achieved.  Increase integral accuracy.
 SCF Done:  E(RwB97XD) =  -1105.64403968     A.U. after   16 cycles
            NFock= 16  Conv=0.37D-08     -V/T= 2.0071

 **********************************************************************

            Population analysis using the SCF Density.

 **********************************************************************

 Orbital symmetries:
       Occupied  (A) (A) (A) (A) (A) (A) (A) (A) (A) (A) (A) (A)
                 (A) (A) (A) (A) (A) (A) (A) (A) (A) (A) (A) (A)
                 (A) (A) (A) (A) (A) (A) (A) (A) (A) (A) (A) (A)
                 (A) (A) (A) (A) (A) (A) (A) (A) (A) (A) (A) (A)
                 (A) (A) (A) (A) (A) (A) (A) (A) (A) (A) (A) (A)
                 (A) (A) (A) (A) (A)
       Virtual   (A) (A) (A) (A) (A) (A) (A) (A) (A) (A) (A) (A)
                 (A) (A) (A) (A) (A) (A) (A) (A) (A) (A) (A) (A)
                 (A) (A) (A) (A) (A) (A) (A) (A) (A) (A) (A) (A)
                 (A) (A) (A) (A) (A) (A) (A) (A) (A) (A) (A) (A)
                 (A) (A) (A) (A) (A) (A) (A) (A) (A) (A) (A) (A)
                 (A) (A) (A) (A) (A) (A) (A) (A) (A) (A) (A) (A)
                 (A) (A) (A) (A) (A) (A) (A) (A) (A) (A) (A) (A)
                 (A) (A) (A) (A) (A) (A) (A) (A) (A) (A) (A) (A)
                 (A) (A) (A) (A) (A) (A) (A) (A) (A) (A) (A) (A)
                 (A) (A) (A) (A) (A) (A) (A) (A) (A) (A) (A) (A)
                 (A) (A) (A) (A) (A) (A) (A) (A) (A) (A) (A) (A)
                 (A) (A) (A) (A) (A) (A) (A) (A) (A) (A) (A) (A)
                 (A) (A) (A) (A) (A) (A) (A) (A) (A) (A) (A) (A)
                 (A) (A) (A) (A) (A) (A) (A) (A) (A) (A) (A) (A)
                 (A) (A) (A) (A) (A) (A) (A) (A) (A) (A) (A) (A)
                 (A) (A) (A) (A) (A) (A) (A) (A) (A) (A) (A) (A)
                 (A) (A) (A) (A) (A) (A) (A) (A) (A) (A) (A) (A)
                 (A) (A) (A) (A) (A) (A) (A) (A) (A) (A) (A) (A)
                 (A) (A) (A) (A) (A) (A) (A) (A) (A) (A) (A) (A)
                 (A) (A) (A) (A) (A) (A) (A) (A) (A) (A) (A) (A)
                 (A) (A)
 The electronic state is 1-A.
 Alpha  occ. eigenvalues --  -89.25913 -19.26541 -19.26048 -14.49798 -10.35517
 Alpha  occ. eigenvalues --  -10.33360 -10.32505 -10.32247 -10.32081 -10.31425
 Alpha  occ. eigenvalues --  -10.31307 -10.30701 -10.30451 -10.30323 -10.30007
 Alpha  occ. eigenvalues --  -10.29492 -10.29315  -8.27665  -6.23099  -6.23007
 Alpha  occ. eigenvalues --   -6.22852  -1.20537  -1.09272  -1.05180  -0.98583
 Alpha  occ. eigenvalues --   -0.95297  -0.90203  -0.86323  -0.85056  -0.84647
 Alpha  occ. eigenvalues --   -0.81362  -0.75892  -0.72535  -0.71478  -0.70822
 Alpha  occ. eigenvalues --   -0.68008  -0.64499  -0.63643  -0.60549  -0.58818
 Alpha  occ. eigenvalues --   -0.58309  -0.56454  -0.54748  -0.54085  -0.53506
 Alpha  occ. eigenvalues --   -0.52968  -0.52787  -0.52701  -0.51493  -0.49570
 Alpha  occ. eigenvalues --   -0.48507  -0.47284  -0.46338  -0.46013  -0.44200
 Alpha  occ. eigenvalues --   -0.44082  -0.42840  -0.41571  -0.40901  -0.39400
 Alpha  occ. eigenvalues --   -0.38705  -0.35323  -0.34655  -0.33833  -0.30445
 Alpha virt. eigenvalues --    0.02892   0.04358   0.06050   0.06440   0.10761
 Alpha virt. eigenvalues --    0.13065   0.13563   0.14698   0.15284   0.16019
 Alpha virt. eigenvalues --    0.17041   0.17226   0.18603   0.19368   0.20612
 Alpha virt. eigenvalues --    0.20788   0.21667   0.22325   0.23740   0.24360
 Alpha virt. eigenvalues --    0.24578   0.25915   0.29016   0.30846   0.32073
 Alpha virt. eigenvalues --    0.34638   0.36327   0.36640   0.37446   0.37690
 Alpha virt. eigenvalues --    0.38781   0.39857   0.39983   0.41640   0.43905
 Alpha virt. eigenvalues --    0.46342   0.47310   0.47914   0.48533   0.48995
 Alpha virt. eigenvalues --    0.49945   0.51324   0.52077   0.52428   0.53630
 Alpha virt. eigenvalues --    0.54801   0.54943   0.55686   0.56431   0.57717
 Alpha virt. eigenvalues --    0.57882   0.58881   0.59017   0.61035   0.61579
 Alpha virt. eigenvalues --    0.62161   0.63155   0.63905   0.64883   0.65448
 Alpha virt. eigenvalues --    0.68413   0.69936   0.70529   0.71100   0.71809
 Alpha virt. eigenvalues --    0.72012   0.72230   0.73075   0.73930   0.74206
 Alpha virt. eigenvalues --    0.74871   0.75451   0.76200   0.76409   0.77010
 Alpha virt. eigenvalues --    0.77867   0.78378   0.78841   0.79135   0.80523
 Alpha virt. eigenvalues --    0.81191   0.82647   0.83187   0.83549   0.84704
 Alpha virt. eigenvalues --    0.85191   0.86219   0.86521   0.88238   0.89550
 Alpha virt. eigenvalues --    0.91938   0.92482   0.93733   0.95143   0.96888
 Alpha virt. eigenvalues --    0.97675   0.99819   1.00988   1.03976   1.05197
 Alpha virt. eigenvalues --    1.07441   1.09266   1.12290   1.12781   1.14311
 Alpha virt. eigenvalues --    1.15227   1.17340   1.18895   1.21249   1.23375
 Alpha virt. eigenvalues --    1.23619   1.25505   1.26961   1.27993   1.29140
 Alpha virt. eigenvalues --    1.30318   1.31538   1.31909   1.32516   1.33129
 Alpha virt. eigenvalues --    1.34042   1.34418   1.37007   1.37690   1.38257
 Alpha virt. eigenvalues --    1.39199   1.39732   1.42366   1.45017   1.52816
 Alpha virt. eigenvalues --    1.54908   1.56298   1.60407   1.60765   1.62665
 Alpha virt. eigenvalues --    1.63183   1.67275   1.69345   1.73622   1.75134
 Alpha virt. eigenvalues --    1.77603   1.77832   1.79224   1.80256   1.81035
 Alpha virt. eigenvalues --    1.81971   1.82597   1.83201   1.83814   1.84419
 Alpha virt. eigenvalues --    1.84976   1.86046   1.86615   1.87354   1.87894
 Alpha virt. eigenvalues --    1.87943   1.88489   1.90033   1.92104   1.92387
 Alpha virt. eigenvalues --    1.93324   1.95397   1.96845   1.98095   2.03154
 Alpha virt. eigenvalues --    2.04184   2.04969   2.05318   2.06383   2.08250
 Alpha virt. eigenvalues --    2.10309   2.10826   2.13259   2.14117   2.16891
 Alpha virt. eigenvalues --    2.17724   2.20184   2.20666   2.22199   2.23031
 Alpha virt. eigenvalues --    2.24098   2.25156   2.29618   2.30824   2.31209
 Alpha virt. eigenvalues --    2.33767   2.35821   2.35994   2.38198   2.40023
 Alpha virt. eigenvalues --    2.40729   2.42531   2.43723   2.44411   2.45920
 Alpha virt. eigenvalues --    2.46139   2.52255   2.55950   2.56372   2.56640
 Alpha virt. eigenvalues --    2.59941   2.61044   2.68562   2.69396   2.71397
 Alpha virt. eigenvalues --    2.71716   2.72296   2.73458   2.73680   2.74097
 Alpha virt. eigenvalues --    2.74889   2.75615   2.77736   2.78221   2.80706
 Alpha virt. eigenvalues --    2.83099   2.83596   2.84415   2.84855   2.85376
 Alpha virt. eigenvalues --    2.88586   2.94459   2.95590   2.97102   2.98988
 Alpha virt. eigenvalues --    3.01066   3.01384   3.02858   3.03491   3.05155
 Alpha virt. eigenvalues --    3.06214   3.08905   3.23223   3.23871   3.25585
 Alpha virt. eigenvalues --    3.31606   3.33751   3.34013   3.46640   3.47409
 Alpha virt. eigenvalues --    3.69823   3.78773
          Condensed to atoms (all electrons):
               1          2          3          4          5          6
     1  O    8.145762   0.427897  -0.046065   0.000735   0.000122   0.000006
     2  S    0.427897  13.929954   0.194884  -0.030611   0.000536  -0.000936
     3  N   -0.046065   0.194884   6.879661   0.267893  -0.079324   0.007545
     4  C    0.000735  -0.030611   0.267893   5.166967   0.250807   0.111566
     5  C    0.000122   0.000536  -0.079324   0.250807   5.210158   0.264364
     6  C    0.000006  -0.000936   0.007545   0.111566   0.264364   5.050249
     7  C   -0.000000   0.000044  -0.000477  -0.164150   0.090775   0.271876
     8  C    0.000000  -0.000165   0.006660   0.111844  -0.147966   0.096941
     9  C   -0.000071   0.000400  -0.072963   0.262390   0.077009  -0.146641
    10  C   -0.062920   0.237345  -0.110449   0.004139  -0.001744  -0.000344
    11  C    0.007436  -0.029212   0.002767  -0.000053  -0.000087   0.000006
    12  C    0.001050  -0.000247  -0.000293  -0.000002   0.000003   0.000000
    13  C   -0.000028   0.001017   0.000022   0.000019  -0.000013  -0.000000
    14  C    0.000000   0.000008  -0.000000  -0.000000   0.000000   0.000000
    15  C   -0.000007   0.001788  -0.000212  -0.000137  -0.000058   0.000012
    16  C    0.001622  -0.034498  -0.001451   0.001208   0.001109   0.000013
    17  O   -0.024861   0.399898  -0.037558   0.001290  -0.022061   0.001432
    18  H    0.011443  -0.003098   0.318552  -0.002132   0.004428  -0.000251
    19  H    0.000266  -0.002489  -0.013871  -0.069188   0.451313  -0.054249
    20  H    0.000000  -0.000010  -0.000102   0.015449  -0.067608   0.457432
    21  H    0.000000   0.000000   0.000011  -0.001464   0.014775  -0.067993
    22  H   -0.000000   0.000003  -0.000110   0.015535  -0.001919   0.013875
    23  H   -0.000025  -0.000144  -0.009478  -0.082359   0.016930  -0.002196
    24  H    0.010729  -0.006325   0.001994   0.000006  -0.000028   0.000000
    25  H   -0.000006  -0.000176  -0.000000  -0.000001   0.000000   0.000000
    26  H    0.000000  -0.000000  -0.000000   0.000000   0.000000  -0.000000
    27  H   -0.000000  -0.000000   0.000000  -0.000000  -0.000000   0.000000
    28  H    0.000000  -0.000000  -0.000000  -0.000000   0.000000  -0.000000
    29  H    0.000001  -0.000151   0.000004  -0.000002  -0.000002  -0.000000
    30  H    0.000116  -0.012367   0.000858  -0.000446   0.000102   0.000249
               7          8          9         10         11         12
     1  O   -0.000000   0.000000  -0.000071  -0.062920   0.007436   0.001050
     2  S    0.000044  -0.000165   0.000400   0.237345  -0.029212  -0.000247
     3  N   -0.000477   0.006660  -0.072963  -0.110449   0.002767  -0.000293
     4  C   -0.164150   0.111844   0.262390   0.004139  -0.000053  -0.000002
     5  C    0.090775  -0.147966   0.077009  -0.001744  -0.000087   0.000003
     6  C    0.271876   0.096941  -0.146641  -0.000344   0.000006   0.000000
     7  C    5.106516   0.284378   0.086123   0.000008  -0.000001   0.000000
     8  C    0.284378   5.007401   0.310767  -0.000009   0.000003  -0.000000
     9  C    0.086123   0.310767   5.141066  -0.000808  -0.000124   0.000005
    10  C    0.000008  -0.000009  -0.000808   5.719021   0.185476   0.090888
    11  C   -0.000001   0.000003  -0.000124   0.185476   5.081159   0.309195
    12  C    0.000000  -0.000000   0.000005   0.090888   0.309195   5.062878
    13  C    0.000000   0.000000  -0.000000  -0.181636   0.091306   0.290360
    14  C   -0.000000   0.000000  -0.000000   0.000683   0.010002  -0.076637
    15  C   -0.000000   0.000000  -0.000003   0.093454  -0.120043   0.050889
    16  C    0.000001  -0.000005   0.000022   0.277281   0.038310  -0.119988
    17  O   -0.000032  -0.000004   0.000208  -0.066491   0.004349   0.000015
    18  H    0.000008   0.000209  -0.014461   0.003005   0.002316   0.000013
    19  H    0.013863  -0.002219   0.013907  -0.002682  -0.000386  -0.000013
    20  H   -0.074318   0.014178  -0.001946  -0.000003   0.000000  -0.000000
    21  H    0.451806  -0.070465   0.014489   0.000000  -0.000000   0.000000
    22  H   -0.069248   0.454048  -0.069436  -0.000000  -0.000000   0.000000
    23  H    0.014888  -0.059897   0.452161   0.000010  -0.000007  -0.000001
    24  H    0.000000   0.000000   0.000029  -0.081262   0.447347  -0.046974
    25  H   -0.000000   0.000000   0.000000   0.016328  -0.066432   0.459824
    26  H   -0.000000   0.000000  -0.000000   0.000011   0.000762  -0.008845
    27  H    0.000000  -0.000000   0.000000   0.000076  -0.000209  -0.003422
    28  H   -0.000000  -0.000000  -0.000000   0.000028  -0.000563   0.007382
    29  H    0.000000  -0.000000   0.000000   0.016385  -0.002100   0.014702
    30  H   -0.000006   0.000002  -0.000024  -0.067421   0.013810  -0.001842
              13         14         15         16         17         18
     1  O   -0.000028   0.000000  -0.000007   0.001622  -0.024861   0.011443
     2  S    0.001017   0.000008   0.001788  -0.034498   0.399898  -0.003098
     3  N    0.000022  -0.000000  -0.000212  -0.001451  -0.037558   0.318552
     4  C    0.000019  -0.000000  -0.000137   0.001208   0.001290  -0.002132
     5  C   -0.000013   0.000000  -0.000058   0.001109  -0.022061   0.004428
     6  C   -0.000000   0.000000   0.000012   0.000013   0.001432  -0.000251
     7  C    0.000000  -0.000000  -0.000000   0.000001  -0.000032   0.000008
     8  C    0.000000   0.000000   0.000000  -0.000005  -0.000004   0.000209
     9  C   -0.000000  -0.000000  -0.000003   0.000022   0.000208  -0.014461
    10  C   -0.181636   0.000683   0.093454   0.277281  -0.066491   0.003005
    11  C    0.091306   0.010002  -0.120043   0.038310   0.004349   0.002316
    12  C    0.290360  -0.076637   0.050889  -0.119988   0.000015   0.000013
    13  C    5.259169   0.407150   0.287682   0.096096  -0.000038   0.000010
    14  C    0.407150   4.549833  -0.077001   0.009544   0.000000   0.000000
    15  C    0.287682  -0.077001   5.094756   0.274681   0.001623   0.000011
    16  C    0.096096   0.009544   0.274681   5.051399   0.004811  -0.000494
    17  O   -0.000038   0.000000   0.001623   0.004811   8.150863   0.001414
    18  H    0.000010   0.000000   0.000011  -0.000494   0.001414   0.509446
    19  H    0.000002  -0.000000   0.000288   0.001771   0.029738  -0.000354
    20  H    0.000000  -0.000000  -0.000000  -0.000000   0.000026   0.000010
    21  H    0.000000   0.000000   0.000000   0.000000   0.000000  -0.000001
    22  H   -0.000000  -0.000000   0.000000  -0.000000  -0.000000  -0.000024
    23  H   -0.000000  -0.000000  -0.000000   0.000000   0.000012   0.003080
    24  H    0.014270  -0.000247  -0.001725   0.012570   0.000230  -0.000072
    25  H   -0.075836  -0.013653   0.014635  -0.001992   0.000000  -0.000005
    26  H   -0.018765   0.391996   0.007488  -0.000546   0.000000   0.000000
    27  H   -0.011515   0.389577  -0.003700  -0.000215  -0.000000  -0.000000
    28  H   -0.018923   0.392286  -0.008644   0.000788   0.000000  -0.000000
    29  H   -0.076945  -0.013655   0.460749  -0.065979  -0.000007  -0.000000
    30  H    0.013767  -0.000210  -0.054067   0.448310   0.013537  -0.000044
              19         20         21         22         23         24
     1  O    0.000266   0.000000   0.000000  -0.000000  -0.000025   0.010729
     2  S   -0.002489  -0.000010   0.000000   0.000003  -0.000144  -0.006325
     3  N   -0.013871  -0.000102   0.000011  -0.000110  -0.009478   0.001994
     4  C   -0.069188   0.015449  -0.001464   0.015535  -0.082359   0.000006
     5  C    0.451313  -0.067608   0.014775  -0.001919   0.016930  -0.000028
     6  C   -0.054249   0.457432  -0.067993   0.013875  -0.002196   0.000000
     7  C    0.013863  -0.074318   0.451806  -0.069248   0.014888   0.000000
     8  C   -0.002219   0.014178  -0.070465   0.454048  -0.059897   0.000000
     9  C    0.013907  -0.001946   0.014489  -0.069436   0.452161   0.000029
    10  C   -0.002682  -0.000003   0.000000  -0.000000   0.000010  -0.081262
    11  C   -0.000386   0.000000  -0.000000  -0.000000  -0.000007   0.447347
    12  C   -0.000013  -0.000000   0.000000   0.000000  -0.000001  -0.046974
    13  C    0.000002   0.000000   0.000000  -0.000000  -0.000000   0.014270
    14  C   -0.000000  -0.000000   0.000000  -0.000000  -0.000000  -0.000247
    15  C    0.000288  -0.000000   0.000000   0.000000  -0.000000  -0.001725
    16  C    0.001771  -0.000000   0.000000  -0.000000   0.000000   0.012570
    17  O    0.029738   0.000026   0.000000  -0.000000   0.000012   0.000230
    18  H   -0.000354   0.000010  -0.000001  -0.000024   0.003080  -0.000072
    19  H    0.617550  -0.013192  -0.000202   0.000014  -0.000103  -0.000022
    20  H   -0.013192   0.668268  -0.012080  -0.000258   0.000023   0.000000
    21  H   -0.000202  -0.012080   0.673326  -0.012371  -0.000234  -0.000000
    22  H    0.000014  -0.000258  -0.012371   0.668173  -0.013136   0.000000
    23  H   -0.000103   0.000023  -0.000234  -0.013136   0.687932  -0.000003
    24  H   -0.000022   0.000000  -0.000000   0.000000  -0.000003   0.641421
    25  H    0.000000  -0.000000  -0.000000   0.000000  -0.000000  -0.011885
    26  H   -0.000000   0.000000  -0.000000  -0.000000  -0.000000  -0.000001
    27  H   -0.000000   0.000000  -0.000000   0.000000   0.000000   0.000005
    28  H    0.000000  -0.000000   0.000000   0.000000  -0.000000   0.000008
    29  H    0.000002  -0.000000  -0.000000   0.000000   0.000000   0.000024
    30  H    0.001167   0.000005  -0.000000   0.000000  -0.000001  -0.000235
              25         26         27         28         29         30
     1  O   -0.000006   0.000000  -0.000000   0.000000   0.000001   0.000116
     2  S   -0.000176  -0.000000  -0.000000  -0.000000  -0.000151  -0.012367
     3  N   -0.000000  -0.000000   0.000000  -0.000000   0.000004   0.000858
     4  C   -0.000001   0.000000  -0.000000  -0.000000  -0.000002  -0.000446
     5  C    0.000000   0.000000  -0.000000   0.000000  -0.000002   0.000102
     6  C    0.000000  -0.000000   0.000000  -0.000000  -0.000000   0.000249
     7  C   -0.000000  -0.000000   0.000000  -0.000000   0.000000  -0.000006
     8  C    0.000000   0.000000  -0.000000  -0.000000  -0.000000   0.000002
     9  C    0.000000  -0.000000   0.000000  -0.000000   0.000000  -0.000024
    10  C    0.016328   0.000011   0.000076   0.000028   0.016385  -0.067421
    11  C   -0.066432   0.000762  -0.000209  -0.000563  -0.002100   0.013810
    12  C    0.459824  -0.008845  -0.003422   0.007382   0.014702  -0.001842
    13  C   -0.075836  -0.018765  -0.011515  -0.018923  -0.076945   0.013767
    14  C   -0.013653   0.391996   0.389577   0.392286  -0.013655  -0.000210
    15  C    0.014635   0.007488  -0.003700  -0.008644   0.460749  -0.054067
    16  C   -0.001992  -0.000546  -0.000215   0.000788  -0.065979   0.448310
    17  O    0.000000   0.000000  -0.000000   0.000000  -0.000007   0.013537
    18  H   -0.000005   0.000000  -0.000000  -0.000000  -0.000000  -0.000044
    19  H    0.000000  -0.000000  -0.000000   0.000000   0.000002   0.001167
    20  H   -0.000000   0.000000   0.000000  -0.000000  -0.000000   0.000005
    21  H   -0.000000  -0.000000  -0.000000   0.000000  -0.000000  -0.000000
    22  H    0.000000  -0.000000   0.000000   0.000000   0.000000   0.000000
    23  H   -0.000000  -0.000000   0.000000  -0.000000   0.000000  -0.000001
    24  H   -0.011885  -0.000001   0.000005   0.000008   0.000024  -0.000235
    25  H    0.667283   0.004526   0.000693   0.000160  -0.000225   0.000023
    26  H    0.004526   0.621199  -0.017235  -0.022348   0.000155   0.000008
    27  H    0.000693  -0.017235   0.597535  -0.017128   0.000752   0.000005
    28  H    0.000160  -0.022348  -0.017128   0.619473   0.004429  -0.000007
    29  H   -0.000225   0.000155   0.000752   0.004429   0.667108  -0.011577
    30  H    0.000023   0.000008   0.000005  -0.000007  -0.011577   0.623769
 Mulliken charges:
               1
     1  O   -0.473202
     2  S    0.926656
     3  N   -0.308497
     4  C    0.140699
     5  C   -0.061622
     6  C   -0.002955
     7  C   -0.012054
     8  C   -0.005701
     9  C   -0.052098
    10  C   -0.068370
    11  C    0.024974
    12  C   -0.028939
    13  C   -0.077172
    14  C    0.030324
    15  C   -0.022460
    16  C    0.005633
    17  O   -0.458396
    18  H    0.166989
    19  H    0.029088
    20  H    0.014127
    21  H    0.010401
    22  H    0.014854
    23  H   -0.007453
    24  H    0.020149
    25  H    0.006739
    26  H    0.041596
    27  H    0.064782
    28  H    0.043060
    29  H    0.006331
    30  H    0.032518
 Sum of Mulliken charges =  -0.00000
 Mulliken charges with hydrogens summed into heavy atoms:
               1
     1  O   -0.473202
     2  S    0.926656
     3  N   -0.141508
     4  C    0.140699
     5  C   -0.032534
     6  C    0.011171
     7  C   -0.001652
     8  C    0.009153
     9  C   -0.059552
    10  C   -0.068370
    11  C    0.045122
    12  C   -0.022200
    13  C   -0.077172
    14  C    0.179761
    15  C   -0.016128
    16  C    0.038151
    17  O   -0.458396
 Electronic spatial extent (au):  <R**2>=           4932.1632
 Charge=             -0.0000 electrons
 Dipole moment (field-independent basis, Debye):
    X=              1.4594    Y=             -3.5813    Z=             -1.9681  Tot=              4.3393
 Quadrupole moment (field-independent basis, Debye-Ang):
   XX=            -91.7064   YY=           -114.8937   ZZ=            -99.8309
   XY=             -3.5557   XZ=              1.9669   YZ=             -6.2117
 Traceless Quadrupole moment (field-independent basis, Debye-Ang):
   XX=             10.4373   YY=            -12.7500   ZZ=              2.3128
   XY=             -3.5557   XZ=              1.9669   YZ=             -6.2117
 Octapole moment (field-independent basis, Debye-Ang**2):
  XXX=             35.3769  YYY=            -15.3065  ZZZ=             -9.3820  XYY=             -2.3332
  XXY=            -34.4031  XXZ=            -13.9066  XZZ=             -2.3726  YZZ=             -1.0247
  YYZ=              2.4241  XYZ=              3.0770
 Hexadecapole moment (field-independent basis, Debye-Ang**3):
 XXXX=          -4427.6486 YYYY=          -1441.7569 ZZZZ=           -669.7337 XXXY=              6.5473
 XXXZ=            -13.6712 YYYX=            -41.8481 YYYZ=              1.9571 ZZZX=              2.1284
 ZZZY=            -32.0046 XXYY=           -923.4033 XXZZ=           -823.3780 YYZZ=           -333.1302
 XXYZ=            -11.2768 YYXZ=             12.2546 ZZXY=              6.1764
 N-N= 1.307993302717D+03 E-N=-5.204711404959D+03  KE= 1.097861260565D+03
   1 Symmetry operations used in ECPInt.
 ECPInt:  NShTT=   10296 NPrTT=   38220 LenC2=    9397 LenP2D=   24624.
 LDataN:  DoStor=T MaxTD1= 5 Len=  102
 Calling FoFJK, ICntrl=      2127 FMM=F ISym2X=0 I1Cent= 0 IOpClX= 0 NMat=1 NMatS=1 NMatT=0.
 ***** Axes restored to original set *****
 -------------------------------------------------------------------
 Center     Atomic                   Forces (Hartrees/Bohr)
 Number     Number              X              Y              Z
 -------------------------------------------------------------------
      1        8           0.021257169   -0.046007259   -0.021742295
      2       16          -0.026580483    0.018872949   -0.014080546
      3        7          -0.006462586    0.020238757   -0.023027982
      4        6           0.018359489   -0.014482111   -0.005238826
      5        6          -0.011721077    0.005666962    0.002648925
      6        6           0.004873454   -0.003875975    0.004155468
      7        6           0.005717550   -0.004978238   -0.002718125
      8        6           0.002624585   -0.001635412   -0.000981118
      9        6          -0.011987153    0.008502668    0.000196751
     10        6           0.007366199    0.011258479   -0.009859770
     11        6          -0.002846847    0.006021476    0.011132432
     12        6           0.003950884    0.001335948   -0.000962392
     13        6          -0.003970225   -0.002329158   -0.002166643
     14        6          -0.000392244   -0.004914693    0.002067088
     15        6           0.000151145    0.000325413    0.003540320
     16        6           0.004401545   -0.001259833   -0.011288918
     17        8          -0.012033366    0.012174672    0.052678957
     18        1           0.006774034    0.007332401    0.015116056
     19        1          -0.002546637   -0.000247660   -0.007707798
     20        1           0.000471003   -0.002068791   -0.010009423
     21        1           0.008066980   -0.006576497   -0.002188073
     22        1           0.005863428   -0.002976712    0.008108515
     23        1          -0.001062879    0.002925586    0.012626192
     24        1           0.000797152    0.006661810    0.008330734
     25        1          -0.005646429    0.000829979    0.010283829
     26        1          -0.002432177   -0.001085694    0.005625893
     27        1          -0.006694600    0.002724652   -0.002692199
     28        1          -0.000215353   -0.004945618   -0.003701364
     29        1          -0.001153650   -0.007260071   -0.009133996
     30        1           0.005071088   -0.000228030   -0.009011692
 -------------------------------------------------------------------
 Cartesian Forces:  Max     0.052678957 RMS     0.011379424

 GradGradGradGradGradGradGradGradGradGradGradGradGradGradGradGradGradGrad
 Berny optimization.
 FormGI is forming the generalized inverse of G from B-inverse, IUseBI=4.
 Internal  Forces:  Max     0.054566468 RMS     0.010227784
 Search for a local minimum.
 Step number   1 out of a maximum of  162
 All quantities printed in internal units (Hartrees-Bohrs-Radians)
 Mixed Optimization -- RFO/linear search
 Second derivative matrix not updated -- first step.
 ITU=  0
     Eigenvalues ---    0.00432   0.00927   0.01147   0.01611   0.01745
     Eigenvalues ---    0.01765   0.02009   0.02143   0.02248   0.02269
     Eigenvalues ---    0.02277   0.02300   0.02309   0.02341   0.02346
     Eigenvalues ---    0.02348   0.02369   0.02384   0.02387   0.02394
     Eigenvalues ---    0.02395   0.02422   0.02493   0.07315   0.07341
     Eigenvalues ---    0.10199   0.11321   0.12141   0.13672   0.15990
     Eigenvalues ---    0.15999   0.15999   0.15999   0.16000   0.16000
     Eigenvalues ---    0.16000   0.16000   0.16000   0.16000   0.16000
     Eigenvalues ---    0.16000   0.17219   0.21999   0.22000   0.22000
     Eigenvalues ---    0.22851   0.22976   0.23459   0.23996   0.24984
     Eigenvalues ---    0.24991   0.25000   0.25000   0.26486   0.33691
     Eigenvalues ---    0.34567   0.34768   0.34771   0.34780   0.36278
     Eigenvalues ---    0.36281   0.36289   0.36297   0.36299   0.36443
     Eigenvalues ---    0.36443   0.36512   0.36736   0.42655   0.43520
     Eigenvalues ---    0.44024   0.44277   0.46554   0.47125   0.47467
     Eigenvalues ---    0.47825   0.48068   0.49075   0.49249   0.49277
     Eigenvalues ---    0.50048   0.50102   0.76596   0.76638
 RFO step:  Lambda=-4.07124470D-02 EMin= 4.31775310D-03
 Linear search not attempted -- first point.
 Maximum step size (   0.300) exceeded in Quadratic search.
    -- Step size scaled by   0.941
 Iteration  1 RMS(Cart)=  0.18746949 RMS(Int)=  0.00752078
 Iteration  2 RMS(Cart)=  0.03484663 RMS(Int)=  0.00085990
 Iteration  3 RMS(Cart)=  0.00053164 RMS(Int)=  0.00084055
 Iteration  4 RMS(Cart)=  0.00000089 RMS(Int)=  0.00084055
 Variable       Old X    -DE/DX   Delta X   Delta X   Delta X     New X
                                 (Linear)    (Quad)   (Total)
    R1        2.83505  -0.05457   0.00000  -0.06364  -0.06364   2.77141
    R2        3.23383   0.00126   0.00000   0.00307   0.00307   3.23690
    R3        3.39273  -0.00382   0.00000  -0.01176  -0.01176   3.38096
    R4        2.83481  -0.05431   0.00000  -0.06330  -0.06330   2.77151
    R5        2.63511   0.02616   0.00000   0.04861   0.04861   2.68372
    R6        1.89212   0.01701   0.00000   0.03105   0.03105   1.92317
    R7        2.64342   0.00779   0.00000   0.01442   0.01442   2.65784
    R8        2.64413   0.00567   0.00000   0.01007   0.01006   2.65419
    R9        2.59669   0.01967   0.00000   0.03443   0.03444   2.63113
   R10        2.02946   0.00694   0.00000   0.01600   0.01600   2.04546
   R11        2.60859   0.01216   0.00000   0.02215   0.02216   2.63075
   R12        2.03645   0.01016   0.00000   0.02368   0.02368   2.06013
   R13        2.60914   0.01133   0.00000   0.02037   0.02037   2.62951
   R14        2.03616   0.01063   0.00000   0.02477   0.02477   2.06093
   R15        2.59867   0.01557   0.00000   0.02675   0.02674   2.62541
   R16        2.03632   0.01039   0.00000   0.02422   0.02422   2.06054
   R17        2.03289   0.01296   0.00000   0.03004   0.03004   2.06293
   R18        2.59618   0.01916   0.00000   0.03367   0.03367   2.62985
   R19        2.59656   0.01714   0.00000   0.03024   0.03025   2.62681
   R20        2.60831   0.00978   0.00000   0.01727   0.01727   2.62558
   R21        2.03649   0.01058   0.00000   0.02466   0.02466   2.06115
   R22        2.62208   0.01591   0.00000   0.02833   0.02832   2.65040
   R23        2.03395   0.01168   0.00000   0.02712   0.02712   2.06107
   R24        2.81154   0.01280   0.00000   0.03188   0.03188   2.84342
   R25        2.62178   0.01380   0.00000   0.02455   0.02454   2.64632
   R26        2.06048   0.00607   0.00000   0.01470   0.01470   2.07518
   R27        2.06034   0.00768   0.00000   0.01861   0.01861   2.07894
   R28        2.06053   0.00602   0.00000   0.01458   0.01458   2.07511
   R29        2.60790   0.01276   0.00000   0.02263   0.02263   2.63053
   R30        2.03394   0.01164   0.00000   0.02703   0.02703   2.06097
   R31        2.03619   0.01029   0.00000   0.02399   0.02399   2.06018
    A1        1.84672  -0.01454   0.00000  -0.06911  -0.07219   1.77453
    A2        1.88696   0.00106   0.00000   0.02143   0.02386   1.91082
    A3        2.13022  -0.00139   0.00000  -0.03685  -0.03999   2.09023
    A4        1.66799   0.02935   0.00000   0.11777   0.11663   1.78463
    A5        2.01143  -0.00396   0.00000  -0.01204  -0.01682   1.99461
    A6        1.86132  -0.00197   0.00000   0.02342   0.02267   1.88398
    A7        2.14364   0.04331   0.00000   0.15817   0.15641   2.30005
    A8        1.82780  -0.01277   0.00000  -0.02418  -0.02584   1.80196
    A9        2.04143  -0.01721   0.00000  -0.05300  -0.05615   1.98528
   A10        2.15201   0.02069   0.00000   0.06760   0.06746   2.21947
   A11        2.07780  -0.02261   0.00000  -0.07257  -0.07261   2.00519
   A12        2.05309   0.00189   0.00000   0.00443   0.00436   2.05744
   A13        2.11485  -0.00423   0.00000  -0.01496  -0.01495   2.09990
   A14        2.07136   0.00629   0.00000   0.02717   0.02714   2.09850
   A15        2.09639  -0.00205   0.00000  -0.01198  -0.01199   2.08440
   A16        2.09639   0.00458   0.00000   0.01858   0.01860   2.11499
   A17        2.09296  -0.00355   0.00000  -0.01519  -0.01520   2.07776
   A18        2.09380  -0.00103   0.00000  -0.00339  -0.00339   2.09041
   A19        2.09193  -0.00506   0.00000  -0.01635  -0.01635   2.07558
   A20        2.09550   0.00288   0.00000   0.00983   0.00983   2.10533
   A21        2.09575   0.00218   0.00000   0.00653   0.00653   2.10228
   A22        2.09798   0.00062   0.00000   0.00221   0.00220   2.10017
   A23        2.09248   0.00073   0.00000   0.00378   0.00379   2.09627
   A24        2.09272  -0.00135   0.00000  -0.00600  -0.00599   2.08673
   A25        2.11211   0.00221   0.00000   0.00617   0.00615   2.11826
   A26        2.06986  -0.00000   0.00000   0.00210   0.00210   2.07196
   A27        2.10116  -0.00220   0.00000  -0.00822  -0.00821   2.09295
   A28        2.09106  -0.00278   0.00000  -0.01003  -0.01003   2.08103
   A29        2.09254  -0.00079   0.00000  -0.00360  -0.00360   2.08894
   A30        2.09958   0.00357   0.00000   0.01363   0.01363   2.11321
   A31        2.09264  -0.00380   0.00000  -0.01263  -0.01263   2.08000
   A32        2.08093   0.00345   0.00000   0.01360   0.01360   2.09453
   A33        2.10958   0.00035   0.00000  -0.00095  -0.00095   2.10863
   A34        2.10484   0.00247   0.00000   0.00789   0.00788   2.11273
   A35        2.09577  -0.00260   0.00000  -0.01032  -0.01032   2.08546
   A36        2.08257   0.00013   0.00000   0.00243   0.00243   2.08500
   A37        2.10601   0.00007   0.00000   0.00112   0.00112   2.10713
   A38        2.07152  -0.00051   0.00000  -0.00334  -0.00336   2.06817
   A39        2.10512   0.00044   0.00000   0.00232   0.00232   2.10744
   A40        1.93985   0.00110   0.00000   0.00591   0.00589   1.94574
   A41        1.93305   0.00016   0.00000  -0.00078  -0.00078   1.93228
   A42        1.93947   0.00106   0.00000   0.00572   0.00569   1.94517
   A43        1.88523  -0.00118   0.00000  -0.00697  -0.00697   1.87826
   A44        1.87878  -0.00012   0.00000   0.00231   0.00227   1.88105
   A45        1.88519  -0.00115   0.00000  -0.00680  -0.00679   1.87839
   A46        2.10392   0.00236   0.00000   0.00783   0.00782   2.11174
   A47        2.08299   0.00012   0.00000   0.00220   0.00220   2.08520
   A48        2.09627  -0.00248   0.00000  -0.01003  -0.01002   2.08624
   A49        2.09373  -0.00409   0.00000  -0.01334  -0.01334   2.08039
   A50        2.07938   0.00298   0.00000   0.01106   0.01105   2.09044
   A51        2.11002   0.00112   0.00000   0.00233   0.00233   2.11235
    D1       -2.56098   0.00560   0.00000  -0.00899  -0.01272  -2.57370
    D2       -0.17562   0.00872   0.00000   0.04559   0.04400  -0.13162
    D3        1.79139  -0.00242   0.00000  -0.05710  -0.05698   1.73441
    D4       -2.10643   0.00070   0.00000  -0.00253  -0.00026  -2.10670
    D5       -0.15216  -0.01500   0.00000  -0.14450  -0.14411  -0.29627
    D6        2.23320  -0.01188   0.00000  -0.08993  -0.08739   2.14581
    D7       -0.63113   0.00082   0.00000   0.00778   0.00683  -0.62429
    D8        2.51263   0.00085   0.00000   0.00837   0.00741   2.52004
    D9        1.26530  -0.00346   0.00000  -0.01730  -0.01783   1.24747
   D10       -1.87414  -0.00343   0.00000  -0.01671  -0.01725  -1.89139
   D11       -2.95051   0.00326   0.00000   0.02237   0.02387  -2.92664
   D12        0.19324   0.00329   0.00000   0.02296   0.02445   0.21769
   D13       -0.17600   0.00106   0.00000  -0.01723  -0.01812  -0.19412
   D14        2.99182   0.00265   0.00000   0.00789   0.00701   2.99882
   D15       -2.47766  -0.00866   0.00000  -0.10475  -0.10387  -2.58152
   D16        0.69016  -0.00707   0.00000  -0.07964  -0.07874   0.61142
   D17       -3.10842   0.00126   0.00000   0.01602   0.01695  -3.09147
   D18        0.06996   0.00082   0.00000   0.00918   0.00983   0.07979
   D19        0.00730  -0.00067   0.00000  -0.00986  -0.00988  -0.00258
   D20       -3.09750  -0.00111   0.00000  -0.01671  -0.01700  -3.11450
   D21        3.10985  -0.00029   0.00000  -0.00849  -0.00750   3.10236
   D22       -0.01990  -0.00066   0.00000  -0.01341  -0.01259  -0.03249
   D23       -0.00700   0.00091   0.00000   0.01416   0.01405   0.00705
   D24       -3.13676   0.00053   0.00000   0.00924   0.00897  -3.12779
   D25       -0.00197   0.00005   0.00000   0.00019   0.00032  -0.00165
   D26       -3.13521  -0.00004   0.00000  -0.00035  -0.00037  -3.13558
   D27        3.10232   0.00067   0.00000   0.00795   0.00821   3.11052
   D28       -0.03092   0.00058   0.00000   0.00740   0.00751  -0.02341
   D29       -0.00390   0.00036   0.00000   0.00555   0.00542   0.00152
   D30       -3.14060   0.00008   0.00000   0.00143   0.00134  -3.13926
   D31        3.12933   0.00044   0.00000   0.00604   0.00607   3.13540
   D32       -0.00736   0.00016   0.00000   0.00192   0.00198  -0.00538
   D33        0.00419  -0.00010   0.00000  -0.00121  -0.00128   0.00291
   D34       -3.13916  -0.00027   0.00000  -0.00441  -0.00429   3.13973
   D35        3.14089   0.00018   0.00000   0.00292   0.00281  -3.13949
   D36       -0.00247   0.00001   0.00000  -0.00028  -0.00020  -0.00267
   D37        0.00138  -0.00056   0.00000  -0.00894  -0.00871  -0.00733
   D38        3.13093  -0.00017   0.00000  -0.00386  -0.00349   3.12744
   D39       -3.13845  -0.00039   0.00000  -0.00575  -0.00572   3.13902
   D40       -0.00890   0.00000   0.00000  -0.00067  -0.00051  -0.00941
   D41       -3.13289   0.00051   0.00000   0.00749   0.00750  -3.12539
   D42        0.01695   0.00034   0.00000   0.00482   0.00482   0.02177
   D43        0.00654   0.00048   0.00000   0.00687   0.00689   0.01343
   D44       -3.12681   0.00030   0.00000   0.00420   0.00421  -3.12260
   D45        3.13305  -0.00063   0.00000  -0.00914  -0.00914   3.12391
   D46       -0.01891  -0.00027   0.00000  -0.00382  -0.00382  -0.02274
   D47       -0.00637  -0.00059   0.00000  -0.00852  -0.00852  -0.01489
   D48        3.12485  -0.00023   0.00000  -0.00320  -0.00320   3.12165
   D49        0.00468  -0.00033   0.00000  -0.00493  -0.00490  -0.00022
   D50       -3.13414  -0.00030   0.00000  -0.00445  -0.00444  -3.13857
   D51        3.13789  -0.00014   0.00000  -0.00215  -0.00213   3.13576
   D52       -0.00093  -0.00011   0.00000  -0.00167  -0.00167  -0.00260
   D53       -3.12248   0.00011   0.00000   0.00162   0.00162  -3.12086
   D54       -0.01573   0.00031   0.00000   0.00469   0.00469  -0.01104
   D55        0.01636   0.00008   0.00000   0.00113   0.00113   0.01749
   D56        3.12310   0.00028   0.00000   0.00420   0.00421   3.12731
   D57       -0.53264   0.00073   0.00000   0.00668   0.00671  -0.52593
   D58        1.56314   0.00008   0.00000   0.00129   0.00130   1.56444
   D59       -2.62456  -0.00056   0.00000  -0.00400  -0.00402  -2.62858
   D60        2.64448   0.00055   0.00000   0.00366   0.00368   2.64816
   D61       -1.54293  -0.00011   0.00000  -0.00172  -0.00173  -1.54466
   D62        0.55255  -0.00075   0.00000  -0.00702  -0.00705   0.54550
   D63        0.01590  -0.00042   0.00000  -0.00635  -0.00636   0.00954
   D64       -3.12251  -0.00033   0.00000  -0.00498  -0.00499  -3.12750
   D65        3.12266  -0.00023   0.00000  -0.00330  -0.00331   3.11935
   D66       -0.01574  -0.00014   0.00000  -0.00193  -0.00194  -0.01769
   D67       -0.00502   0.00055   0.00000   0.00824   0.00821   0.00318
   D68       -3.13606   0.00018   0.00000   0.00277   0.00277  -3.13329
   D69        3.13336   0.00046   0.00000   0.00688   0.00686   3.14022
   D70        0.00232   0.00009   0.00000   0.00142   0.00142   0.00374
         Item               Value     Threshold  Converged?
 Maximum Force            0.054566     0.000450     NO 
 RMS     Force            0.010228     0.000300     NO 
 Maximum Displacement     0.575929     0.001800     NO 
 RMS     Displacement     0.215583     0.001200     NO 
 Predicted change in Energy=-2.317560D-02
 GradGradGradGradGradGradGradGradGradGradGradGradGradGradGradGradGradGrad

                          Input orientation:                          
 ---------------------------------------------------------------------
 Center     Atomic      Atomic             Coordinates (Angstroms)
 Number     Number       Type             X           Y           Z
 ---------------------------------------------------------------------
      1          8           0       -0.336058    2.784035    0.586629
      2         16           0       -0.089880    1.585625   -0.222089
      3          7           0        1.087100    0.769361    0.717296
      4          6           0        2.177076   -0.064689    0.352361
      5          6           0        2.441144   -0.611258   -0.916375
      6          6           0        3.525906   -1.464084   -1.102293
      7          6           0        4.372110   -1.794420   -0.047376
      8          6           0        4.118979   -1.258478    1.211551
      9          6           0        3.036043   -0.410720    1.408370
     10          6           0       -1.497406    0.487366   -0.105155
     11          6           0       -2.186687    0.391866    1.100035
     12          6           0       -3.267585   -0.475908    1.195183
     13          6           0       -3.670835   -1.252095    0.098814
     14          6           0       -4.858774   -2.169820    0.201875
     15          6           0       -2.966798   -1.124770   -1.105000
     16          6           0       -1.883301   -0.257600   -1.213460
     17          8           0        0.259350    1.723197   -1.639861
     18          1           0        1.312778    1.443527    1.445499
     19          1           0        1.818562   -0.350450   -1.762535
     20          1           0        3.714735   -1.871495   -2.095691
     21          1           0        5.220501   -2.461665   -0.203656
     22          1           0        4.768343   -1.505654    2.051896
     23          1           0        2.836000   -0.004620    2.401739
     24          1           0       -1.879729    0.997718    1.953487
     25          1           0       -3.813192   -0.552679    2.136448
     26          1           0       -4.988297   -2.546607    1.225185
     27          1           0       -5.782951   -1.642908   -0.078384
     28          1           0       -4.755382   -3.036825   -0.464033
     29          1           0       -3.275068   -1.710940   -1.971502
     30          1           0       -1.339584   -0.152321   -2.152516
 ---------------------------------------------------------------------
                    Distance matrix (angstroms):
                    1          2          3          4          5
     1  O    0.000000
     2  S    1.466565   0.000000
     3  N    2.470094   1.712896   0.000000
     4  C    3.806042   2.862275   1.420163   0.000000
     5  C    4.636796   3.422632   2.531486   1.406471   0.000000
     6  C    5.984458   4.811382   3.774514   2.427687   1.392332
     7  C    6.597806   5.600409   4.236624   2.823106   2.425626
     8  C    6.048123   5.278138   3.680856   2.436047   2.786054
     9  C    4.717285   4.051566   2.380872   1.404535   2.408020
    10  C    2.664954   1.789128   2.726834   3.743782   4.168600
    11  C    3.067717   2.751304   3.317631   4.450830   5.146745
    12  C    4.426219   4.044303   4.554378   5.524833   6.088233
    13  C    5.258236   4.580270   5.206414   5.972627   6.228769
    14  C    6.718904   6.084855   6.652658   7.345570   7.547741
    15  C    5.006112   4.049992   4.831416   5.450423   5.435541
    16  C    3.858215   2.756203   3.688597   4.356107   4.349040
    17  O    2.537153   1.466617   2.674166   3.292895   3.276177
    18  H    2.292003   2.183687   1.017698   2.053455   3.327731
    19  H    4.470565   3.124662   2.817547   2.164019   1.082412
    20  H    6.728872   5.471486   4.668135   3.409091   2.144999
    21  H    7.682269   6.676904   5.326601   3.913704   3.414206
    22  H    6.826664   6.191070   4.528620   3.417523   3.876394
    23  H    4.597083   4.239590   2.548538   2.153541   3.396145
    24  H    2.728031   2.877903   3.222172   4.488873   5.430916
    25  H    5.062219   4.898785   5.270166   6.269323   6.959876
    26  H    7.104000   6.569964   6.940032   7.633106   7.970473
    27  H    7.050440   6.546384   7.324599   8.126398   8.330802
    28  H    7.383544   6.572100   7.072283   7.586769   7.607757
    29  H    5.948665   4.906446   5.692982   6.151126   5.915883
    30  H    4.139102   2.882493   3.869640   4.318447   4.004069
                    6          7          8          9         10
     6  C    0.000000
     7  C    1.392132   0.000000
     8  C    2.397475   1.391476   0.000000
     9  C    2.766401   2.412239   1.389309   0.000000
    10  C    5.480521   6.297706   6.027061   4.863073   0.000000
    11  C    6.397540   7.008153   6.519010   5.293026   1.391658
    12  C    7.239227   7.851583   7.427921   6.307569   2.398397
    13  C    7.299361   8.062533   7.868889   6.885133   2.791258
    14  C    8.514797   9.241875   9.080200   8.177909   4.295777
    15  C    6.501565   7.444902   7.456039   6.546831   2.399538
    16  C    5.543237   6.546123   6.550556   5.576503   1.390046
    17  O    4.595447   5.641315   5.649573   4.642773   2.639847
    18  H    4.454591   4.698136   3.902605   2.531650   3.349015
    19  H    2.142692   3.398151   3.868026   3.397137   3.800590
    20  H    1.090175   2.152598   3.387781   3.856545   6.057465
    21  H    2.162028   1.090600   2.159589   3.402479   7.337354
    22  H    3.390322   2.155766   1.090389   2.147992   6.919871
    23  H    3.858011   3.400173   2.152845   1.091657   5.030405
    24  H    6.679757   7.133370   6.451773   5.142535   2.155142
    25  H    8.073566   8.562136   8.017039   6.889287   3.386642
    26  H    8.892730   9.476413   9.197930   8.305757   4.812599
    27  H    9.366706  10.156238   9.992994   9.027922   4.785883
    28  H    8.453438   9.221078   9.204584   8.432593   4.812808
    29  H    6.860737   7.885972   8.062784   7.276279   3.387607
    30  H    5.147493   6.304883   6.506646   5.647371   2.150766
                   11         12         13         14         15
    11  C    0.000000
    12  C    1.389397   0.000000
    13  C    2.430585   1.402534   0.000000
    14  C    3.809064   2.527426   1.504673   0.000000
    15  C    2.787639   2.408804   1.400374   2.525792   0.000000
    16  C    2.422005   2.786658   2.430301   3.809619   1.392018
    17  O    3.906734   5.031184   5.227018   6.689004   4.336476
    18  H    3.670366   4.972586   5.823773   7.258851   5.604994
    19  H    4.978690   5.884957   5.866094   7.194152   4.891992
    20  H    7.082531   7.844126   7.729564   8.881040   6.795730
    21  H    8.044171   8.828793   8.978329  10.091650   8.344553
    22  H    7.271800   8.146808   8.665942   9.825735   8.363221
    23  H    5.203751   6.239522   7.014168   8.290780   6.872002
    24  H    1.090716   2.161652   3.421919   4.687872   3.878275
    25  H    2.147518   1.090670   2.159027   2.729644   3.398625
    26  H    4.061933   2.692497   2.163371   1.098138   3.396739
    27  H    4.296753   3.051381   2.155265   1.100129   3.041895
    28  H    4.560748   3.394825   2.162938   1.098099   2.695520
    29  H    3.878234   3.399008   2.157169   2.728051   1.090620
    30  H    3.404822   3.876724   3.422386   4.690220   2.165819
                   16         17         18         19         20
    16  C    0.000000
    17  O    2.948954   0.000000
    18  H    4.492083   3.272212   0.000000
    19  H    3.743513   2.597345   3.710209   0.000000
    20  H    5.892452   5.006923   5.412836   2.453578   0.000000
    21  H    7.506104   6.647464   5.765461   4.296571   2.489062
    22  H    7.514290   6.662250   4.583265   4.958386   4.294929
    23  H    5.950249   5.094998   2.309054   4.300693   4.948159
    24  H    3.406668   4.244306   3.263265   5.413292   7.478386
    25  H    3.877297   6.002143   5.544169   6.852709   8.736130
    26  H    4.563720   7.346939   7.461450   7.751316   9.339527
    27  H    4.291241   7.090718   7.886549   7.892389   9.712251
    28  H    4.066274   7.013410   7.780901   7.219381   8.704205
    29  H    2.150312   4.939170   6.532601   5.276331   6.992750
[...]
     2  S    0.000023   0.000730   0.007015   0.308075  -0.039003   0.005641
     3  N    0.000968   0.013230  -0.039602  -0.061492  -0.000068  -0.001176
     4  C   -0.111922   0.009848   0.334258   0.044922   0.001137   0.000232
     5  C    0.048674  -0.090415   0.057880   0.003486   0.000347   0.000046
     6  C    0.413255   0.022504  -0.097974  -0.000075   0.000169  -0.000007
     7  C    4.963607   0.439239   0.035524  -0.000158  -0.000059   0.000020
     8  C    0.439239   4.933207   0.408697  -0.001746  -0.000678  -0.000048
     9  C    0.035524   0.408697   5.114866  -0.000257  -0.001880   0.000762
    10  C   -0.000158  -0.001746  -0.000257   5.293794   0.367091   0.015890
    11  C   -0.000059  -0.000678  -0.001880   0.367091   5.106843   0.404815
    12  C    0.000020  -0.000048   0.000762   0.015890   0.404815   5.068290
    13  C    0.000042   0.000057  -0.000468  -0.090515   0.018220   0.422477
    14  C   -0.000001  -0.000016   0.000010  -0.004323   0.011899  -0.073210
    15  C   -0.000197   0.001994  -0.000558   0.049882  -0.046819  -0.014062
    16  C   -0.000684   0.001164  -0.014037   0.317175  -0.069420  -0.050353
    17  O    0.000124   0.000102   0.001079  -0.078858   0.006842  -0.000244
    18  H    0.000135   0.001090   0.008821  -0.000718   0.000137  -0.000169
    19  H    0.010205  -0.004438   0.011278   0.001833  -0.000171   0.000007
    20  H   -0.058345   0.010551  -0.003501  -0.000017   0.000001  -0.000000
    21  H    0.443938  -0.056084   0.012198   0.000004  -0.000000   0.000000
    22  H   -0.057123   0.438870  -0.053944   0.000006  -0.000001  -0.000002
    23  H    0.010380  -0.031427   0.439852   0.000768   0.000383   0.000303
    24  H   -0.000003   0.000006  -0.000131  -0.045705   0.433044  -0.048909
    25  H   -0.000000   0.000003  -0.000002   0.011506  -0.050859   0.445407
    26  H    0.000000  -0.000001   0.000001   0.000130   0.001547  -0.006725
    27  H   -0.000000   0.000000  -0.000000   0.000153  -0.000571  -0.004116
    28  H   -0.000000   0.000001  -0.000002  -0.000001  -0.000522   0.007732
    29  H    0.000008   0.000072  -0.000079   0.010457  -0.003668   0.013096
    30  H    0.000110   0.000158  -0.001636  -0.046136   0.008129  -0.002385
              13         14         15         16         17         18
     1  O    0.000176   0.000001  -0.000613   0.008837  -0.043934   0.004376
     2  S   -0.000541   0.000004   0.004968  -0.016776   0.565070  -0.016587
     3  N    0.000214  -0.000005   0.000041   0.006490  -0.050054   0.365659
     4  C   -0.000692   0.000008   0.001924  -0.002826  -0.007653  -0.051543
     5  C    0.000219   0.000006  -0.002491   0.000916  -0.003585   0.004541
     6  C   -0.000036  -0.000001   0.000434  -0.001301  -0.001082  -0.000716
     7  C    0.000042  -0.000001  -0.000197  -0.000684   0.000124   0.000135
     8  C    0.000057  -0.000016   0.001994   0.001164   0.000102   0.001090
     9  C   -0.000468   0.000010  -0.000558  -0.014037   0.001079   0.008821
    10  C   -0.090515  -0.004323   0.049882   0.317175  -0.078858  -0.000718
    11  C    0.018220   0.011899  -0.046819  -0.069420   0.006842   0.000137
    12  C    0.422477  -0.073210  -0.014062  -0.050353  -0.000244  -0.000169
    13  C    4.971160   0.297719   0.423124   0.030812  -0.000117   0.000063
    14  C    0.297719   4.958312  -0.073807   0.015043  -0.000000   0.000000
    15  C    0.423124  -0.073807   5.095098   0.356594   0.002928  -0.000042
    16  C    0.030812   0.015043   0.356594   5.142138   0.018724   0.000709
    17  O   -0.000117  -0.000000   0.002928   0.018724   8.031330   0.002676
    18  H    0.000063   0.000000  -0.000042   0.000709   0.002676   0.429388
    19  H    0.000015   0.000000  -0.000157  -0.000445   0.008968  -0.000053
    20  H   -0.000000  -0.000000   0.000008  -0.000004  -0.000038   0.000013
    21  H   -0.000001   0.000000  -0.000002  -0.000017   0.000001  -0.000002
    22  H   -0.000005   0.000000   0.000022   0.000029  -0.000000  -0.000040
    23  H   -0.000010  -0.000001  -0.000255  -0.000254  -0.000017   0.003573
    24  H    0.008412  -0.000050  -0.002455   0.008308   0.000540   0.000364
    25  H   -0.062659  -0.005738   0.012631  -0.003868   0.000004  -0.000009
    26  H   -0.051874   0.425744   0.007016  -0.000823   0.000000   0.000000
    27  H   -0.017901   0.390689  -0.005222  -0.000760  -0.000000  -0.000000
    28  H   -0.055913   0.428958  -0.006347   0.002283   0.000000  -0.000000
    29  H   -0.061914  -0.007698   0.441958  -0.046845  -0.000011   0.000000
    30  H    0.008902  -0.000041  -0.049118   0.435742   0.008239  -0.000098
              19         20         21         22         23         24
     1  O   -0.000133  -0.000000   0.000000  -0.000000  -0.000175   0.013506
     2  S   -0.002947  -0.000003   0.000003  -0.000007  -0.000117  -0.004400
     3  N   -0.001401  -0.000119   0.000008  -0.000360   0.002889   0.000269
     4  C   -0.044759   0.013941  -0.003965   0.015210  -0.080464  -0.000181
     5  C    0.434588  -0.057692   0.011302  -0.003857   0.012036  -0.000017
     6  C   -0.048878   0.446316  -0.056287   0.010717  -0.003888   0.000007
     7  C    0.010205  -0.058345   0.443938  -0.057123   0.010380  -0.000003
     8  C   -0.004438   0.010551  -0.056084   0.438870  -0.031427   0.000006
     9  C    0.011278  -0.003501   0.012198  -0.053944   0.439852  -0.000131
    10  C    0.001833  -0.000017   0.000004   0.000006   0.000768  -0.045705
    11  C   -0.000171   0.000001  -0.000000  -0.000001   0.000383   0.433044
    12  C    0.000007  -0.000000   0.000000  -0.000002   0.000303  -0.048909
    13  C    0.000015  -0.000000  -0.000001  -0.000005  -0.000010   0.008412
    14  C    0.000000  -0.000000   0.000000   0.000000  -0.000001  -0.000050
    15  C   -0.000157   0.000008  -0.000002   0.000022  -0.000255  -0.002455
    16  C   -0.000445  -0.000004  -0.000017   0.000029  -0.000254   0.008308
    17  O    0.008968  -0.000038   0.000001  -0.000000  -0.000017   0.000540
    18  H   -0.000053   0.000013  -0.000002  -0.000040   0.003573   0.000364
    19  H    0.475952  -0.006489  -0.000017   0.000015   0.000012  -0.000005
    20  H   -0.006489   0.534771  -0.006847  -0.000125   0.000028   0.000000
    21  H   -0.000017  -0.006847   0.538800  -0.006649  -0.000099  -0.000000
    22  H    0.000015  -0.000125  -0.006649   0.541651  -0.007510   0.000000
    23  H    0.000012   0.000028  -0.000099  -0.007510   0.538731  -0.000066
    24  H   -0.000005   0.000000  -0.000000   0.000000  -0.000066   0.477806
    25  H   -0.000000   0.000000   0.000000   0.000000  -0.000003  -0.005642
    26  H   -0.000000  -0.000000   0.000000  -0.000000   0.000001  -0.000017
    27  H    0.000000   0.000000  -0.000000  -0.000000  -0.000000   0.000006
    28  H   -0.000000   0.000000  -0.000000   0.000000  -0.000000   0.000004
    29  H   -0.000007   0.000001  -0.000000  -0.000000  -0.000002   0.000032
    30  H   -0.000093  -0.000017  -0.000004   0.000004  -0.000052  -0.000066
              25         26         27         28         29         30
     1  O   -0.000028   0.000000  -0.000000   0.000000   0.000003   0.000388
     2  S   -0.000114   0.000001  -0.000001   0.000001  -0.000100  -0.004126
     3  N    0.000018  -0.000000   0.000000  -0.000000   0.000031   0.000365
     4  C   -0.000007  -0.000001  -0.000000   0.000002   0.000035   0.000098
     5  C   -0.000002   0.000000  -0.000000  -0.000000  -0.000101   0.000058
     6  C    0.000000  -0.000000   0.000000   0.000000   0.000055   0.000341
     7  C   -0.000000   0.000000  -0.000000  -0.000000   0.000008   0.000110
     8  C    0.000003  -0.000001   0.000000   0.000001   0.000072   0.000158
     9  C   -0.000002   0.000001  -0.000000  -0.000002  -0.000079  -0.001636
    10  C    0.011506   0.000130   0.000153  -0.000001   0.010457  -0.046136
    11  C   -0.050859   0.001547  -0.000571  -0.000522  -0.003668   0.008129
    12  C    0.445407  -0.006725  -0.004116   0.007732   0.013096  -0.002385
    13  C   -0.062659  -0.051874  -0.017901  -0.055913  -0.061914   0.008902
    14  C   -0.005738   0.425744   0.390689   0.428958  -0.007698  -0.000041
    15  C    0.012631   0.007016  -0.005222  -0.006347   0.441958  -0.049118
    16  C   -0.003868  -0.000823  -0.000760   0.002283  -0.046845   0.435742
    17  O    0.000004   0.000000  -0.000000   0.000000  -0.000011   0.008239
    18  H   -0.000009   0.000000  -0.000000  -0.000000   0.000000  -0.000098
    19  H   -0.000000  -0.000000   0.000000  -0.000000  -0.000007  -0.000093
    20  H    0.000000  -0.000000   0.000000   0.000000   0.000001  -0.000017
    21  H    0.000000   0.000000  -0.000000  -0.000000  -0.000000  -0.000004
    22  H    0.000000  -0.000000  -0.000000   0.000000  -0.000000   0.000004
    23  H   -0.000003   0.000001  -0.000000  -0.000000  -0.000002  -0.000052
    24  H   -0.005642  -0.000017   0.000006   0.000004   0.000032  -0.000066
    25  H    0.532895   0.000726   0.000220   0.000060  -0.000049   0.000026
    26  H    0.000726   0.543144  -0.025256  -0.023526   0.000072   0.000002
    27  H    0.000220  -0.025256   0.544728  -0.022433   0.000243   0.000010
    28  H    0.000060  -0.023526  -0.022433   0.539672   0.001280  -0.000024
    29  H   -0.000049   0.000072   0.000243   0.001280   0.534009  -0.005512
    30  H    0.000026   0.000002   0.000010  -0.000024  -0.005512   0.481606
 Mulliken charges:
               1
     1  O   -0.474561
     2  S    0.856399
     3  N   -0.316426
     4  C    0.200376
     5  C   -0.271128
     6  C   -0.072155
     7  C   -0.137757
     8  C   -0.096671
     9  C   -0.217644
    10  C    0.001042
    11  C   -0.173570
    12  C   -0.186113
    13  C    0.161033
    14  C   -0.363505
    15  C   -0.196476
    16  C   -0.136550
    17  O   -0.461034
    18  H    0.248432
    19  H    0.167119
    20  H    0.127565
    21  H    0.123718
    22  H    0.123099
    23  H    0.115383
    24  H    0.165343
    25  H    0.125486
    26  H    0.129839
    27  H    0.140211
    28  H    0.128778
    29  H    0.124636
    30  H    0.165128
 Sum of Mulliken charges =  -0.00000
 Mulliken charges with hydrogens summed into heavy atoms:
               1
     1  O   -0.474561
     2  S    0.856399
     3  N   -0.067993
     4  C    0.200376
     5  C   -0.104010
     6  C    0.055410
     7  C   -0.014038
     8  C    0.026429
     9  C   -0.102261
    10  C    0.001042
    11  C   -0.008227
    12  C   -0.060627
    13  C    0.161033
    14  C    0.035324
    15  C   -0.071839
    16  C    0.028578
    17  O   -0.461034
 Electronic spatial extent (au):  <R**2>=           4367.9370
 Charge=             -0.0000 electrons
 Dipole moment (field-independent basis, Debye):
    X=              1.8254    Y=             -5.3760    Z=             -1.7745  Tot=              5.9483
 Quadrupole moment (field-independent basis, Debye-Ang):
   XX=            -96.7768   YY=           -114.0486   ZZ=           -101.0791
   XY=             -0.2749   XZ=             -2.7048   YZ=             -4.5111
 Traceless Quadrupole moment (field-independent basis, Debye-Ang):
   XX=              7.1913   YY=            -10.0804   ZZ=              2.8891
   XY=             -0.2749   XZ=             -2.7048   YZ=             -4.5111
 Octapole moment (field-independent basis, Debye-Ang**2):
  XXX=             42.4234  YYY=            -42.1475  ZZZ=            -11.9152  XYY=             -3.5308
  XXY=            -16.3165  XXZ=              7.3963  XZZ=             -3.0472  YZZ=             -0.5775
  YYZ=             -0.7506  XYZ=              1.0043
 Hexadecapole moment (field-independent basis, Debye-Ang**3):
 XXXX=          -3343.4404 YYYY=          -1978.3166 ZZZZ=           -578.2461 XXXY=            -52.3752
 XXXZ=           -112.6014 YYYX=             18.3119 YYYZ=             17.3210 ZZZX=            -14.3377
 ZZZY=            -23.6762 XXYY=           -821.8120 XXZZ=           -641.1787 YYZZ=           -410.0637
 XXYZ=            -30.8043 YYXZ=             12.7837 ZZXY=              1.9766
 N-N= 1.331841357106D+03 E-N=-5.259054076877D+03  KE= 1.102023567729D+03
 Breneman (CHELPG) radii used.
 Read replacement radii for each type of atom:
 Atom Element Radius
    1     8    1.70
    2    16    2.00
    3     7    1.70
    4     6    1.50
    5     6    1.50
    6     6    1.50
    7     6    1.50
    8     6    1.50
    9     6    1.50
   10     6    1.50
   11     6    1.50
   12     6    1.50
   13     6    1.50
   14     6    1.50
   15     6    1.50
   16     6    1.50
   17     8    1.70
   18     1    1.45
   19     1    1.45
   20     1    1.45
   21     1    1.45
   22     1    1.45
   23     1    1.45
   24     1    1.45
   25     1    1.45
   26     1    1.45
   27     1    1.45
   28     1    1.45
   29     1    1.45
   30     1    1.45
 Generate Potential Derived Charges using the Breneman model, NDens= 1.
 Grid spacing= 0.300 Box extension= 2.800
 NStep X,Y,Z=   50     42     34   Total possible points=       71400
 Number of Points to Fit=   18696

 **********************************************************************

            Electrostatic Properties Using The SCF Density.

 **********************************************************************

       Atomic Center    1 is at   0.246874  3.114596 -0.604365
       Atomic Center    2 is at  -0.209854  1.955724  0.138676
       Atomic Center    3 is at  -1.389030  1.267831 -0.841494
       Atomic Center    4 is at  -1.951406  0.005247 -0.531931
       Atomic Center    5 is at  -2.683481 -0.166176  0.648317
       Atomic Center    6 is at  -3.218788 -1.415256  0.951094
       Atomic Center    7 is at  -3.056016 -2.490030  0.076640
       Atomic Center    8 is at  -2.340107 -2.312451 -1.105997
       Atomic Center    9 is at  -1.776585 -1.074168 -1.404379
       Atomic Center   10 is at   1.099551  0.751233  0.173726
       Atomic Center   11 is at   2.135190  0.845430 -0.754537
       Atomic Center   12 is at   3.122147 -0.134427 -0.767658
       Atomic Center   13 is at   3.088349 -1.209263  0.131142
       Atomic Center   14 is at   4.178398 -2.247371  0.126345
       Atomic Center   15 is at   2.036422 -1.275685  1.052907
       Atomic Center   16 is at   1.043277 -0.301385  1.085438
       Atomic Center   17 is at  -0.758220  2.054325  1.476981
       Atomic Center   18 is at  -1.146875  1.412197 -1.817924
       Atomic Center   19 is at  -2.816244  0.683703  1.317762
       Atomic Center   20 is at  -3.784944 -1.544320  1.876087
       Atomic Center   21 is at  -3.489628 -3.463242  0.315119
       Atomic Center   22 is at  -2.205700 -3.146557 -1.797962
       Atomic Center   23 is at  -1.191690 -0.940998 -2.318047
       Atomic Center   24 is at   2.166421  1.689434 -1.446169
       Atomic Center   25 is at   3.939600 -0.061700 -1.489528
       Atomic Center   26 is at   4.546586 -2.438439 -0.891706
       Atomic Center   27 is at   5.036582 -1.907855  0.728504
       Atomic Center   28 is at   3.830905 -3.198782  0.552375
       Atomic Center   29 is at   1.993568 -2.105263  1.762839
       Atomic Center   30 is at   0.231342 -0.350141  1.812718
   18696 points will be used for fitting atomic charges
 Fitting point charges to electrostatic potential
 Charges from ESP fit, RMS=   0.00370 RRMS=   0.22606:
 ESP charges:
               1
     1  O   -0.477842
     2  S    0.897733
     3  N   -0.625784
     4  C    0.384175
     5  C   -0.194314
     6  C   -0.050376
     7  C   -0.156415
     8  C   -0.051501
     9  C   -0.264533
    10  C   -0.043060
    11  C   -0.074147
    12  C   -0.217240
    13  C    0.255810
    14  C   -0.317492
    15  C   -0.235258
    16  C   -0.033937
    17  O   -0.459209
    18  H    0.352352
    19  H    0.149726
    20  H    0.093553
    21  H    0.107671
    22  H    0.103722
    23  H    0.110035
    24  H    0.112927
    25  H    0.129222
    26  H    0.087288
    27  H    0.101197
    28  H    0.091980
    29  H    0.129474
    30  H    0.094241
 Sum of ESP charges =  -0.00000
 ESP charges with hydrogens summed into heavy atoms:
               1
     1  O   -0.477842
     2  S    0.897733
     3  N   -0.273432
     4  C    0.384175
     5  C   -0.044588
     6  C    0.043177
     7  C   -0.048744
     8  C    0.052221
     9  C   -0.154498
    10  C   -0.043060
    11  C    0.038781
    12  C   -0.088018
    13  C    0.255810
    14  C   -0.037027
    15  C   -0.105784
    16  C    0.060304
    17  O   -0.459209
 Charge=  -0.00000 Dipole=     1.7077    -5.2476    -1.7358 Tot=     5.7850
 -----------------------------------------------------------------

              Electrostatic Properties (Atomic Units)

 -----------------------------------------------------------------
    Center     Electric         -------- Electric Field --------
               Potential          X             Y             Z
 -----------------------------------------------------------------
    1 Atom    -22.373228
    2 Atom    -59.026771
    3 Atom    -18.345567
    4 Atom    -14.712661
    5 Atom    -14.763193
    6 Atom    -14.758998
    7 Atom    -14.761262
    8 Atom    -14.756730
    9 Atom    -14.755817
   10 Atom    -14.732015
   11 Atom    -14.744862
   12 Atom    -14.752127
   13 Atom    -14.736841
   14 Atom    -14.755043
   15 Atom    -14.752962
   16 Atom    -14.745680
   17 Atom    -22.373359
   18 Atom     -1.001948
   19 Atom     -1.101946
   20 Atom     -1.099727
   21 Atom     -1.099278
   22 Atom     -1.096105
   23 Atom     -1.087795
   24 Atom     -1.086186
   25 Atom     -1.090154
   26 Atom     -1.099920
   27 Atom     -1.097658
   28 Atom     -1.100682
   29 Atom     -1.091519
   30 Atom     -1.088640
 -----------------------------------------------------------------
 Unable to Open any file for archive entry.
 1\1\GINC-NOTCH224\SP\RwB97XD\def2TZVP\C13H13N1O2S1\U1366379\17-Feb-202
 6\0\\#N Guess=Read Geom=Check Integral(Ultrafine) Density Pop=(ChelpG,
 ReadRadii) NMR wB97XD def2TZVP\\prod_5l_27\\0,1\O,0,-0.4697987451,3.18
 04506489,0.4247491387\S,0,-0.0168304317,2.0101828125,-0.3025667933\N,0
 ,1.3371327821,1.4882831212,0.5452477405\C,0,1.9609051113,0.2542602093,
 0.2381491395\C,0,2.5420666835,0.0558661909,-1.0193068623\C,0,3.1388407
 036,-1.1663442591,-1.3167786684\C,0,3.1873690695,-2.1848701872,-0.3646
 463492\C,0,2.6219517611,-1.9789266569,0.8925650646\C,0,1.997673609,-0.
 7699606308,1.1902436058\C,0,-1.2098118305,0.7081535781,-0.0832850746\C
 ,0,-2.11741973,0.7880431834,0.9716834074\C,0,-3.0051328258,-0.26208562
 52,1.1804190488\C,0,-2.9976987665,-1.392864293,0.3524450232\C,0,-3.983
 2500051,-2.5095287599,0.5707250494\C,0,-2.0755566205,-1.4434011182,-0.
 7000351572\C,0,-1.1838261158,-0.3997117703,-0.9284768452\O,0,0.3385500
 399,2.0546530884,-1.7072786102\H,0,1.2150141029,1.6832048392,1.5351922
 729\H,0,2.5106140904,0.8631645021,-1.7509875242\H,0,3.5863591577,-1.31
 7165977,-2.3015531672\H,0,3.6683230201,-3.1360468594,-0.6012451701\H,0
 ,2.6533994142,-2.7690495644,1.6457789635\H,0,1.5297948696,-0.617327190
 2,2.1661626187\H,0,-2.1297640735,1.6745938752,1.6085104855\H,0,-3.7228
 229454,-0.2014213297,2.002523354\H,0,-4.1951805587,-2.6549608013,1.639
 5719843\H,0,-4.9399118622,-2.2819203117,0.0733938842\H,0,-3.614092731,
 -3.4592041711,0.1592943147\H,0,-2.0554153015,-2.3160182703,-1.35743371
 84\H,0,-0.4743818713,-0.4373582734,-1.7566211555\\Version=ES64L-G16Rev
 C.01\State=1-A\HF=-1106.6304679\RMSD=3.995e-09\Dipole=-0.4329601,-2.10
 8849,0.9176663\Quadrupole=4.5547235,-6.8785012,2.3237777,1.5347784,-2.
 737404,3.6660049\PG=C01 [X(C13H13N1O2S1)]\\@
 The archive entry for this job was punched.


 MEMORIES ARE LIKE AN ENGLISH GRAMMER LESSON -
 PRESENT TENSE, AND PAST PERFECT.
 Job cpu time:       0 days  2 hours  9 minutes 13.6 seconds.
 Elapsed time:       0 days  0 hours 16 minutes 39.0 seconds.
 File lengths (MBytes):  RWF=    226 Int=      0 D2E=      0 Chk=     34 Scr=      2
 Normal termination of Gaussian 16 at Tue Feb 17 17:37:02 2026.
