 Entering Gaussian System, Link 0=g16
 Input=prod_5l_31.com
 Output=prod_5l_31.log
 Initial command:
 /uufs/chpc.utah.edu/sys/installdir/gaussian16/C01/AVX/g16/l1.exe "/scratch/general/vast/u1366379/GAUSSSCRDIR/11028707-notchpeak.peaks/Gau-1511722.inp" -scrdir="/scratch/general/vast/u1366379/GAUSSSCRDIR/11028707-notchpeak.peaks/"
 Entering Link 1 = /uufs/chpc.utah.edu/sys/installdir/gaussian16/C01/AVX/g16/l1.exe PID=   1511732.
  
 Copyright (c) 1988-2019, Gaussian, Inc.  All Rights Reserved.
  
 This is part of the Gaussian(R) 16 program.  It is based on
 the Gaussian(R) 09 system (copyright 2009, Gaussian, Inc.),
 the Gaussian(R) 03 system (copyright 2003, Gaussian, Inc.),
 the Gaussian(R) 98 system (copyright 1998, Gaussian, Inc.),
 the Gaussian(R) 94 system (copyright 1995, Gaussian, Inc.),
 the Gaussian 92(TM) system (copyright 1992, Gaussian, Inc.),
 the Gaussian 90(TM) system (copyright 1990, Gaussian, Inc.),
 the Gaussian 88(TM) system (copyright 1988, Gaussian, Inc.),
 the Gaussian 86(TM) system (copyright 1986, Carnegie Mellon
 University), and the Gaussian 82(TM) system (copyright 1983,
 Carnegie Mellon University). Gaussian is a federally registered
 trademark of Gaussian, Inc.
  
 This software contains proprietary and confidential information,
 including trade secrets, belonging to Gaussian, Inc.
  
 This software is provided under written license and may be
 used, copied, transmitted, or stored only in accord with that
 written license.
  
 The following legend is applicable only to US Government
 contracts under FAR:
  
                    RESTRICTED RIGHTS LEGEND
  
 Use, reproduction and disclosure by the US Government is
 subject to restrictions as set forth in subparagraphs (a)
 and (c) of the Commercial Computer Software - Restricted
 Rights clause in FAR 52.227-19.
  
 Gaussian, Inc.
 340 Quinnipiac St., Bldg. 40, Wallingford CT 06492
  
  
 ---------------------------------------------------------------
 Warning -- This program may not be used in any manner that
 competes with the business of Gaussian, Inc. or will provide
 assistance to any competitor of Gaussian, Inc.  The licensee
 of this program is prohibited from giving any competitor of
 Gaussian, Inc. access to this program.  By using this program,
 the user acknowledges that Gaussian, Inc. is engaged in the
 business of creating and licensing software in the field of
 computational chemistry and represents and warrants to the
 licensee that it is not a competitor of Gaussian, Inc. and that
 it will not use this program in any manner prohibited above.
 ---------------------------------------------------------------
  

 Cite this work as:
 Gaussian 16, Revision C.01,
 M. J. Frisch, G. W. Trucks, H. B. Schlegel, G. E. Scuseria, 
 M. A. Robb, J. R. Cheeseman, G. Scalmani, V. Barone, 
 G. A. Petersson, H. Nakatsuji, X. Li, M. Caricato, A. V. Marenich, 
 J. Bloino, B. G. Janesko, R. Gomperts, B. Mennucci, H. P. Hratchian, 
 J. V. Ortiz, A. F. Izmaylov, J. L. Sonnenberg, D. Williams-Young, 
 F. Ding, F. Lipparini, F. Egidi, J. Goings, B. Peng, A. Petrone, 
 T. Henderson, D. Ranasinghe, V. G. Zakrzewski, J. Gao, N. Rega, 
 G. Zheng, W. Liang, M. Hada, M. Ehara, K. Toyota, R. Fukuda, 
 J. Hasegawa, M. Ishida, T. Nakajima, Y. Honda, O. Kitao, H. Nakai, 
 T. Vreven, K. Throssell, J. A. Montgomery, Jr., J. E. Peralta, 
 F. Ogliaro, M. J. Bearpark, J. J. Heyd, E. N. Brothers, K. N. Kudin, 
 V. N. Staroverov, T. A. Keith, R. Kobayashi, J. Normand, 
 K. Raghavachari, A. P. Rendell, J. C. Burant, S. S. Iyengar, 
 J. Tomasi, M. Cossi, J. M. Millam, M. Klene, C. Adamo, R. Cammi, 
 J. W. Ochterski, R. L. Martin, K. Morokuma, O. Farkas, 
 J. B. Foresman, and D. J. Fox, Gaussian, Inc., Wallingford CT, 2019.
 
 ******************************************
 Gaussian 16:  ES64L-G16RevC.01  3-Jul-2019
                17-Feb-2026 
 ******************************************
 %NProcShared=8
 Will use up to    8 processors via shared memory.
 %Mem=8GB
 %chk=prod_5l_31.chk
 ------------------------------------------------------
 #N OPT FREQ=NORAMAN Integral(Ultrafine) wB97XD def2SVP
 ------------------------------------------------------
 1/18=20,19=15,26=4,38=1/1,3;
 2/9=110,12=2,17=6,18=5,40=1/2;
 3/5=43,7=101,11=2,25=1,30=1,71=1,74=-58,75=-5/1,2,3;
 4//1;
 5/5=2,38=5/2;
 6/7=2,8=2,9=2,10=2,28=1/1;
 7//1,2,3,16;
 1/18=20,19=15,26=4/3(2);
 2/9=110/2;
 99//99;
 2/9=110/2;
 3/5=43,7=101,11=2,25=1,30=1,71=1,74=-58,75=-5/1,2,3;
 4/5=5,16=3,69=1/1;
 5/5=2,38=5/2;
 7//1,2,3,16;
 1/18=20,19=15,26=4/3(-5);
 2/9=110/2;
 6/7=2,8=2,9=2,10=2,19=2,28=1/1;
 99/9=1/99;
 ----------
 prod_5l_31
 ----------
 Symbolic Z-matrix:
 Charge =  0 Multiplicity = 1
 O                    -0.37319   2.81781   0.91627 
 S                     0.03025   1.65713   0.05607 
 N                     1.01508   0.66117   1.03767 
 C                     2.0253   -0.14277   0.51195 
 C                     2.90739  -0.78643   1.38683 
 C                     3.89408  -1.61866   0.91261 
 C                     4.03033  -1.83152  -0.44478 
 C                     3.17613  -1.20276  -1.32832 
 C                     2.1891   -0.37     -0.8587 
 C                    -1.35686   0.52124  -0.03824 
 C                    -2.01495   0.14587   1.10788 
 C                    -3.07726  -0.73235   1.03485 
 C                    -3.48623  -1.24659  -0.18723 
 C                    -4.64784  -2.17258  -0.26953 
 C                    -2.81747  -0.84703  -1.33528 
 C                    -1.75555   0.03103  -1.25837 
 O                     0.52056   1.84872  -1.34912 
 H                     1.24906   1.22921   1.82818 
 H                     2.79239  -0.62608   2.44433 
 H                     4.5622   -2.10736   1.60253 
 H                     4.80481  -2.48327  -0.81406 
 H                     3.28837  -1.3586   -2.3887 
 H                     1.54792   0.14817  -1.54724 
 H                    -1.69553   0.54846   2.05496 
 H                    -3.59953  -1.02284   1.93003 
 H                    -4.5515   -2.85     -1.11849 
 H                    -4.72996  -2.7812    0.63143 
 H                    -5.57805  -1.61596  -0.38637 
 H                    -3.13658  -1.226    -2.2908 
 H                    -1.23333   0.34793  -2.14619 
 

 GradGradGradGradGradGradGradGradGradGradGradGradGradGradGradGradGradGrad
 Berny optimization.
 Initialization pass.
                           ----------------------------
                           !    Initial Parameters    !
                           ! (Angstroms and Degrees)  !
 --------------------------                            --------------------------
 ! Name  Definition              Value          Derivative Info.                !
 --------------------------------------------------------------------------------
 ! R1    R(1,2)                  1.5            estimate D2E/DX2                !
 ! R2    R(2,3)                  1.7104         estimate D2E/DX2                !
 ! R3    R(2,10)                 1.7953         estimate D2E/DX2                !
 ! R4    R(2,17)                 1.5006         estimate D2E/DX2                !
 ! R5    R(3,4)                  1.394          estimate D2E/DX2                !
 ! R6    R(3,18)                 1.0012         estimate D2E/DX2                !
 ! R7    R(4,5)                  1.3992         estimate D2E/DX2                !
 ! R8    R(4,9)                  1.399          estimate D2E/DX2                !
 ! R9    R(5,6)                  1.3752         estimate D2E/DX2                !
 ! R10   R(5,19)                 1.0758         estimate D2E/DX2                !
 ! R11   R(6,7)                  1.3807         estimate D2E/DX2                !
 ! R12   R(6,20)                 1.0776         estimate D2E/DX2                !
 ! R13   R(7,8)                  1.3804         estimate D2E/DX2                !
 ! R14   R(7,21)                 1.0775         estimate D2E/DX2                !
 ! R15   R(8,9)                  1.3741         estimate D2E/DX2                !
 ! R16   R(8,22)                 1.0776         estimate D2E/DX2                !
 ! R17   R(9,23)                 1.0741         estimate D2E/DX2                !
 ! R18   R(10,11)                1.3739         estimate D2E/DX2                !
 ! R19   R(10,16)                1.374          estimate D2E/DX2                !
 ! R20   R(11,12)                1.3803         estimate D2E/DX2                !
 ! R21   R(11,24)                1.0775         estimate D2E/DX2                !
 ! R22   R(12,13)                1.3875         estimate D2E/DX2                !
 ! R23   R(12,25)                1.0763         estimate D2E/DX2                !
 ! R24   R(13,14)                1.4878         estimate D2E/DX2                !
 ! R25   R(13,15)                1.3874         estimate D2E/DX2                !
 ! R26   R(14,26)                1.0904         estimate D2E/DX2                !
 ! R27   R(14,27)                1.0904         estimate D2E/DX2                !
 ! R28   R(14,28)                1.0903         estimate D2E/DX2                !
 ! R29   R(15,16)                1.3801         estimate D2E/DX2                !
 ! R30   R(15,29)                1.0763         estimate D2E/DX2                !
 ! R31   R(16,30)                1.0777         estimate D2E/DX2                !
 ! A1    A(1,2,3)              106.0417         estimate D2E/DX2                !
 ! A2    A(1,2,10)             108.1735         estimate D2E/DX2                !
 ! A3    A(1,2,17)             121.7437         estimate D2E/DX2                !
 ! A4    A(3,2,10)              96.1195         estimate D2E/DX2                !
 ! A5    A(3,2,17)             115.0647         estimate D2E/DX2                !
 ! A6    A(10,2,17)            106.5018         estimate D2E/DX2                !
 ! A7    A(2,3,4)              122.4566         estimate D2E/DX2                !
 ! A8    A(2,3,18)             104.912          estimate D2E/DX2                !
 ! A9    A(4,3,18)             117.1054         estimate D2E/DX2                !
 ! A10   A(3,4,5)              119.1009         estimate D2E/DX2                !
 ! A11   A(3,4,9)              123.231          estimate D2E/DX2                !
 ! A12   A(5,4,9)              117.6502         estimate D2E/DX2                !
 ! A13   A(4,5,6)              121.0047         estimate D2E/DX2                !
 ! A14   A(4,5,19)             118.6002         estimate D2E/DX2                !
 ! A15   A(6,5,19)             120.3918         estimate D2E/DX2                !
 ! A16   A(5,6,7)              120.2071         estimate D2E/DX2                !
 ! A17   A(5,6,20)             119.9035         estimate D2E/DX2                !
 ! A18   A(7,6,20)             119.8894         estimate D2E/DX2                !
 ! A19   A(6,7,8)              119.864          estimate D2E/DX2                !
 ! A20   A(6,7,21)             120.074          estimate D2E/DX2                !
 ! A21   A(8,7,21)             120.0613         estimate D2E/DX2                !
 ! A22   A(7,8,9)              120.1164         estimate D2E/DX2                !
 ! A23   A(7,8,22)             119.9653         estimate D2E/DX2                !
 ! A24   A(9,8,22)             119.9164         estimate D2E/DX2                !
 ! A25   A(4,9,8)              121.156          estimate D2E/DX2                !
 ! A26   A(4,9,23)             118.6726         estimate D2E/DX2                !
 ! A27   A(8,9,23)             120.1363         estimate D2E/DX2                !
 ! A28   A(2,10,11)            119.942          estimate D2E/DX2                !
 ! A29   A(2,10,16)            119.7722         estimate D2E/DX2                !
 ! A30   A(11,10,16)           120.2858         estimate D2E/DX2                !
 ! A31   A(10,11,12)           119.8916         estimate D2E/DX2                !
 ! A32   A(10,11,24)           119.2847         estimate D2E/DX2                !
 ! A33   A(12,11,24)           120.8228         estimate D2E/DX2                !
 ! A34   A(11,12,13)           120.6154         estimate D2E/DX2                !
 ! A35   A(11,12,25)           120.0776         estimate D2E/DX2                !
 ! A36   A(13,12,25)           119.3067         estimate D2E/DX2                !
 ! A37   A(12,13,14)           120.6318         estimate D2E/DX2                !
 ! A38   A(12,13,15)           118.6859         estimate D2E/DX2                !
 ! A39   A(14,13,15)           120.651          estimate D2E/DX2                !
 ! A40   A(13,14,26)           111.1467         estimate D2E/DX2                !
 ! A41   A(13,14,27)           111.1308         estimate D2E/DX2                !
 ! A42   A(13,14,28)           110.7505         estimate D2E/DX2                !
 ! A43   A(26,14,27)           107.6511         estimate D2E/DX2                !
 ! A44   A(26,14,28)           108.006          estimate D2E/DX2                !
 ! A45   A(27,14,28)           108.0142         estimate D2E/DX2                !
 ! A46   A(13,15,16)           120.5319         estimate D2E/DX2                !
 ! A47   A(13,15,29)           119.3599         estimate D2E/DX2                !
 ! A48   A(16,15,29)           120.1078         estimate D2E/DX2                !
 ! A49   A(10,16,15)           119.9833         estimate D2E/DX2                !
 ! A50   A(10,16,30)           119.0806         estimate D2E/DX2                !
 ! A51   A(15,16,30)           120.9345         estimate D2E/DX2                !
 ! D1    D(1,2,3,4)           -150.9846         estimate D2E/DX2                !
 ! D2    D(1,2,3,18)           -14.2518         estimate D2E/DX2                !
 ! D3    D(10,2,3,4)            98.0858         estimate D2E/DX2                !
 ! D4    D(10,2,3,18)         -125.1814         estimate D2E/DX2                !
 ! D5    D(17,2,3,4)           -13.3533         estimate D2E/DX2                !
 ! D6    D(17,2,3,18)          123.3794         estimate D2E/DX2                !
 ! D7    D(1,2,10,11)          -47.9438         estimate D2E/DX2                !
 ! D8    D(1,2,10,16)          132.0524         estimate D2E/DX2                !
 ! D9    D(3,2,10,11)           61.1859         estimate D2E/DX2                !
 ! D10   D(3,2,10,16)         -118.818          estimate D2E/DX2                !
 ! D11   D(17,2,10,11)         179.6191         estimate D2E/DX2                !
 ! D12   D(17,2,10,16)          -0.3847         estimate D2E/DX2                !
 ! D13   D(2,3,4,5)            171.2539         estimate D2E/DX2                !
 ! D14   D(2,3,4,9)            -10.3213         estimate D2E/DX2                !
 ! D15   D(18,3,4,5)            39.3304         estimate D2E/DX2                !
 ! D16   D(18,3,4,9)          -142.2449         estimate D2E/DX2                !
 ! D17   D(3,4,5,6)            178.1267         estimate D2E/DX2                !
 ! D18   D(3,4,5,19)            -1.2097         estimate D2E/DX2                !
 ! D19   D(9,4,5,6)             -0.3858         estimate D2E/DX2                !
 ! D20   D(9,4,5,19)          -179.7222         estimate D2E/DX2                !
 ! D21   D(3,4,9,8)           -178.0373         estimate D2E/DX2                !
 ! D22   D(3,4,9,23)             4.1152         estimate D2E/DX2                !
 ! D23   D(5,4,9,8)              0.4088         estimate D2E/DX2                !
 ! D24   D(5,4,9,23)          -177.4387         estimate D2E/DX2                !
 ! D25   D(4,5,6,7)              0.0698         estimate D2E/DX2                !
 ! D26   D(4,5,6,20)          -179.8437         estimate D2E/DX2                !
 ! D27   D(19,5,6,7)           179.3943         estimate D2E/DX2                !
 ! D28   D(19,5,6,20)           -0.5191         estimate D2E/DX2                !
 ! D29   D(5,6,7,8)              0.2373         estimate D2E/DX2                !
 ! D30   D(5,6,7,21)           179.9395         estimate D2E/DX2                !
 ! D31   D(20,6,7,8)          -179.8492         estimate D2E/DX2                !
 ! D32   D(20,6,7,21)           -0.147          estimate D2E/DX2                !
 ! D33   D(6,7,8,9)             -0.2149         estimate D2E/DX2                !
 ! D34   D(6,7,8,22)           179.2793         estimate D2E/DX2                !
 ! D35   D(21,7,8,9)          -179.9172         estimate D2E/DX2                !
 ! D36   D(21,7,8,22)           -0.423          estimate D2E/DX2                !
 ! D37   D(7,8,9,4)             -0.115          estimate D2E/DX2                !
 ! D38   D(7,8,9,23)           177.7013         estimate D2E/DX2                !
 ! D39   D(22,8,9,4)          -179.6094         estimate D2E/DX2                !
 ! D40   D(22,8,9,23)           -1.7931         estimate D2E/DX2                !
 ! D41   D(2,10,11,12)        -179.6967         estimate D2E/DX2                !
 ! D42   D(2,10,11,24)           0.6571         estimate D2E/DX2                !
 ! D43   D(16,10,11,12)          0.3071         estimate D2E/DX2                !
 ! D44   D(16,10,11,24)       -179.339          estimate D2E/DX2                !
 ! D45   D(2,10,16,15)         179.7104         estimate D2E/DX2                !
 ! D46   D(2,10,16,30)          -0.7511         estimate D2E/DX2                !
 ! D47   D(11,10,16,15)         -0.2934         estimate D2E/DX2                !
 ! D48   D(11,10,16,30)        179.2451         estimate D2E/DX2                !
 ! D49   D(10,11,12,13)          0.2621         estimate D2E/DX2                !
 ! D50   D(10,11,12,25)       -179.5526         estimate D2E/DX2                !
 ! D51   D(24,11,12,13)        179.9026         estimate D2E/DX2                !
 ! D52   D(24,11,12,25)          0.088          estimate D2E/DX2                !
 ! D53   D(11,12,13,14)       -178.8054         estimate D2E/DX2                !
 ! D54   D(11,12,13,15)         -0.8275         estimate D2E/DX2                !
 ! D55   D(25,12,13,14)          1.0107         estimate D2E/DX2                !
 ! D56   D(25,12,13,15)        178.9886         estimate D2E/DX2                !
 ! D57   D(12,13,14,26)       -151.6355         estimate D2E/DX2                !
 ! D58   D(12,13,14,27)        -31.7648         estimate D2E/DX2                !
 ! D59   D(12,13,14,28)         88.2998         estimate D2E/DX2                !
 ! D60   D(15,13,14,26)         30.4265         estimate D2E/DX2                !
 ! D61   D(15,13,14,27)        150.2972         estimate D2E/DX2                !
 ! D62   D(15,13,14,28)        -89.6382         estimate D2E/DX2                !
 ! D63   D(12,13,15,16)          0.8407         estimate D2E/DX2                !
 ! D64   D(12,13,15,29)       -178.9503         estimate D2E/DX2                !
 ! D65   D(14,13,15,16)        178.8182         estimate D2E/DX2                !
 ! D66   D(14,13,15,29)         -0.9728         estimate D2E/DX2                !
 ! D67   D(13,15,16,10)         -0.2896         estimate D2E/DX2                !
 ! D68   D(13,15,16,30)       -179.8194         estimate D2E/DX2                !
 ! D69   D(29,15,16,10)        179.4999         estimate D2E/DX2                !
 ! D70   D(29,15,16,30)         -0.03           estimate D2E/DX2                !
 --------------------------------------------------------------------------------
 Trust Radius=3.00D-01 FncErr=1.00D-07 GrdErr=1.00D-06 EigMax=2.50D+02 EigMin=1.00D-04
 Number of steps in this run=    162 maximum allowed number of steps=    180.
 GradGradGradGradGradGradGradGradGradGradGradGradGradGradGradGradGradGrad

                          Input orientation:                          
 ---------------------------------------------------------------------
 Center     Atomic      Atomic             Coordinates (Angstroms)
 Number     Number       Type             X           Y           Z
 ---------------------------------------------------------------------
      1          8           0       -0.373190    2.817810    0.916270
      2         16           0        0.030250    1.657130    0.056070
      3          7           0        1.015080    0.661170    1.037670
      4          6           0        2.025300   -0.142770    0.511950
      5          6           0        2.907390   -0.786430    1.386830
      6          6           0        3.894080   -1.618660    0.912610
      7          6           0        4.030330   -1.831520   -0.444780
      8          6           0        3.176130   -1.202760   -1.328320
      9          6           0        2.189100   -0.370000   -0.858700
     10          6           0       -1.356860    0.521240   -0.038240
     11          6           0       -2.014950    0.145870    1.107880
     12          6           0       -3.077260   -0.732350    1.034850
     13          6           0       -3.486230   -1.246590   -0.187230
     14          6           0       -4.647840   -2.172580   -0.269530
     15          6           0       -2.817470   -0.847030   -1.335280
     16          6           0       -1.755550    0.031030   -1.258370
     17          8           0        0.520560    1.848720   -1.349120
     18          1           0        1.249060    1.229210    1.828180
     19          1           0        2.792390   -0.626080    2.444330
     20          1           0        4.562200   -2.107360    1.602530
     21          1           0        4.804810   -2.483270   -0.814060
     22          1           0        3.288370   -1.358600   -2.388700
     23          1           0        1.547920    0.148170   -1.547240
     24          1           0       -1.695530    0.548460    2.054960
     25          1           0       -3.599530   -1.022840    1.930030
     26          1           0       -4.551500   -2.850000   -1.118490
     27          1           0       -4.729960   -2.781200    0.631430
     28          1           0       -5.578050   -1.615960   -0.386370
     29          1           0       -3.136580   -1.226000   -2.290800
     30          1           0       -1.233330    0.347930   -2.146190
 ---------------------------------------------------------------------
                    Distance matrix (angstroms):
                    1          2          3          4          5
     1  O    0.000000
     2  S    1.499962   0.000000
     3  N    2.567709   1.710370   0.000000
     4  C    3.831614   2.725379   1.394003   0.000000
     5  C    4.896343   4.002480   2.407965   1.399213   0.000000
     6  C    6.155637   5.137474   3.674494   2.414771   1.375154
     7  C    6.546733   5.331245   4.183646   2.790583   2.389143
     8  C    5.813849   4.471249   3.707058   2.415488   2.759998
     9  C    4.458473   3.099467   2.457204   1.398980   2.394109
    10  C    2.674496   1.795331   2.608306   3.490362   4.682377
    11  C    3.141871   2.751918   3.074337   4.094150   5.017612
    12  C    4.464268   4.040327   4.323095   5.163056   5.995236
    13  C    5.237182   4.566883   5.040012   5.664295   6.600590
    14  C    6.677031   6.054521   6.465878   7.018663   7.857890
    15  C    4.947225   4.039329   4.753314   5.230742   6.339367
    16  C    3.795540   2.749734   3.653117   4.178405   5.422945
    17  O    2.621053   1.500556   2.711382   3.113496   4.486245
    18  H    2.446819   2.192940   1.001160   2.053616   2.647197
    19  H    4.921000   4.306536   2.606633   2.134504   1.075752
    20  H    7.006163   6.091100   4.534963   3.388929   2.128328
    21  H    7.609676   6.379378   5.261032   3.868064   3.365024
    22  H    6.463145   5.068222   4.581193   3.389301   3.837597
    23  H    4.109321   2.674114   2.688652   2.133729   3.366066
    24  H    2.862717   2.864093   2.897411   4.086962   4.838926
    25  H    5.117379   4.885619   4.992677   5.867213   6.533832
    26  H    7.329570   6.533471   6.925616   7.296693   8.134494
    27  H    7.100105   6.533713   6.709726   7.253215   7.929619
    28  H    6.960298   6.508602   7.119169   7.796679   8.708332
    29  H    5.854402   4.883549   5.645919   5.972755   7.088565
    30  H    4.027258   2.856674   3.910298   4.233812   5.560087
                    6          7          8          9         10
     6  C    0.000000
     7  C    1.380718   0.000000
     8  C    2.389601   1.380449   0.000000
     9  C    2.757471   2.386943   1.374140   0.000000
    10  C    5.749405   5.892586   5.018414   3.747172   0.000000
    11  C    6.169954   6.547231   5.890771   4.669860   1.373891
    12  C    7.028518   7.342705   6.701548   5.608153   2.383860
    13  C    7.471082   7.543683   6.759515   5.781752   2.771577
    14  C    8.641104   8.686637   7.954627   7.095080   4.259191
    15  C    7.119925   6.975283   6.004151   5.051775   2.384923
    16  C    6.273193   6.132490   5.084152   3.985075   1.374037
    17  O    5.340298   5.165315   4.045246   2.819088   2.646756
    18  H    3.993089   4.719097   4.426236   3.265038   3.282615
    19  H    2.131924   3.366383   3.835714   3.367424   4.969484
    20  H    1.077591   2.133179   3.365913   3.835059   6.681088
    21  H    2.135034   1.077481   2.134659   3.363011   6.898924
    22  H    3.366476   2.133772   1.077632   2.127587   5.535036
    23  H    3.831060   3.361094   2.126971   1.074104   3.294542
    24  H    6.102877   6.685692   6.184370   4.941997   2.120595
    25  H    7.585798   8.031715   7.520557   6.458440   3.359738
    26  H    8.773220   8.668275   7.904030   7.187042   4.768430
    27  H    8.706585   8.877094   8.296888   7.477149   4.767848
    28  H    9.560785   9.610975   8.814401   7.880617   4.744182
    29  H    7.736032   7.425567   6.385704   5.580906   3.360696
    30  H    6.286022   5.945664   4.745196   3.726403   2.118667
                   11         12         13         14         15
    11  C    0.000000
    12  C    1.380256   0.000000
    13  C    2.404354   1.387508   0.000000
    14  C    3.768896   2.498478   1.487807   0.000000
    15  C    2.756614   2.387082   1.387410   2.498632   0.000000
    16  C    2.383194   2.754728   2.403104   3.768162   1.380065
    17  O    3.919867   5.028871   5.194738   6.636921   4.290653
    18  H    3.513719   4.816029   5.710905   7.123622   5.554720
    19  H    5.049012   6.037443   6.836023   8.069307   6.767924
    20  H    6.969980   7.782947   8.289837   9.398601   8.042306
    21  H    7.557470   8.283189   8.406167   9.473417   7.813329
    22  H    6.527994   7.254938   7.124200   8.254506   6.217128
    23  H    4.443389   5.369804   5.397930   6.738387   4.482408
    24  H    1.077529   2.142493   3.384705   4.639337   3.834041
    25  H    2.133707   1.076335   2.132063   2.694238   3.362258
    26  H    4.512876   3.360759   2.138450   1.090373   2.658147
    27  H    4.020699   2.663072   2.138246   1.090363   3.356573
    28  H    4.246470   3.009084   2.133495   1.090306   3.018689
    29  H    3.832898   3.362612   2.132530   2.695450   1.076321
    30  H    3.352720   3.832245   3.384609   4.640442   2.143596
                   16         17         18         19         20
    16  C    0.000000
    17  O    2.914260   0.000000
    18  H    4.471030   3.318093   0.000000
    19  H    5.901317   5.067160   2.490705   0.000000
    20  H    7.257508   6.379472   4.707496   2.456633   0.000000
    21  H    7.039704   6.116145   5.779905   4.256301   2.457656
    22  H    5.352555   4.362155   5.351413   4.913325   4.255961
    23  H    3.318144   1.996645   3.556884   4.252152   4.908600
    24  H    3.354026   4.264914   3.030752   4.655382   6.813021
    25  H    3.831031   5.997818   5.347048   6.424840   8.239980
    26  H    4.017118   6.917872   7.679148   8.460037   9.540178
    27  H    4.508558   7.275074   7.298238   8.032241   9.367034
    28  H    4.252583   7.079826   7.720664   8.891400  10.345137
    29  H    2.133842   4.869840   6.498299   7.611442   8.672141
    30  H    1.077666   2.442094   4.768074   6.182879   7.325948
                   21         22         23         24         25
    21  H    0.000000
    22  H    2.458447   0.000000
    23  H    4.250807   2.451036   0.000000
    24  H    7.725094   6.944224   4.863748   0.000000
    25  H    8.960793   8.136789   6.321306   2.471802   0.000000
    26  H    9.368442   8.080920   6.809976   5.456820   3.679434
    27  H    9.648318   8.685539   7.262203   4.724493   2.460907
    28  H   10.427796   9.093347   7.432309   5.071367   3.103553
    29  H    8.174788   6.427064   4.938194   4.910292   4.251000
    30  H    6.800691   4.839094   2.852016   4.231253   4.908511
                   26         27         28         29         30
    26  H    0.000000
    27  H    1.760341   0.000000
    28  H    1.764273   1.764358   0.000000
    29  H    2.452282   3.673818   3.120849   0.000000
    30  H    4.721565   5.452802   5.082364   2.473970   0.000000
 Stoichiometry    C13H13NO2S
 Framework group  C1[X(C13H13NO2S)]
 Deg. of freedom    84
 Full point group                 C1      NOp   1
 Largest Abelian subgroup         C1      NOp   1
 Largest concise Abelian subgroup C1      NOp   1
                         Standard orientation:                         
 ---------------------------------------------------------------------
 Center     Atomic      Atomic             Coordinates (Angstroms)
 Number     Number       Type             X           Y           Z
 ---------------------------------------------------------------------
      1          8           0        0.303428    2.979874   -0.480088
      2         16           0       -0.065451    1.697871    0.205684
      3          7           0       -1.076139    0.852393   -0.884747
      4          6           0       -2.064300   -0.032526   -0.456144
      5          6           0       -2.970781   -0.544954   -1.390760
      6          6           0       -3.936942   -1.449767   -1.018072
      7          6           0       -4.027852   -1.867746    0.294715
      8          6           0       -3.148882   -1.371649    1.236491
      9          6           0       -2.182235   -0.467008    0.868417
     10          6           0        1.330234    0.575310    0.082650
     11          6           0        1.952807    0.385247   -1.127249
     12          6           0        3.021755   -0.482790   -1.221945
     13          6           0        3.473036   -1.172417   -0.105729
     14          6           0        4.641795   -2.088044   -0.201640
     15          6           0        2.839728   -0.958851    1.110091
     16          6           0        1.771044   -0.090378    1.200917
     17          8           0       -0.510906    1.668687    1.638300
     18          1           0       -1.338803    1.531457   -1.571917
     19          1           0       -2.891078   -0.224646   -2.414622
     20          1           0       -4.624415   -1.834913   -1.753085
     21          1           0       -4.786322   -2.576037    0.584563
     22          1           0       -3.225758   -1.687909    2.263798
     23          1           0       -1.521895   -0.052806    1.607393
     24          1           0        1.600576    0.923685   -1.991591
     25          1           0        3.516265   -0.628490   -2.166788
     26          1           0        4.576820   -2.887523    0.536956
     27          1           0        4.697960   -2.551861   -1.186836
     28          1           0        5.572226   -1.545996   -0.030611
     29          1           0        3.191793   -1.475229    1.986374
     30          1           0        1.276199    0.082543    2.142506
 ---------------------------------------------------------------------
 Rotational constants (GHZ):           0.6841478           0.2732620           0.2374693
 Standard basis: def2SVP (5D, 7F)
 There are   324 symmetry adapted cartesian basis functions of A   symmetry.
 There are   307 symmetry adapted basis functions of A   symmetry.
   307 basis functions,   528 primitive gaussians,   324 cartesian basis functions
    65 alpha electrons       65 beta electrons
       nuclear repulsion energy      1310.2578356918 Hartrees.
 NAtoms=   30 NActive=   30 NUniq=   30 SFac= 1.00D+00 NAtFMM=   60 NAOKFM=F Big=F
 Integral buffers will be    131072 words long.
 Raffenetti 2 integral format.
 Two-electron integral symmetry is turned on.
 Nuclear repulsion after empirical dispersion term =     1310.2389177010 Hartrees.
 One-electron integrals computed using PRISM.
   1 Symmetry operations used in ECPInt.
 ECPInt:  NShTT=   10296 NPrTT=   38220 LenC2=    9425 LenP2D=   24682.
 LDataN:  DoStor=T MaxTD1= 4 Len=   56
 NBasis=   307 RedAO= T EigKep=  2.42D-04  NBF=   307
 NBsUse=   307 1.00D-06 EigRej= -1.00D+00 NBFU=   307
 ExpMin= 1.22D-01 ExpMax= 9.18D+03 ExpMxC= 1.38D+03 IAcc=3 IRadAn=         5 AccDes= 0.00D+00
 Harris functional with IExCor= 4639 and IRadAn=       5 diagonalized for initial guess.
 HarFok:  IExCor= 4639 AccDes= 0.00D+00 IRadAn=         5 IDoV= 1 UseB2=F ITyADJ=14
 ICtDFT=  3500011 ScaDFX=  1.000000  1.000000  1.000000  1.000000
 FoFCou: FMM=F IPFlag=           0 FMFlag=      100000 FMFlg1=           0
         NFxFlg=           0 DoJE=T BraDBF=F KetDBF=T FulRan=T
         wScrn=  0.000000 ICntrl=       500 IOpCl=  0 I1Cent=   200000004 NGrid=           0
         NMat0=    1 NMatS0=      1 NMatT0=    0 NMatD0=    1 NMtDS0=    0 NMtDT0=    0
 Petite list used in FoFCou.
 Requested convergence on RMS density matrix=1.00D-08 within 128 cycles.
 Requested convergence on MAX density matrix=1.00D-06.
 Requested convergence on             energy=1.00D-06.
 No special actions if energy rises.
 Integral accuracy reduced to 1.0D-05 until final iterations.
 Initial convergence to 1.0D-05 achieved.  Increase integral accuracy.
 SCF Done:  E(RwB97XD) =  -1105.64489899     A.U. after   16 cycles
            NFock= 16  Conv=0.37D-08     -V/T= 2.0071

 **********************************************************************

            Population analysis using the SCF Density.

 **********************************************************************

 Orbital symmetries:
       Occupied  (A) (A) (A) (A) (A) (A) (A) (A) (A) (A) (A) (A)
                 (A) (A) (A) (A) (A) (A) (A) (A) (A) (A) (A) (A)
                 (A) (A) (A) (A) (A) (A) (A) (A) (A) (A) (A) (A)
                 (A) (A) (A) (A) (A) (A) (A) (A) (A) (A) (A) (A)
                 (A) (A) (A) (A) (A) (A) (A) (A) (A) (A) (A) (A)
                 (A) (A) (A) (A) (A)
       Virtual   (A) (A) (A) (A) (A) (A) (A) (A) (A) (A) (A) (A)
                 (A) (A) (A) (A) (A) (A) (A) (A) (A) (A) (A) (A)
                 (A) (A) (A) (A) (A) (A) (A) (A) (A) (A) (A) (A)
                 (A) (A) (A) (A) (A) (A) (A) (A) (A) (A) (A) (A)
                 (A) (A) (A) (A) (A) (A) (A) (A) (A) (A) (A) (A)
                 (A) (A) (A) (A) (A) (A) (A) (A) (A) (A) (A) (A)
                 (A) (A) (A) (A) (A) (A) (A) (A) (A) (A) (A) (A)
                 (A) (A) (A) (A) (A) (A) (A) (A) (A) (A) (A) (A)
                 (A) (A) (A) (A) (A) (A) (A) (A) (A) (A) (A) (A)
                 (A) (A) (A) (A) (A) (A) (A) (A) (A) (A) (A) (A)
                 (A) (A) (A) (A) (A) (A) (A) (A) (A) (A) (A) (A)
                 (A) (A) (A) (A) (A) (A) (A) (A) (A) (A) (A) (A)
                 (A) (A) (A) (A) (A) (A) (A) (A) (A) (A) (A) (A)
                 (A) (A) (A) (A) (A) (A) (A) (A) (A) (A) (A) (A)
                 (A) (A) (A) (A) (A) (A) (A) (A) (A) (A) (A) (A)
                 (A) (A) (A) (A) (A) (A) (A) (A) (A) (A) (A) (A)
                 (A) (A) (A) (A) (A) (A) (A) (A) (A) (A) (A) (A)
                 (A) (A) (A) (A) (A) (A) (A) (A) (A) (A) (A) (A)
                 (A) (A) (A) (A) (A) (A) (A) (A) (A) (A) (A) (A)
                 (A) (A) (A) (A) (A) (A) (A) (A) (A) (A) (A) (A)
                 (A) (A)
 The electronic state is 1-A.
 Alpha  occ. eigenvalues --  -89.25817 -19.26358 -19.25887 -14.49855 -10.35528
 Alpha  occ. eigenvalues --  -10.33332 -10.32556 -10.32337 -10.32083 -10.31452
 Alpha  occ. eigenvalues --  -10.31305 -10.30726 -10.30488 -10.30343 -10.30025
 Alpha  occ. eigenvalues --  -10.29521 -10.29379  -8.27569  -6.23005  -6.22906
 Alpha  occ. eigenvalues --   -6.22760  -1.20415  -1.09073  -1.05233  -0.98604
 Alpha  occ. eigenvalues --   -0.95315  -0.90214  -0.86356  -0.85065  -0.84639
 Alpha  occ. eigenvalues --   -0.81405  -0.75907  -0.72558  -0.71519  -0.70828
 Alpha  occ. eigenvalues --   -0.68011  -0.64566  -0.63587  -0.60476  -0.58768
 Alpha  occ. eigenvalues --   -0.58286  -0.56419  -0.54792  -0.54098  -0.53459
 Alpha  occ. eigenvalues --   -0.52947  -0.52816  -0.52691  -0.51515  -0.49621
 Alpha  occ. eigenvalues --   -0.48520  -0.47325  -0.46329  -0.46037  -0.44210
 Alpha  occ. eigenvalues --   -0.44083  -0.42755  -0.41553  -0.40815  -0.39247
 Alpha  occ. eigenvalues --   -0.38675  -0.35342  -0.34587  -0.33827  -0.30567
 Alpha virt. eigenvalues --    0.02758   0.04423   0.06004   0.06367   0.10864
 Alpha virt. eigenvalues --    0.13020   0.13668   0.14808   0.15277   0.16022
 Alpha virt. eigenvalues --    0.16968   0.17227   0.18665   0.19337   0.20635
 Alpha virt. eigenvalues --    0.20923   0.21594   0.22375   0.23749   0.24360
 Alpha virt. eigenvalues --    0.24554   0.25860   0.28826   0.30281   0.31946
 Alpha virt. eigenvalues --    0.34543   0.36313   0.36646   0.37433   0.37631
 Alpha virt. eigenvalues --    0.38670   0.39662   0.39986   0.41721   0.43799
 Alpha virt. eigenvalues --    0.46193   0.47106   0.48033   0.48523   0.49048
 Alpha virt. eigenvalues --    0.49803   0.51365   0.52183   0.52307   0.53365
 Alpha virt. eigenvalues --    0.54874   0.54994   0.55685   0.56569   0.57274
 Alpha virt. eigenvalues --    0.57857   0.58714   0.59164   0.60978   0.61621
 Alpha virt. eigenvalues --    0.62374   0.63295   0.63863   0.64934   0.65747
 Alpha virt. eigenvalues --    0.68567   0.70225   0.70261   0.71275   0.71798
 Alpha virt. eigenvalues --    0.72029   0.72174   0.72787   0.73779   0.74181
 Alpha virt. eigenvalues --    0.75069   0.75278   0.76306   0.76537   0.77255
 Alpha virt. eigenvalues --    0.77916   0.78168   0.78718   0.79425   0.80596
 Alpha virt. eigenvalues --    0.81379   0.82366   0.83194   0.83758   0.84670
 Alpha virt. eigenvalues --    0.84876   0.85753   0.86743   0.88523   0.89835
 Alpha virt. eigenvalues --    0.91973   0.92644   0.93955   0.94445   0.96237
 Alpha virt. eigenvalues --    0.98077   0.99514   1.01757   1.04204   1.04683
 Alpha virt. eigenvalues --    1.07626   1.09945   1.12369   1.13000   1.13855
 Alpha virt. eigenvalues --    1.15414   1.16793   1.18712   1.21236   1.22425
 Alpha virt. eigenvalues --    1.23364   1.24848   1.27386   1.28497   1.29419
 Alpha virt. eigenvalues --    1.30739   1.31264   1.31668   1.31972   1.33024
 Alpha virt. eigenvalues --    1.34192   1.34537   1.37213   1.37558   1.38364
 Alpha virt. eigenvalues --    1.39295   1.40171   1.41051   1.43962   1.51715
 Alpha virt. eigenvalues --    1.54904   1.56780   1.60128   1.60612   1.62322
 Alpha virt. eigenvalues --    1.63407   1.66521   1.69954   1.73708   1.75307
 Alpha virt. eigenvalues --    1.77495   1.78075   1.78874   1.80508   1.81225
 Alpha virt. eigenvalues --    1.81941   1.82160   1.83441   1.83966   1.84356
 Alpha virt. eigenvalues --    1.84937   1.85967   1.86458   1.87354   1.87852
 Alpha virt. eigenvalues --    1.88015   1.88568   1.89699   1.92201   1.92528
 Alpha virt. eigenvalues --    1.93766   1.95114   1.96132   1.97439   2.03016
 Alpha virt. eigenvalues --    2.04223   2.04957   2.05431   2.06331   2.08404
 Alpha virt. eigenvalues --    2.10181   2.10801   2.13214   2.14092   2.17350
 Alpha virt. eigenvalues --    2.17555   2.19978   2.20916   2.21981   2.22955
 Alpha virt. eigenvalues --    2.24391   2.24950   2.29540   2.30767   2.31407
 Alpha virt. eigenvalues --    2.33804   2.35229   2.36245   2.38250   2.39711
 Alpha virt. eigenvalues --    2.40684   2.42583   2.43860   2.44474   2.45564
 Alpha virt. eigenvalues --    2.46087   2.52157   2.55676   2.56372   2.57149
 Alpha virt. eigenvalues --    2.59970   2.61209   2.68554   2.69680   2.71629
 Alpha virt. eigenvalues --    2.71851   2.72307   2.73463   2.73556   2.74053
 Alpha virt. eigenvalues --    2.74843   2.75392   2.77926   2.77977   2.80983
 Alpha virt. eigenvalues --    2.83043   2.83381   2.84403   2.85108   2.85305
 Alpha virt. eigenvalues --    2.88245   2.94378   2.95463   2.96978   2.99219
 Alpha virt. eigenvalues --    3.01066   3.01337   3.02850   3.03709   3.05166
 Alpha virt. eigenvalues --    3.05877   3.08936   3.23162   3.23771   3.25545
 Alpha virt. eigenvalues --    3.31728   3.33657   3.33922   3.46783   3.47418
 Alpha virt. eigenvalues --    3.69752   3.78748
          Condensed to atoms (all electrons):
               1          2          3          4          5          6
     1  O    8.148833   0.426348  -0.046638   0.000696  -0.000065   0.000000
     2  S    0.426348  13.933890   0.196186  -0.030595   0.000696  -0.000184
     3  N   -0.046638   0.196186   6.875027   0.265577  -0.073132   0.006680
     4  C    0.000696  -0.030595   0.265577   5.172131   0.262377   0.111569
     5  C   -0.000065   0.000696  -0.073132   0.262377   5.141820   0.310950
     6  C    0.000000  -0.000184   0.006680   0.111569   0.310950   5.006837
     7  C   -0.000000   0.000060  -0.000469  -0.163802   0.085811   0.285080
     8  C    0.000006  -0.001086   0.007680   0.110201  -0.146555   0.096558
     9  C    0.000138  -0.000058  -0.078450   0.252204   0.076019  -0.147374
    10  C   -0.057916   0.236512  -0.105984   0.003458  -0.000893  -0.000008
    11  C    0.006896  -0.029979  -0.001223   0.000432  -0.000151   0.000006
    12  C    0.000680  -0.000739   0.000144  -0.000020   0.000003  -0.000000
    13  C   -0.000021   0.001031  -0.000059   0.000034   0.000001  -0.000000
    14  C   -0.000000   0.000008  -0.000000  -0.000000  -0.000000   0.000000
    15  C   -0.000033   0.002124   0.000002  -0.000164  -0.000004   0.000000
    16  C    0.000270  -0.035029   0.000400   0.000664   0.000021  -0.000004
    17  O   -0.025433   0.400320  -0.038588   0.001888   0.000250  -0.000005
    18  H    0.011433  -0.002672   0.317354  -0.002237  -0.014761   0.000213
    19  H   -0.000024  -0.000149  -0.009507  -0.082367   0.452123  -0.059843
    20  H   -0.000000   0.000003  -0.000110   0.015533  -0.069365   0.453940
    21  H    0.000000   0.000000   0.000011  -0.001453   0.014474  -0.070399
    22  H    0.000000  -0.000013  -0.000101   0.015401  -0.001929   0.014129
    23  H    0.000317  -0.000870  -0.014119  -0.070938   0.013991  -0.002191
    24  H    0.007035  -0.006322   0.005201   0.000063   0.000051   0.000001
    25  H   -0.000004  -0.000181  -0.000003  -0.000002  -0.000000   0.000000
    26  H    0.000000  -0.000000  -0.000000  -0.000000  -0.000000  -0.000000
    27  H    0.000000  -0.000000  -0.000000   0.000000  -0.000000   0.000000
    28  H   -0.000000  -0.000000   0.000000   0.000000   0.000000  -0.000000
    29  H    0.000001  -0.000153   0.000003  -0.000001   0.000000  -0.000000
    30  H    0.000117  -0.013860   0.000808  -0.000335  -0.000013   0.000001
               7          8          9         10         11         12
     1  O   -0.000000   0.000006   0.000138  -0.057916   0.006896   0.000680
     2  S    0.000060  -0.001086  -0.000058   0.236512  -0.029979  -0.000739
     3  N   -0.000469   0.007680  -0.078450  -0.105984  -0.001223   0.000144
     4  C   -0.163802   0.110201   0.252204   0.003458   0.000432  -0.000020
     5  C    0.085811  -0.146555   0.076019  -0.000893  -0.000151   0.000003
     6  C    0.285080   0.096558  -0.147374  -0.000008   0.000006  -0.000000
     7  C    5.104956   0.273609   0.089348   0.000005  -0.000002   0.000000
     8  C    0.273609   5.049607   0.264825  -0.000366   0.000010   0.000000
     9  C    0.089348   0.264825   5.202947  -0.000708  -0.000122  -0.000006
    10  C    0.000005  -0.000366  -0.000708   5.731228   0.167102   0.092067
    11  C   -0.000002   0.000010  -0.000122   0.167102   5.070686   0.328485
    12  C    0.000000   0.000000  -0.000006   0.092067   0.328485   5.045377
    13  C    0.000000  -0.000001  -0.000020  -0.184101   0.089441   0.292583
    14  C   -0.000000   0.000000   0.000000   0.000709   0.009994  -0.076906
    15  C   -0.000000   0.000013  -0.000086   0.093923  -0.118808   0.050340
    16  C    0.000003  -0.000030   0.000560   0.282243   0.040141  -0.121210
    17  O   -0.000030   0.001380  -0.020999  -0.065639   0.004621   0.000016
    18  H    0.000009  -0.000266   0.004410   0.002992   0.002303   0.000023
    19  H    0.014898  -0.002212   0.016884   0.000001  -0.000006  -0.000001
    20  H   -0.069206   0.013868  -0.001911  -0.000000  -0.000000   0.000000
    21  H    0.451782  -0.067967   0.014785   0.000000  -0.000000  -0.000000
    22  H   -0.074110   0.456897  -0.067062  -0.000003   0.000001  -0.000000
    23  H    0.013887  -0.052013   0.448838  -0.003399  -0.000465  -0.000025
    24  H    0.000000   0.000001  -0.000056  -0.083208   0.447883  -0.047547
    25  H   -0.000000   0.000000   0.000000   0.016377  -0.066342   0.459626
    26  H    0.000000  -0.000000   0.000000   0.000026  -0.000556   0.007500
    27  H    0.000000  -0.000000   0.000000   0.000019   0.000764  -0.008603
    28  H    0.000000   0.000000  -0.000000   0.000068  -0.000200  -0.003591
    29  H    0.000000   0.000000  -0.000001   0.016496  -0.002050   0.014651
    30  H   -0.000003   0.000144  -0.000340  -0.066354   0.013858  -0.001853
              13         14         15         16         17         18
     1  O   -0.000021  -0.000000  -0.000033   0.000270  -0.025433   0.011433
     2  S    0.001031   0.000008   0.002124  -0.035029   0.400320  -0.002672
     3  N   -0.000059  -0.000000   0.000002   0.000400  -0.038588   0.317354
     4  C    0.000034  -0.000000  -0.000164   0.000664   0.001888  -0.002237
     5  C    0.000001  -0.000000  -0.000004   0.000021   0.000250  -0.014761
     6  C   -0.000000   0.000000   0.000000  -0.000004  -0.000005   0.000213
     7  C    0.000000  -0.000000  -0.000000   0.000003  -0.000030   0.000009
     8  C   -0.000001   0.000000   0.000013  -0.000030   0.001380  -0.000266
     9  C   -0.000020   0.000000  -0.000086   0.000560  -0.020999   0.004410
    10  C   -0.184101   0.000709   0.093923   0.282243  -0.065639   0.002992
    11  C    0.089441   0.009994  -0.118808   0.040141   0.004621   0.002303
    12  C    0.292583  -0.076906   0.050340  -0.121210   0.000016   0.000023
    13  C    5.258872   0.407374   0.285664   0.098667  -0.000042   0.000011
    14  C    0.407374   4.549673  -0.076679   0.009530   0.000000   0.000000
    15  C    0.285664  -0.076679   5.106827   0.264667   0.001712   0.000007
    16  C    0.098667   0.009530   0.264667   5.056584   0.002572  -0.000435
    17  O   -0.000042   0.000000   0.001712   0.002572   8.152176   0.001224
    18  H    0.000011   0.000000   0.000007  -0.000435   0.001224   0.511751
    19  H   -0.000000  -0.000000  -0.000000  -0.000000   0.000014   0.003029
    20  H   -0.000000  -0.000000   0.000000  -0.000000  -0.000000  -0.000024
    21  H    0.000000   0.000000   0.000000  -0.000000   0.000000  -0.000001
    22  H    0.000000  -0.000000  -0.000000  -0.000000   0.000019   0.000010
    23  H   -0.000001  -0.000000   0.000308   0.002209   0.030032  -0.000318
    24  H    0.014430  -0.000251  -0.001683   0.012660   0.000231  -0.000385
    25  H   -0.075814  -0.013485   0.014591  -0.001970   0.000000  -0.000005
    26  H   -0.018829   0.392279  -0.008811   0.000824   0.000000  -0.000000
    27  H   -0.018835   0.391933   0.007344  -0.000543   0.000000   0.000000
    28  H   -0.011450   0.389740  -0.003541  -0.000266  -0.000000  -0.000000
    29  H   -0.076856  -0.013819   0.460809  -0.066269  -0.000007  -0.000000
    30  H    0.013729  -0.000206  -0.054544   0.448520   0.015572  -0.000038
              19         20         21         22         23         24
     1  O   -0.000024  -0.000000   0.000000   0.000000   0.000317   0.007035
     2  S   -0.000149   0.000003   0.000000  -0.000013  -0.000870  -0.006322
     3  N   -0.009507  -0.000110   0.000011  -0.000101  -0.014119   0.005201
     4  C   -0.082367   0.015533  -0.001453   0.015401  -0.070938   0.000063
     5  C    0.452123  -0.069365   0.014474  -0.001929   0.013991   0.000051
     6  C   -0.059843   0.453940  -0.070399   0.014129  -0.002191   0.000001
     7  C    0.014898  -0.069206   0.451782  -0.074110   0.013887   0.000000
     8  C   -0.002212   0.013868  -0.067967   0.456897  -0.052013   0.000001
     9  C    0.016884  -0.001911   0.014785  -0.067062   0.448838  -0.000056
    10  C    0.000001  -0.000000   0.000000  -0.000003  -0.003399  -0.083208
    11  C   -0.000006  -0.000000  -0.000000   0.000001  -0.000465   0.447883
    12  C   -0.000001   0.000000  -0.000000  -0.000000  -0.000025  -0.047547
    13  C   -0.000000  -0.000000   0.000000   0.000000  -0.000001   0.014430
    14  C   -0.000000  -0.000000   0.000000  -0.000000  -0.000000  -0.000251
    15  C   -0.000000   0.000000   0.000000  -0.000000   0.000308  -0.001683
    16  C   -0.000000  -0.000000  -0.000000  -0.000000   0.002209   0.012660
    17  O    0.000014  -0.000000   0.000000   0.000019   0.030032   0.000231
    18  H    0.003029  -0.000024  -0.000001   0.000010  -0.000318  -0.000385
    19  H    0.688239  -0.013127  -0.000235   0.000023  -0.000110   0.000006
    20  H   -0.013127   0.668102  -0.012361  -0.000258   0.000015  -0.000000
    21  H   -0.000235  -0.012361   0.673066  -0.012078  -0.000204  -0.000000
    22  H    0.000023  -0.000258  -0.012078   0.667804  -0.013199   0.000000
    23  H   -0.000110   0.000015  -0.000204  -0.013199   0.623601  -0.000031
    24  H    0.000006  -0.000000  -0.000000   0.000000  -0.000031   0.648551
    25  H   -0.000000   0.000000  -0.000000  -0.000000   0.000000  -0.012047
    26  H    0.000000   0.000000   0.000000  -0.000000   0.000000   0.000008
    27  H    0.000000  -0.000000   0.000000   0.000000  -0.000000  -0.000001
    28  H    0.000000   0.000000  -0.000000   0.000000  -0.000000   0.000005
    29  H    0.000000   0.000000  -0.000000  -0.000000   0.000002   0.000026
    30  H   -0.000000   0.000000  -0.000000   0.000001   0.001146  -0.000238
              25         26         27         28         29         30
     1  O   -0.000004   0.000000   0.000000  -0.000000   0.000001   0.000117
     2  S   -0.000181  -0.000000  -0.000000  -0.000000  -0.000153  -0.013860
     3  N   -0.000003  -0.000000  -0.000000   0.000000   0.000003   0.000808
     4  C   -0.000002  -0.000000   0.000000   0.000000  -0.000001  -0.000335
     5  C   -0.000000  -0.000000  -0.000000   0.000000   0.000000  -0.000013
     6  C    0.000000  -0.000000   0.000000  -0.000000  -0.000000   0.000001
     7  C   -0.000000   0.000000   0.000000   0.000000   0.000000  -0.000003
     8  C    0.000000  -0.000000  -0.000000   0.000000   0.000000   0.000144
     9  C    0.000000   0.000000   0.000000  -0.000000  -0.000001  -0.000340
    10  C    0.016377   0.000026   0.000019   0.000068   0.016496  -0.066354
    11  C   -0.066342  -0.000556   0.000764  -0.000200  -0.002050   0.013858
    12  C    0.459626   0.007500  -0.008603  -0.003591   0.014651  -0.001853
    13  C   -0.075814  -0.018829  -0.018835  -0.011450  -0.076856   0.013729
    14  C   -0.013485   0.392279   0.391933   0.389740  -0.013819  -0.000206
    15  C    0.014591  -0.008811   0.007344  -0.003541   0.460809  -0.054544
    16  C   -0.001970   0.000824  -0.000543  -0.000266  -0.066269   0.448520
    17  O    0.000000   0.000000   0.000000  -0.000000  -0.000007   0.015572
    18  H   -0.000005  -0.000000   0.000000  -0.000000  -0.000000  -0.000038
    19  H   -0.000000   0.000000   0.000000   0.000000   0.000000  -0.000000
    20  H    0.000000   0.000000  -0.000000   0.000000   0.000000   0.000000
    21  H   -0.000000   0.000000   0.000000  -0.000000  -0.000000  -0.000000
    22  H   -0.000000  -0.000000   0.000000   0.000000  -0.000000   0.000001
    23  H    0.000000   0.000000  -0.000000  -0.000000   0.000002   0.001146
    24  H   -0.012047   0.000008  -0.000001   0.000005   0.000026  -0.000238
    25  H    0.667316   0.000155   0.004447   0.000712  -0.000226   0.000023
    26  H    0.000155   0.619593  -0.022320  -0.017097   0.004538  -0.000007
    27  H    0.004447  -0.022320   0.620443  -0.017173   0.000164   0.000007
    28  H    0.000712  -0.017097  -0.017173   0.597034   0.000708   0.000005
    29  H   -0.000226   0.004538   0.000164   0.000708   0.666801  -0.011365
    30  H    0.000023  -0.000007   0.000007   0.000005  -0.011365   0.619945
 Mulliken charges:
               1
     1  O   -0.472638
     2  S    0.924713
     3  N   -0.306690
     4  C    0.139686
     5  C   -0.051719
     6  C   -0.005956
     7  C   -0.011824
     8  C   -0.004301
     9  C   -0.053764
    10  C   -0.074647
    11  C    0.037282
    12  C   -0.030992
    13  C   -0.075809
    14  C    0.030107
    15  C   -0.023979
    16  C    0.005221
    17  O   -0.461285
    18  H    0.166374
    19  H   -0.007638
    20  H    0.014900
    21  H    0.010581
    22  H    0.014471
    23  H    0.023536
    24  H    0.015615
    25  H    0.006830
    26  H    0.042697
    27  H    0.042355
    28  H    0.065046
    29  H    0.006548
    30  H    0.035279
 Sum of Mulliken charges =  -0.00000
 Mulliken charges with hydrogens summed into heavy atoms:
               1
     1  O   -0.472638
     2  S    0.924713
     3  N   -0.140316
     4  C    0.139686
     5  C   -0.059357
     6  C    0.008945
     7  C   -0.001243
     8  C    0.010170
     9  C   -0.030228
    10  C   -0.074647
    11  C    0.052897
    12  C   -0.024162
    13  C   -0.075809
    14  C    0.180205
    15  C   -0.017431
    16  C    0.040501
    17  O   -0.461285
 Electronic spatial extent (au):  <R**2>=           4869.3311
 Charge=             -0.0000 electrons
 Dipole moment (field-independent basis, Debye):
    X=              1.3809    Y=             -3.7068    Z=             -1.8759  Tot=              4.3779
 Quadrupole moment (field-independent basis, Debye-Ang):
   XX=            -91.9070   YY=           -115.6295   ZZ=            -99.0347
   XY=             -4.1679   XZ=              3.1735   YZ=             -5.2949
 Traceless Quadrupole moment (field-independent basis, Debye-Ang):
   XX=             10.2834   YY=            -13.4391   ZZ=              3.1557
   XY=             -4.1679   XZ=              3.1735   YZ=             -5.2949
 Octapole moment (field-independent basis, Debye-Ang**2):
  XXX=             32.8418  YYY=            -15.9938  ZZZ=             -8.3939  XYY=             -5.3034
  XXY=            -35.0310  XXZ=            -12.2968  XZZ=              0.2293  YZZ=             -1.8866
  YYZ=              2.3129  XYZ=              6.9352
 Hexadecapole moment (field-independent basis, Debye-Ang**3):
 XXXX=          -4303.4331 YYYY=          -1481.3363 ZZZZ=           -681.7790 XXXY=             -5.4831
 XXXZ=             11.1343 YYYX=            -37.5006 YYYZ=              5.2564 ZZZX=              6.4850
 ZZZY=            -30.4815 XXYY=           -900.9707 XXZZ=           -802.4296 YYZZ=           -344.8385
 XXYZ=             -8.9406 YYXZ=              9.9666 ZZXY=              0.2631
 N-N= 1.310238917701D+03 E-N=-5.209218502750D+03  KE= 1.097859666272D+03
   1 Symmetry operations used in ECPInt.
 ECPInt:  NShTT=   10296 NPrTT=   38220 LenC2=    9425 LenP2D=   24682.
 LDataN:  DoStor=T MaxTD1= 5 Len=  102
 Calling FoFJK, ICntrl=      2127 FMM=F ISym2X=0 I1Cent= 0 IOpClX= 0 NMat=1 NMatS=1 NMatT=0.
 ***** Axes restored to original set *****
 -------------------------------------------------------------------
 Center     Atomic                   Forces (Hartrees/Bohr)
 Number     Number              X              Y              Z
 -------------------------------------------------------------------
      1        8           0.023068701   -0.041755260   -0.028100658
      2       16          -0.025969875    0.021791636   -0.012227641
      3        7          -0.008648688    0.024846818   -0.018264887
      4        6           0.018008383   -0.014564028   -0.008032385
      5        6          -0.011744235    0.008861720    0.001650523
      6        6           0.002578929   -0.001609063   -0.001276507
      7        6           0.005387719   -0.004635169   -0.003497798
      8        6           0.004783206   -0.004462603    0.003293486
      9        6          -0.011790744    0.005700429    0.004064618
     10        6           0.008983911    0.011589860   -0.007714258
     11        6          -0.002543884    0.002067542    0.012431281
     12        6           0.003888596    0.002360315   -0.000291160
     13        6          -0.004188144   -0.001498347   -0.002969670
     14        6          -0.000105437   -0.005469788    0.000218641
     15        6          -0.000113721   -0.000661079    0.003457680
     16        6           0.003036662    0.002703484   -0.011276025
     17        8          -0.012711302    0.003286956    0.053218469
     18        1           0.007485191    0.005068700    0.015868082
     19        1          -0.000569916    0.001251961    0.012934213
     20        1           0.005992352   -0.004214313    0.007418456
     21        1           0.007741422   -0.006474492   -0.003332608
     22        1           0.000070721   -0.000748448   -0.010190900
     23        1          -0.002987246    0.000708293   -0.007622044
     24        1           0.001874748    0.003019529    0.010072443
     25        1          -0.004505407   -0.002772506    0.010503102
     26        1          -0.000710118   -0.003348953   -0.005101826
     27        1          -0.001826204   -0.003026539    0.005170239
     28        1          -0.006852622    0.003388435   -0.000767413
     29        1          -0.002140336   -0.003942160   -0.010831141
     30        1           0.004507340    0.002537072   -0.008804308
 -------------------------------------------------------------------
 Cartesian Forces:  Max     0.053218469 RMS     0.011417126

 GradGradGradGradGradGradGradGradGradGradGradGradGradGradGradGradGradGrad
 Berny optimization.
 FormGI is forming the generalized inverse of G from B-inverse, IUseBI=4.
 Internal  Forces:  Max     0.054630933 RMS     0.010096633
 Search for a local minimum.
 Step number   1 out of a maximum of  162
 All quantities printed in internal units (Hartrees-Bohrs-Radians)
 Mixed Optimization -- RFO/linear search
 Second derivative matrix not updated -- first step.
 ITU=  0
     Eigenvalues ---    0.00432   0.00927   0.01159   0.01610   0.01745
     Eigenvalues ---    0.01771   0.02010   0.02143   0.02247   0.02269
     Eigenvalues ---    0.02277   0.02300   0.02309   0.02340   0.02346
     Eigenvalues ---    0.02348   0.02368   0.02384   0.02387   0.02394
     Eigenvalues ---    0.02394   0.02422   0.02509   0.07314   0.07341
     Eigenvalues ---    0.10232   0.11394   0.11995   0.13647   0.15989
     Eigenvalues ---    0.15999   0.15999   0.15999   0.16000   0.16000
     Eigenvalues ---    0.16000   0.16000   0.16000   0.16000   0.16000
     Eigenvalues ---    0.16000   0.17337   0.21999   0.22000   0.22000
     Eigenvalues ---    0.22845   0.22976   0.23458   0.23996   0.24983
     Eigenvalues ---    0.24990   0.25000   0.25000   0.26488   0.33691
     Eigenvalues ---    0.34671   0.34770   0.34771   0.34777   0.36278
     Eigenvalues ---    0.36282   0.36287   0.36295   0.36300   0.36441
     Eigenvalues ---    0.36442   0.36512   0.36716   0.42646   0.43514
     Eigenvalues ---    0.44022   0.44278   0.46629   0.47118   0.47485
     Eigenvalues ---    0.47818   0.48068   0.49073   0.49246   0.49273
     Eigenvalues ---    0.50044   0.50099   0.76493   0.76689
 RFO step:  Lambda=-4.00126817D-02 EMin= 4.32058914D-03
 Linear search not attempted -- first point.
 Maximum step size (   0.300) exceeded in Quadratic search.
    -- Step size scaled by   0.958
 Iteration  1 RMS(Cart)=  0.19242087 RMS(Int)=  0.00802489
 Iteration  2 RMS(Cart)=  0.03888508 RMS(Int)=  0.00092461
 Iteration  3 RMS(Cart)=  0.00061258 RMS(Int)=  0.00089861
 Iteration  4 RMS(Cart)=  0.00000128 RMS(Int)=  0.00089861
 Iteration  5 RMS(Cart)=  0.00000001 RMS(Int)=  0.00089861
 Variable       Old X    -DE/DX   Delta X   Delta X   Delta X     New X
                                 (Linear)    (Quad)   (Total)
    R1        2.83452  -0.05463   0.00000  -0.06488  -0.06488   2.76963
    R2        3.23213  -0.00029   0.00000  -0.00071  -0.00071   3.23142
    R3        3.39268  -0.00355   0.00000  -0.01116  -0.01116   3.38153
    R4        2.83564  -0.05357   0.00000  -0.06378  -0.06378   2.77186
    R5        2.63428   0.02603   0.00000   0.04928   0.04928   2.68356
    R6        1.89192   0.01715   0.00000   0.03193   0.03193   1.92385
    R7        2.64413   0.00547   0.00000   0.00986   0.00985   2.65398
    R8        2.64369   0.00747   0.00000   0.01407   0.01408   2.65777
    R9        2.59866   0.01559   0.00000   0.02734   0.02733   2.62599
   R10        2.03288   0.01296   0.00000   0.03066   0.03066   2.06354
   R11        2.60918   0.01140   0.00000   0.02092   0.02091   2.63009
   R12        2.03635   0.01038   0.00000   0.02468   0.02468   2.06103
   R13        2.60867   0.01219   0.00000   0.02265   0.02266   2.63133
   R14        2.03614   0.01062   0.00000   0.02526   0.02526   2.06140
   R15        2.59675   0.01950   0.00000   0.03480   0.03481   2.63156
   R16        2.03643   0.01014   0.00000   0.02413   0.02413   2.06056
   R17        2.02976   0.00701   0.00000   0.01650   0.01650   2.04626
   R18        2.59628   0.01953   0.00000   0.03500   0.03500   2.63128
   R19        2.59655   0.01698   0.00000   0.03057   0.03057   2.62713
   R20        2.60831   0.00934   0.00000   0.01682   0.01682   2.62512
   R21        2.03623   0.01054   0.00000   0.02506   0.02506   2.06129
   R22        2.62201   0.01623   0.00000   0.02948   0.02947   2.65148
   R23        2.03398   0.01167   0.00000   0.02765   0.02765   2.06163
   R24        2.81155   0.01270   0.00000   0.03230   0.03230   2.84384
   R25        2.62183   0.01351   0.00000   0.02450   0.02449   2.64632
   R26        2.06051   0.00599   0.00000   0.01480   0.01480   2.07531
   R27        2.06049   0.00610   0.00000   0.01508   0.01508   2.07556
   R28        2.06038   0.00766   0.00000   0.01893   0.01893   2.07931
   R29        2.60794   0.01294   0.00000   0.02342   0.02343   2.63137
   R30        2.03395   0.01164   0.00000   0.02758   0.02758   2.06153
   R31        2.03649   0.01018   0.00000   0.02423   0.02423   2.06072
    A1        1.85078  -0.01568   0.00000  -0.07756  -0.08082   1.76995
    A2        1.88798   0.00215   0.00000   0.02674   0.02946   1.91745
    A3        2.12483  -0.00154   0.00000  -0.03739  -0.04100   2.08382
    A4        1.67760   0.02771   0.00000   0.11440   0.11323   1.79083
    A5        2.00826  -0.00329   0.00000  -0.01014  -0.01524   1.99301
    A6        1.85881  -0.00123   0.00000   0.02779   0.02690   1.88570
    A7        2.13727   0.04131   0.00000   0.15445   0.15266   2.28993
    A8        1.83106  -0.01229   0.00000  -0.02343  -0.02515   1.80591
    A9        2.04388  -0.01625   0.00000  -0.05007  -0.05321   1.99067
   A10        2.07870  -0.02184   0.00000  -0.07154  -0.07159   2.00711
   A11        2.15079   0.01960   0.00000   0.06544   0.06527   2.21606
   A12        2.05338   0.00220   0.00000   0.00548   0.00539   2.05877
   A13        2.11193   0.00201   0.00000   0.00559   0.00557   2.11750
   A14        2.06996   0.00010   0.00000   0.00249   0.00250   2.07246
   A15        2.10123  -0.00210   0.00000  -0.00803  -0.00802   2.09321
   A16        2.09801   0.00056   0.00000   0.00216   0.00214   2.10015
   A17        2.09271  -0.00132   0.00000  -0.00604  -0.00604   2.08667
   A18        2.09246   0.00075   0.00000   0.00388   0.00388   2.09635
   A19        2.09202  -0.00497   0.00000  -0.01626  -0.01626   2.07576
   A20        2.09569   0.00215   0.00000   0.00654   0.00653   2.10222
   A21        2.09546   0.00282   0.00000   0.00975   0.00974   2.10521
   A22        2.09643   0.00445   0.00000   0.01851   0.01853   2.11496
   A23        2.09379  -0.00096   0.00000  -0.00321  -0.00322   2.09057
   A24        2.09294  -0.00349   0.00000  -0.01530  -0.01531   2.07763
   A25        2.11457  -0.00424   0.00000  -0.01539  -0.01538   2.09919
   A26        2.07123   0.00631   0.00000   0.02788   0.02786   2.09909
   A27        2.09677  -0.00205   0.00000  -0.01221  -0.01222   2.08455
   A28        2.09338  -0.00249   0.00000  -0.00926  -0.00927   2.08411
   A29        2.09042  -0.00078   0.00000  -0.00363  -0.00364   2.08678
   A30        2.09938   0.00327   0.00000   0.01289   0.01289   2.11227
   A31        2.09250  -0.00356   0.00000  -0.01205  -0.01205   2.08046
   A32        2.08191   0.00356   0.00000   0.01456   0.01456   2.09647
   A33        2.10875   0.00000   0.00000  -0.00250  -0.00250   2.10626
   A34        2.10514   0.00237   0.00000   0.00767   0.00766   2.11280
   A35        2.09575  -0.00257   0.00000  -0.01044  -0.01044   2.08531
   A36        2.08229   0.00019   0.00000   0.00278   0.00278   2.08508
   A37        2.10542   0.00004   0.00000   0.00107   0.00108   2.10650
   A38        2.07146  -0.00046   0.00000  -0.00327  -0.00328   2.06818
   A39        2.10576   0.00042   0.00000   0.00233   0.00233   2.10809
   A40        1.93988   0.00105   0.00000   0.00584   0.00582   1.94570
   A41        1.93960   0.00114   0.00000   0.00625   0.00623   1.94582
   A42        1.93296   0.00006   0.00000  -0.00130  -0.00130   1.93166
   A43        1.87887  -0.00011   0.00000   0.00245   0.00240   1.88127
   A44        1.88506  -0.00109   0.00000  -0.00667  -0.00666   1.87840
   A45        1.88520  -0.00117   0.00000  -0.00718  -0.00718   1.87803
   A46        2.10368   0.00229   0.00000   0.00775   0.00774   2.11142
   A47        2.08322   0.00012   0.00000   0.00221   0.00221   2.08544
   A48        2.09628  -0.00242   0.00000  -0.00995  -0.00995   2.08633
   A49        2.09410  -0.00391   0.00000  -0.01296  -0.01296   2.08114
   A50        2.07835   0.00272   0.00000   0.01017   0.01016   2.08851
   A51        2.11070   0.00119   0.00000   0.00283   0.00283   2.11353
    D1       -2.63518   0.00551   0.00000  -0.01473  -0.01877  -2.65394
    D2       -0.24874   0.00872   0.00000   0.04152   0.03954  -0.20921
    D3        1.71192  -0.00292   0.00000  -0.06567  -0.06532   1.64660
    D4       -2.18483   0.00028   0.00000  -0.00942  -0.00702  -2.19185
    D5       -0.23306  -0.01562   0.00000  -0.15673  -0.15612  -0.38918
    D6        2.15338  -0.01242   0.00000  -0.10048  -0.09782   2.05556
    D7       -0.83678   0.00199   0.00000   0.01862   0.01763  -0.81914
    D8        2.30475   0.00164   0.00000   0.01277   0.01182   2.31657
    D9        1.06789  -0.00374   0.00000  -0.01481  -0.01538   1.05252
   D10       -2.07376  -0.00409   0.00000  -0.02066  -0.02119  -2.09496
   D11        3.13494   0.00330   0.00000   0.02727   0.02877  -3.11947
   D12       -0.00672   0.00296   0.00000   0.02142   0.02295   0.01624
   D13        2.98894   0.00219   0.00000   0.00198   0.00117   2.99011
   D14       -0.18014   0.00048   0.00000  -0.02566  -0.02647  -0.20661
   D15        0.68644  -0.00722   0.00000  -0.08616  -0.08535   0.60109
   D16       -2.48264  -0.00892   0.00000  -0.11380  -0.11299  -2.59563
   D17        3.10890  -0.00031   0.00000  -0.00911  -0.00806   3.10084
   D18       -0.02111  -0.00071   0.00000  -0.01464  -0.01377  -0.03488
   D19       -0.00673   0.00099   0.00000   0.01595   0.01584   0.00911
   D20       -3.13674   0.00059   0.00000   0.01042   0.01013  -3.12662
   D21       -3.10734   0.00129   0.00000   0.01703   0.01804  -3.08930
   D22        0.07182   0.00076   0.00000   0.00850   0.00919   0.08101
   D23        0.00714  -0.00075   0.00000  -0.01139  -0.01141  -0.00427
   D24       -3.09689  -0.00128   0.00000  -0.01992  -0.02026  -3.11715
   D25        0.00122  -0.00060   0.00000  -0.00974  -0.00948  -0.00826
   D26       -3.13886  -0.00042   0.00000  -0.00627  -0.00623   3.13809
   D27        3.13102  -0.00017   0.00000  -0.00403  -0.00363   3.12739
   D28       -0.00906   0.00001   0.00000  -0.00057  -0.00039  -0.00945
   D29        0.00414  -0.00013   0.00000  -0.00173  -0.00179   0.00235
   D30        3.14054   0.00020   0.00000   0.00335   0.00324  -3.13941
   D31       -3.13896  -0.00032   0.00000  -0.00520  -0.00507   3.13916
   D32       -0.00257   0.00002   0.00000  -0.00012  -0.00004  -0.00260
   D33       -0.00375   0.00040   0.00000   0.00633   0.00618   0.00243
   D34        3.12901   0.00052   0.00000   0.00744   0.00746   3.13647
   D35       -3.14015   0.00007   0.00000   0.00125   0.00115  -3.13899
   D36       -0.00738   0.00018   0.00000   0.00236   0.00243  -0.00495
   D37       -0.00201   0.00007   0.00000   0.00047   0.00061  -0.00140
   D38        3.10147   0.00079   0.00000   0.00998   0.01024   3.11171
   D39       -3.13478  -0.00006   0.00000  -0.00070  -0.00072  -3.13550
   D40       -0.03130   0.00066   0.00000   0.00881   0.00891  -0.02238
   D41       -3.13630   0.00003   0.00000   0.00006   0.00007  -3.13623
   D42        0.01147  -0.00023   0.00000  -0.00399  -0.00400   0.00747
   D43        0.00536   0.00038   0.00000   0.00594   0.00597   0.01133
   D44       -3.13006   0.00012   0.00000   0.00190   0.00191  -3.12815
   D45        3.13654  -0.00011   0.00000  -0.00133  -0.00131   3.13523
   D46       -0.01311   0.00028   0.00000   0.00467   0.00469  -0.00841
   D47       -0.00512  -0.00046   0.00000  -0.00720  -0.00722  -0.01234
   D48        3.12842  -0.00007   0.00000  -0.00120  -0.00122   3.12720
   D49        0.00457  -0.00028   0.00000  -0.00453  -0.00451   0.00006
   D50       -3.13378  -0.00037   0.00000  -0.00577  -0.00575  -3.13954
   D51        3.13989  -0.00001   0.00000  -0.00036  -0.00036   3.13954
   D52        0.00154  -0.00010   0.00000  -0.00160  -0.00160  -0.00006
   D53       -3.12074   0.00001   0.00000  -0.00000  -0.00001  -3.12075
   D54       -0.01444   0.00028   0.00000   0.00441   0.00440  -0.01004
   D55        0.01764   0.00009   0.00000   0.00120   0.00121   0.01885
   D56        3.12394   0.00037   0.00000   0.00561   0.00562   3.12956
   D57       -2.64654  -0.00053   0.00000  -0.00361  -0.00363  -2.65017
   D58       -0.55440   0.00079   0.00000   0.00756   0.00759  -0.54681
   D59        1.54112   0.00010   0.00000   0.00179   0.00179   1.54292
   D60        0.53104  -0.00080   0.00000  -0.00799  -0.00802   0.52302
   D61        2.62318   0.00052   0.00000   0.00318   0.00320   2.62638
   D62       -1.56448  -0.00016   0.00000  -0.00259  -0.00260  -1.56708
   D63        0.01467  -0.00037   0.00000  -0.00566  -0.00567   0.00901
   D64       -3.12327  -0.00042   0.00000  -0.00634  -0.00634  -3.12962
   D65        3.12097  -0.00010   0.00000  -0.00128  -0.00128   3.11968
   D66       -0.01698  -0.00015   0.00000  -0.00195  -0.00196  -0.01894
   D67       -0.00505   0.00045   0.00000   0.00705   0.00703   0.00198
   D68       -3.13844   0.00004   0.00000   0.00090   0.00091  -3.13753
   D69        3.13286   0.00050   0.00000   0.00775   0.00773   3.14060
   D70       -0.00052   0.00010   0.00000   0.00161   0.00161   0.00109
         Item               Value     Threshold  Converged?
 Maximum Force            0.054631     0.000450     NO 
 RMS     Force            0.010097     0.000300     NO 
 Maximum Displacement     0.610608     0.001800     NO 
 RMS     Displacement     0.224080     0.001200     NO 
 Predicted change in Energy=-2.300587D-02
 GradGradGradGradGradGradGradGradGradGradGradGradGradGradGradGradGradGrad

                          Input orientation:                          
 ---------------------------------------------------------------------
 Center     Atomic      Atomic             Coordinates (Angstroms)
 Number     Number       Type             X           Y           Z
 ---------------------------------------------------------------------
      1          8           0       -0.330853    2.659955    1.094050
      2         16           0       -0.064347    1.627945    0.088071
      3          7           0        1.105284    0.670319    0.887446
      4          6           0        2.154339   -0.141721    0.380786
      5          6           0        3.042121   -0.637258    1.349651
      6          6           0        4.088182   -1.484591    1.004954
      7          6           0        4.272741   -1.870601   -0.319432
      8          6           0        3.395481   -1.391991   -1.289087
      9          6           0        2.347569   -0.537977   -0.954764
     10          6           0       -1.463219    0.518313   -0.029914
     11          6           0       -2.034508    0.012021    1.134608
     12          6           0       -3.116247   -0.854122    1.037735
     13          6           0       -3.637996   -1.223662   -0.211232
     14          6           0       -4.826873   -2.141433   -0.306004
     15          6           0       -3.051129   -0.689501   -1.365051
     16          6           0       -1.967225    0.180553   -1.280751
     17          8           0        0.313843    2.028362   -1.271400
     18          1           0        1.371222    1.240035    1.688158
     19          1           0        2.895355   -0.349171    2.392666
     20          1           0        4.762577   -1.849824    1.780400
     21          1           0        5.092034   -2.537298   -0.591872
     22          1           0        3.530123   -1.681720   -2.331633
     23          1           0        1.698983   -0.160481   -1.735383
     24          1           0       -1.635001    0.296740    2.108852
     25          1           0       -3.568584   -1.251986    1.947300
     26          1           0       -4.816535   -2.717694   -1.240816
     27          1           0       -4.851362   -2.855546    0.528140
     28          1           0       -5.764635   -1.566449   -0.279445
     29          1           0       -3.451110   -0.957086   -2.344085
     30          1           0       -1.511092    0.600608   -2.177779
 ---------------------------------------------------------------------
                    Distance matrix (angstroms):
                    1          2          3          4          5
     1  O    0.000000
     2  S    1.465627   0.000000
     3  N    2.462484   1.709996   0.000000
     4  C    3.812389   2.853063   1.420081   0.000000
     5  C    4.723759   4.046341   2.382169   1.404426   0.000000
     6  C    6.059131   5.269920   3.681728   2.435700   1.389616
     7  C    6.611880   5.587148   4.236227   2.822581   2.412757
     8  C    5.998598   4.794475   3.772985   2.427362   2.767205
     9  C    4.647403   3.405299   2.529227   1.406432   2.408855
    10  C    2.670614   1.789426   2.731641   3.700141   4.851456
    11  C    3.148910   2.754630   3.217567   4.258910   5.122496
    12  C    4.484454   4.046803   4.490860   5.358933   6.170074
    13  C    5.265305   4.581726   5.224267   5.922181   6.885070
    14  C    6.725153   6.086474   6.672388   7.294371   8.180758
    15  C    4.966481   4.050060   4.919209   5.517690   6.670834
    16  C    3.803266   2.754916   3.792263   4.455542   5.716763
    17  O    2.531778   1.466807   2.670445   3.290351   4.628060
    18  H    2.294819   2.184402   1.018057   2.057120   2.535887
    19  H    4.598876   4.240281   2.551353   2.154020   1.091978
    20  H    6.837559   6.185309   4.530373   3.417520   2.148448
    21  H    7.698148   6.663321   5.326478   3.913427   3.403205
    22  H    6.744819   5.452437   4.666305   3.409047   3.857577
    23  H    4.481159   3.103673   2.814594   2.164688   3.398348
    24  H    2.883645   2.884895   3.023335   4.187786   4.829514
    25  H    5.149196   4.902083   5.163680   6.036431   6.666071
    26  H    7.381874   6.575243   7.146753   7.606465   8.532128
    27  H    7.153740   6.573497   6.931266   7.514412   8.240312
    28  H    7.019613   6.544655   7.318508   8.073159   9.004238
    29  H    5.885555   4.905908   5.818244   6.285762   7.477167
    30  H    4.042121   2.877945   4.030619   4.531301   5.891249
                    6          7          8          9         10
     6  C    0.000000
     7  C    1.391784   0.000000
     8  C    2.398131   1.392439   0.000000
     9  C    2.786809   2.426072   1.392563   0.000000
    10  C    5.991713   6.220287   5.370450   4.061181   0.000000
    11  C    6.304283   6.740912   6.109855   4.885751   1.392413
    12  C    7.232037   7.581047   6.935849   5.824369   2.399157
    13  C    7.825664   7.937884   7.117577   6.070419   2.792313
    14  C    9.034836   9.103654   8.314759   7.380012   4.297051
    15  C    7.564314   7.491822   6.485217   5.416385   2.400596
    16  C    6.683196   6.638415   5.588522   4.386342   1.390215
    17  O    5.636334   5.637467   4.603870   3.289741   2.641871
    18  H    3.907970   4.703753   4.459728   3.331609   3.392154
    19  H    2.153546   3.401091   3.859133   3.397205   5.061481
    20  H    1.090652   2.156309   3.391212   3.877413   6.902597
    21  H    2.160038   1.090848   2.162437   3.414830   7.254233
    22  H    3.388673   2.153163   1.090401   2.145310   5.922121
    23  H    3.869235   3.399067   2.143338   1.082836   3.656352
    24  H    6.094797   6.745024   6.301075   5.093462   2.157064
    25  H    7.718043   8.185789   7.680625   6.628171   3.387609
    26  H    9.265960   9.175046   8.318475   7.493822   4.814848
    27  H    9.056617   9.216168   8.570573   7.706797   4.813923
    28  H    9.936518  10.042063   9.217241   8.204978   4.786511
    29  H    8.266514   8.036891   6.941035   5.977503   3.388791
    30  H    6.769764   6.558434   5.369793   4.204926   2.149974
                   11         12         13         14         15
    11  C    0.000000
    12  C    1.389154   0.000000
    13  C    2.430921   1.403104   0.000000
    14  C    3.809204   2.527657   1.504897   0.000000
    15  C    2.788180   2.409299   1.400371   2.526452   0.000000
    16  C    2.422166   2.786787   2.430466   3.810425   1.392461
    17  O    3.920364   5.040470   5.226533   6.689256   4.326498
    18  H    3.662435   4.994589   5.896588   7.336716   5.709850
    19  H    5.100658   6.183055   7.087291   8.374236   7.042509
    20  H    7.076996   7.976142   8.656114   9.818130   8.502600
    21  H    7.763206   8.536075   8.836513   9.930919   8.385897
    22  H    6.771167   7.497453   7.489182   8.611266   6.725449
    23  H    4.712278   5.599800   5.651260   6.968077   4.793805
    24  H    1.090790   2.160062   3.421463   4.686606   3.878930
    25  H    2.147457   1.090969   2.159834   2.729796   3.399385
    26  H    4.564391   3.399364   2.163592   1.098207   2.691777
    27  H    4.065146   2.697407   2.163786   1.098341   3.393635
    28  H    4.290101   3.042423   2.155168   1.100322   3.051343
    29  H    3.879077   3.399918   2.157557   2.729318   1.090914
    30  H    3.404748   3.877150   3.423301   4.692199   2.167169
                   16         17         18         19         20
    16  C    0.000000
    17  O    2.935602   0.000000
    18  H    4.591531   3.240138   0.000000
    19  H    6.117131   5.073682   2.311902   0.000000
    20  H    7.667027   6.644174   4.588793   2.472518   0.000000
    21  H    7.595684   6.643653   5.771588   4.303576   2.491754
    22  H    5.898580   5.023272   5.418139   4.949507   4.296047
    23  H    3.709997   2.631526   3.713423   4.302058   4.959861
    24  H    3.407827   4.268795   3.178705   4.584962   6.756080
    25  H    3.877735   6.016141   5.538863   6.541860   8.354251
    26  H    4.064480   6.989046   7.907645   8.847901  10.081683
    27  H    4.561603   7.332819   7.539229   8.352843   9.747176
    28  H    4.298250   7.131237   7.916330   9.144254  10.730585
[...]
     3  N    0.000975   0.005942  -0.019569  -0.061492   0.000048  -0.001191
     4  C   -0.112014   0.025706   0.363599   0.045021   0.001025   0.000250
     5  C    0.035548  -0.097998   0.057839  -0.000200  -0.001913   0.000793
     6  C    0.439112   0.022540  -0.090388  -0.001761  -0.000680  -0.000051
     7  C    4.963713   0.413201   0.048680  -0.000158  -0.000059   0.000020
     8  C    0.413201   4.970995   0.385896  -0.000068   0.000171  -0.000008
     9  C    0.048680   0.385896   5.133674   0.003471   0.000327   0.000048
    10  C   -0.000158  -0.000068   0.003471   5.293979   0.368127   0.015616
    11  C   -0.000059   0.000171   0.000327   0.368127   5.106103   0.404464
    12  C    0.000020  -0.000008   0.000048   0.015616   0.404464   5.062938
    13  C    0.000043  -0.000039   0.000219  -0.090507   0.016210   0.432300
    14  C   -0.000001  -0.000001   0.000006  -0.004307   0.013147  -0.073388
    15  C   -0.000195   0.000435  -0.002492   0.049764  -0.046371  -0.014107
    16  C   -0.000702  -0.001275   0.000884   0.316327  -0.069616  -0.050366
    17  O    0.000127  -0.001106  -0.003468  -0.078726   0.006938  -0.000265
    18  H    0.000137  -0.000720   0.004526  -0.000737   0.000147  -0.000166
    19  H    0.010389  -0.003892   0.012036   0.000784   0.000381   0.000310
    20  H   -0.057143   0.010719  -0.003858   0.000005  -0.000001  -0.000003
    21  H    0.443933  -0.056275   0.011297   0.000004  -0.000000   0.000000
    22  H   -0.058354   0.446328  -0.057686  -0.000016   0.000001  -0.000000
    23  H    0.010216  -0.048930   0.434647   0.001828  -0.000173   0.000007
    24  H   -0.000003   0.000007  -0.000018  -0.045627   0.432619  -0.048536
    25  H   -0.000000   0.000000  -0.000002   0.011285  -0.048874   0.443205
    26  H   -0.000000   0.000000   0.000000   0.000055  -0.000639   0.006952
    27  H    0.000000  -0.000000   0.000000   0.000065   0.001945  -0.006513
    28  H    0.000000   0.000000  -0.000000   0.000161  -0.000662  -0.004581
    29  H    0.000008   0.000057  -0.000101   0.010711  -0.003657   0.012778
    30  H    0.000105   0.000348   0.000021  -0.046316   0.008172  -0.002423
              13         14         15         16         17         18
     1  O    0.000167   0.000001  -0.000587   0.008737  -0.043932   0.004370
     2  S   -0.000535   0.000005   0.004868  -0.016549   0.565039  -0.016607
     3  N    0.000227  -0.000004   0.000050   0.006359  -0.050071   0.365624
     4  C   -0.000718   0.000007   0.001886  -0.002568  -0.007686  -0.051465
     5  C   -0.000459   0.000009  -0.000571  -0.014213   0.001074   0.008835
     6  C    0.000056  -0.000016   0.002006   0.001195   0.000101   0.001086
     7  C    0.000043  -0.000001  -0.000195  -0.000702   0.000127   0.000137
     8  C   -0.000039  -0.000001   0.000435  -0.001275  -0.001106  -0.000720
     9  C    0.000219   0.000006  -0.002492   0.000884  -0.003468   0.004526
    10  C   -0.090507  -0.004307   0.049764   0.316327  -0.078726  -0.000737
    11  C    0.016210   0.013147  -0.046371  -0.069616   0.006938   0.000147
    12  C    0.432300  -0.073388  -0.014107  -0.050366  -0.000265  -0.000166
    13  C    4.972652   0.297556   0.412604   0.032994  -0.000113   0.000064
    14  C    0.297556   4.958423  -0.073670   0.013805  -0.000000   0.000000
    15  C    0.412604  -0.073670   5.100163   0.357442   0.002965  -0.000043
    16  C    0.032994   0.013805   0.357442   5.141971   0.018589   0.000706
    17  O   -0.000113  -0.000000   0.002965   0.018589   8.031252   0.002676
    18  H    0.000064   0.000000  -0.000043   0.000706   0.002676   0.429381
    19  H   -0.000009  -0.000000  -0.000259  -0.000268  -0.000017   0.003563
    20  H   -0.000005   0.000000   0.000022   0.000029  -0.000000  -0.000040
    21  H   -0.000001   0.000000  -0.000002  -0.000018   0.000001  -0.000002
    22  H   -0.000000  -0.000000   0.000008  -0.000004  -0.000038   0.000013
    23  H    0.000015   0.000000  -0.000159  -0.000442   0.008967  -0.000050
    24  H    0.008424  -0.000057  -0.002424   0.008278   0.000543   0.000364
    25  H   -0.062066  -0.006794   0.012869  -0.003857   0.000004  -0.000009
    26  H   -0.053286   0.427615  -0.006656   0.001935   0.000000  -0.000000
    27  H   -0.054892   0.427647   0.007941  -0.000710   0.000000   0.000000
    28  H   -0.017372   0.390164  -0.004877  -0.000731  -0.000000  -0.000000
    29  H   -0.063179  -0.006644   0.444507  -0.048545  -0.000011   0.000000
    30  H    0.008913  -0.000031  -0.049456   0.436221   0.008188  -0.000098
              19         20         21         22         23         24
     1  O   -0.000175  -0.000000   0.000000  -0.000000  -0.000133   0.013555
     2  S   -0.000120  -0.000007   0.000003  -0.000003  -0.002921  -0.004414
     3  N    0.002903  -0.000360   0.000008  -0.000119  -0.001405   0.000275
     4  C   -0.080507   0.015212  -0.003964   0.013946  -0.044799  -0.000183
     5  C    0.439952  -0.053928   0.012197  -0.003503   0.011287  -0.000132
     6  C   -0.031463   0.438884  -0.056086   0.010553  -0.004443   0.000006
     7  C    0.010389  -0.057143   0.443933  -0.058354   0.010216  -0.000003
     8  C   -0.003892   0.010719  -0.056275   0.446328  -0.048930   0.000007
     9  C    0.012036  -0.003858   0.011297  -0.057686   0.434647  -0.000018
    10  C    0.000784   0.000005   0.000004  -0.000016   0.001828  -0.045627
    11  C    0.000381  -0.000001  -0.000000   0.000001  -0.000173   0.432619
    12  C    0.000310  -0.000003   0.000000  -0.000000   0.000007  -0.048536
    13  C   -0.000009  -0.000005  -0.000001  -0.000000   0.000015   0.008424
    14  C   -0.000000   0.000000   0.000000  -0.000000   0.000000  -0.000057
    15  C   -0.000259   0.000022  -0.000002   0.000008  -0.000159  -0.002424
    16  C   -0.000268   0.000029  -0.000018  -0.000004  -0.000442   0.008278
    17  O   -0.000017  -0.000000   0.000001  -0.000038   0.008967   0.000543
    18  H    0.003563  -0.000040  -0.000002   0.000013  -0.000050   0.000364
    19  H    0.538595  -0.007507  -0.000098   0.000028   0.000012  -0.000066
    20  H   -0.007507   0.541625  -0.006649  -0.000125   0.000015   0.000000
    21  H   -0.000098  -0.006649   0.538789  -0.006847  -0.000017  -0.000000
    22  H    0.000028  -0.000125  -0.006847   0.534757  -0.006494   0.000000
    23  H    0.000012   0.000015  -0.000017  -0.006494   0.476159  -0.000005
    24  H   -0.000066   0.000000  -0.000000   0.000000  -0.000005   0.477698
    25  H   -0.000003   0.000000   0.000000   0.000000  -0.000000  -0.005563
    26  H   -0.000000   0.000000  -0.000000   0.000000  -0.000000   0.000003
    27  H    0.000000  -0.000000   0.000000  -0.000000  -0.000000  -0.000019
    28  H    0.000000  -0.000000  -0.000000   0.000000   0.000000   0.000007
    29  H   -0.000002  -0.000000  -0.000000   0.000001  -0.000007   0.000031
    30  H   -0.000053   0.000004  -0.000005  -0.000017  -0.000091  -0.000066
              25         26         27         28         29         30
     1  O   -0.000028   0.000000   0.000000  -0.000000   0.000003   0.000385
     2  S   -0.000114   0.000001   0.000001  -0.000001  -0.000100  -0.004119
     3  N    0.000017  -0.000000  -0.000000   0.000000   0.000031   0.000355
     4  C   -0.000007   0.000003  -0.000001  -0.000000   0.000037   0.000125
     5  C   -0.000002  -0.000002   0.000001   0.000000  -0.000081  -0.001664
     6  C    0.000003   0.000001  -0.000001   0.000000   0.000072   0.000167
     7  C   -0.000000  -0.000000   0.000000   0.000000   0.000008   0.000105
     8  C    0.000000   0.000000  -0.000000   0.000000   0.000057   0.000348
     9  C   -0.000002   0.000000   0.000000  -0.000000  -0.000101   0.000021
    10  C    0.011285   0.000055   0.000065   0.000161   0.010711  -0.046316
    11  C   -0.048874  -0.000639   0.001945  -0.000662  -0.003657   0.008172
    12  C    0.443205   0.006952  -0.006513  -0.004581   0.012778  -0.002423
    13  C   -0.062066  -0.053286  -0.054892  -0.017372  -0.063179   0.008913
    14  C   -0.006794   0.427615   0.427647   0.390164  -0.006644  -0.000031
    15  C    0.012869  -0.006656   0.007941  -0.004877   0.444507  -0.049456
    16  C   -0.003857   0.001935  -0.000710  -0.000731  -0.048545   0.436221
    17  O    0.000004   0.000000   0.000000  -0.000000  -0.000011   0.008188
    18  H   -0.000009  -0.000000   0.000000  -0.000000   0.000000  -0.000098
    19  H   -0.000003  -0.000000   0.000000   0.000000  -0.000002  -0.000053
    20  H    0.000000   0.000000  -0.000000  -0.000000  -0.000000   0.000004
    21  H    0.000000  -0.000000   0.000000  -0.000000  -0.000000  -0.000005
    22  H    0.000000   0.000000  -0.000000   0.000000   0.000001  -0.000017
    23  H   -0.000000  -0.000000  -0.000000   0.000000  -0.000007  -0.000091
    24  H   -0.005563   0.000003  -0.000019   0.000007   0.000031  -0.000066
    25  H    0.533416   0.000057   0.001098   0.000224  -0.000049   0.000026
    26  H    0.000057   0.540735  -0.023657  -0.024250   0.000877  -0.000022
    27  H    0.001098  -0.023657   0.542011  -0.023395   0.000074   0.000002
    28  H    0.000224  -0.024250  -0.023395   0.544766   0.000256   0.000008
    29  H   -0.000049   0.000877   0.000074   0.000256   0.533622  -0.005595
    30  H    0.000026  -0.000022   0.000002   0.000008  -0.005595   0.481723
 Mulliken charges:
               1
     1  O   -0.474558
     2  S    0.856451
     3  N   -0.316478
     4  C    0.199992
     5  C   -0.217409
     6  C   -0.096907
     7  C   -0.137599
     8  C   -0.072208
     9  C   -0.270678
    10  C    0.001016
    11  C   -0.174789
    12  C   -0.186584
    13  C    0.160740
    14  C   -0.363469
    15  C   -0.195662
    16  C   -0.135609
    17  O   -0.461031
    18  H    0.248444
    19  H    0.115488
    20  H    0.123110
    21  H    0.123731
    22  H    0.127572
    23  H    0.166914
    24  H    0.165300
    25  H    0.125164
    26  H    0.130278
    27  H    0.128402
    28  H    0.140284
    29  H    0.124905
    30  H    0.165192
 Sum of Mulliken charges =   0.00000
 Mulliken charges with hydrogens summed into heavy atoms:
               1
     1  O   -0.474558
     2  S    0.856451
     3  N   -0.068034
     4  C    0.199992
     5  C   -0.101921
     6  C    0.026204
     7  C   -0.013868
     8  C    0.055364
     9  C   -0.103764
    10  C    0.001016
    11  C   -0.009490
    12  C   -0.061420
    13  C    0.160740
    14  C    0.035494
    15  C   -0.070757
    16  C    0.029582
    17  O   -0.461031
 Electronic spatial extent (au):  <R**2>=           4366.3240
 Charge=             -0.0000 electrons
 Dipole moment (field-independent basis, Debye):
    X=              1.8214    Y=             -5.3824    Z=             -1.7650  Tot=              5.9500
 Quadrupole moment (field-independent basis, Debye-Ang):
   XX=            -96.8205   YY=           -114.0125   ZZ=           -101.0950
   XY=             -0.2828   XZ=             -2.6645   YZ=             -4.5465
 Traceless Quadrupole moment (field-independent basis, Debye-Ang):
   XX=              7.1555   YY=            -10.0365   ZZ=              2.8810
   XY=             -0.2828   XZ=             -2.6645   YZ=             -4.5465
 Octapole moment (field-independent basis, Debye-Ang**2):
  XXX=             41.9520  YYY=            -42.3768  ZZZ=            -11.7728  XYY=             -3.5048
  XXY=            -16.3193  XXZ=              7.5743  XZZ=             -2.8534  YZZ=             -0.4027
  YYZ=             -0.7637  XYZ=              0.8909
 Hexadecapole moment (field-independent basis, Debye-Ang**3):
 XXXX=          -3342.8746 YYYY=          -1978.3549 ZZZZ=           -577.7665 XXXY=            -53.3469
 XXXZ=           -112.7349 YYYX=             18.4230 YYYZ=             17.6494 ZZZX=            -13.6136
 ZZZY=            -24.0165 XXYY=           -821.8745 XXZZ=           -639.3904 YYZZ=           -410.9148
 XXYZ=            -31.6079 YYXZ=             12.7929 ZZXY=              2.1735
 N-N= 1.331946133609D+03 E-N=-5.259264284289D+03  KE= 1.102023937032D+03
 Breneman (CHELPG) radii used.
 Read replacement radii for each type of atom:
 Atom Element Radius
    1     8    1.70
    2    16    2.00
    3     7    1.70
    4     6    1.50
    5     6    1.50
    6     6    1.50
    7     6    1.50
    8     6    1.50
    9     6    1.50
   10     6    1.50
   11     6    1.50
   12     6    1.50
   13     6    1.50
   14     6    1.50
   15     6    1.50
   16     6    1.50
   17     8    1.70
   18     1    1.45
   19     1    1.45
   20     1    1.45
   21     1    1.45
   22     1    1.45
   23     1    1.45
   24     1    1.45
   25     1    1.45
   26     1    1.45
   27     1    1.45
   28     1    1.45
   29     1    1.45
   30     1    1.45
 Generate Potential Derived Charges using the Breneman model, NDens= 1.
 Grid spacing= 0.300 Box extension= 2.800
 NStep X,Y,Z=   49     41     34   Total possible points=       68306
 Number of Points to Fit=   18714

 **********************************************************************

            Electrostatic Properties Using The SCF Density.

 **********************************************************************

       Atomic Center    1 is at   0.244591  3.115771 -0.603022
       Atomic Center    2 is at  -0.211405  1.956026  0.139088
       Atomic Center    3 is at  -1.389856  1.267767 -0.841561
       Atomic Center    4 is at  -1.950832  0.004374 -0.532318
       Atomic Center    5 is at  -1.772286 -1.075368 -1.403563
       Atomic Center    6 is at  -2.334133 -2.314448 -1.105295
       Atomic Center    7 is at  -3.052068 -2.492312  0.076056
       Atomic Center    8 is at  -3.218557 -1.417145  0.949337
       Atomic Center    9 is at  -2.684901 -0.167356  0.646613
       Atomic Center   10 is at   1.098833  0.752370  0.173507
       Atomic Center   11 is at   2.134138  0.847653 -0.754255
       Atomic Center   12 is at   3.121910 -0.132135 -0.768137
       Atomic Center   13 is at   3.088503 -1.207200  0.129507
       Atomic Center   14 is at   4.177318 -2.246592  0.128410
       Atomic Center   15 is at   2.036061 -1.274803  1.051452
       Atomic Center   16 is at   1.042874 -0.301351  1.084717
       Atomic Center   17 is at  -0.760040  2.053275  1.477389
       Atomic Center   18 is at  -1.147735  1.412597 -1.817919
       Atomic Center   19 is at  -1.185699 -0.941852 -2.316082
       Atomic Center   20 is at  -2.196809 -3.148903 -1.796256
       Atomic Center   21 is at  -3.484457 -3.466082  0.314465
       Atomic Center   22 is at  -3.786345 -1.546546  1.873274
       Atomic Center   23 is at  -2.820518  0.682826  1.315084
       Atomic Center   24 is at   2.165146  1.692050 -1.445411
       Atomic Center   25 is at   3.939157 -0.058411 -1.490036
       Atomic Center   26 is at   3.796794 -3.227559  0.446171
       Atomic Center   27 is at   4.628560 -2.356737 -0.867601
       Atomic Center   28 is at   4.981462 -1.962649  0.826376
       Atomic Center   29 is at   1.993611 -2.105137  1.760614
       Atomic Center   30 is at   0.230744 -0.350872  1.811720
   18714 points will be used for fitting atomic charges
 Fitting point charges to electrostatic potential
 Charges from ESP fit, RMS=   0.00358 RRMS=   0.21888:
 ESP charges:
               1
     1  O   -0.485536
     2  S    0.935383
     3  N   -0.647344
     4  C    0.411971
     5  C   -0.270627
     6  C   -0.053187
     7  C   -0.148674
     8  C   -0.054292
     9  C   -0.220758
    10  C   -0.066167
    11  C   -0.066923
    12  C   -0.213024
    13  C    0.240369
    14  C   -0.272130
    15  C   -0.231658
    16  C   -0.035315
    17  O   -0.469865
    18  H    0.354875
    19  H    0.111169
    20  H    0.104234
    21  H    0.105290
    22  H    0.097014
    23  H    0.160647
    24  H    0.112522
    25  H    0.126926
    26  H    0.078775
    27  H    0.077494
    28  H    0.090230
    29  H    0.129194
    30  H    0.099410
 Sum of ESP charges =  -0.00000
 ESP charges with hydrogens summed into heavy atoms:
               1
     1  O   -0.485536
     2  S    0.935383
     3  N   -0.292470
     4  C    0.411971
     5  C   -0.159459
     6  C    0.051047
     7  C   -0.043383
     8  C    0.042722
     9  C   -0.060111
    10  C   -0.066167
    11  C    0.045599
    12  C   -0.086099
    13  C    0.240369
    14  C   -0.025631
    15  C   -0.102464
    16  C    0.064094
    17  O   -0.469865
 Charge=  -0.00000 Dipole=     1.7009    -5.2559    -1.7354 Tot=     5.7904
 -----------------------------------------------------------------

              Electrostatic Properties (Atomic Units)

 -----------------------------------------------------------------
    Center     Electric         -------- Electric Field --------
               Potential          X             Y             Z
 -----------------------------------------------------------------
    1 Atom    -22.373245
    2 Atom    -59.026799
    3 Atom    -18.345597
    4 Atom    -14.712671
    5 Atom    -14.755800
    6 Atom    -14.756708
    7 Atom    -14.761223
    8 Atom    -14.758976
    9 Atom    -14.763161
   10 Atom    -14.732027
   11 Atom    -14.744878
   12 Atom    -14.752127
   13 Atom    -14.736849
   14 Atom    -14.755046
   15 Atom    -14.752984
   16 Atom    -14.745696
   17 Atom    -22.373383
   18 Atom     -1.001963
   19 Atom     -1.087785
   20 Atom     -1.096079
   21 Atom     -1.099247
   22 Atom     -1.099702
   23 Atom     -1.101921
   24 Atom     -1.086172
   25 Atom     -1.090250
   26 Atom     -1.100258
   27 Atom     -1.100367
   28 Atom     -1.097643
   29 Atom     -1.091443
   30 Atom     -1.088681
 -----------------------------------------------------------------
 Unable to Open any file for archive entry.
 1\1\GINC-NOTCH225\SP\RwB97XD\def2TZVP\C13H13N1O2S1\U1366379\17-Feb-202
 6\0\\#N Guess=Read Geom=Check Integral(Ultrafine) Density Pop=(ChelpG,
 ReadRadii) NMR wB97XD def2TZVP\\prod_5l_31\\0,1\O,0,-0.4576966654,3.01
 27659431,1.0943774904\S,0,-0.0101586582,2.0199261963,0.1364380758\N,0,
 1.3420675247,1.3257267809,0.8531621298\C,0,1.9598180837,0.1813340261,0
 .2917033328\C,0,1.9899481913,-1.0215108159,1.0051788142\C,0,2.60800353
 12,-2.1433900133,0.4580521264\C,0,3.1737107874,-2.0813173063,-0.814260
 0302\C,0,3.1317839385,-0.8839249767,-1.5289735835\C,0,2.5412721191,0.2
 507560624,-0.9792486778\C,0,-1.2084445564,0.7055965857,0.0786333202\C,
 0,-2.114613371,0.5650883433,1.1278201463\C,0,-3.0066337941,-0.50258834
 41,1.1124066603\C,0,-3.0042634415,-1.4334453957,0.0654373682\C,0,-3.99
 28144635,-2.5683492759,0.0406373045\C,0,-2.082697543,-1.264733884,-0.9
 759266858\C,0,-1.1873958348,-0.2000538124,-0.9811402232\O,0,0.34446535
 51,2.3575633801,-1.2280208815\H,0,1.2215507675,1.308062192,1.862139857
 3\H,0,1.5216692405,-1.0765355803,1.9912264286\H,0,2.6343017872,-3.0753
 655307,1.026673037\H,0,3.6498520144,-2.963357598,-1.2470671476\H,0,3.5
 796276653,-0.8251748768,-2.5233442188\H,0,2.5149882607,1.1949243955,-1
 .5232246812\H,0,-2.1230426403,1.2976623656,1.9370959495\H,0,-3.7232191
 498,-0.6135178866,1.9301282496\H,0,-3.5779082788,-3.4517355956,-0.4648
 813203\H,0,-4.2959863814,-2.8612071317,1.0555809126\H,0,-4.9039330027,
 -2.2735746475,-0.5047053643\H,0,-2.0665493987,-1.9797880408,-1.8021256
 185\H,0,-0.4785620873,-0.0650955588,-1.7996027709\\Version=ES64L-G16Re
 vC.01\State=1-A\HF=-1106.6304776\RMSD=3.939e-09\Dipole=-0.4384672,-2.2
 554078,0.4481004\Quadrupole=4.5411442,-7.9709575,3.4298133,2.0392236,-
 2.3188196,1.4776125\PG=C01 [X(C13H13N1O2S1)]\\@
 The archive entry for this job was punched.


 TRUTH, IN SCIENCE, CAN BE DEFINED AS THE WORKING HYPOTHESIS 
 BEST FITTED TO OPEN THE WAY TO THE NEXT BETTER ONE.

                              -- KONRAD LORENZ
 Job cpu time:       0 days  1 hours 45 minutes 42.7 seconds.
 Elapsed time:       0 days  0 hours 13 minutes 36.9 seconds.
 File lengths (MBytes):  RWF=    226 Int=      0 D2E=      0 Chk=     34 Scr=      2
 Normal termination of Gaussian 16 at Tue Feb 17 17:29:14 2026.
