 Entering Gaussian System, Link 0=g16
 Input=prod_3i_1_update.com
 Output=prod_3i_1_update.log
 Initial command:
 /uufs/chpc.utah.edu/sys/installdir/gaussian16/C01/AVX/g16/l1.exe "/scratch/general/vast/u1366379/GAUSSSCRDIR/11121496-notchpeak.peaks/Gau-2577740.inp" -scrdir="/scratch/general/vast/u1366379/GAUSSSCRDIR/11121496-notchpeak.peaks/"
 Entering Link 1 = /uufs/chpc.utah.edu/sys/installdir/gaussian16/C01/AVX/g16/l1.exe PID=   2577741.
  
 Copyright (c) 1988-2019, Gaussian, Inc.  All Rights Reserved.
  
 This is part of the Gaussian(R) 16 program.  It is based on
 the Gaussian(R) 09 system (copyright 2009, Gaussian, Inc.),
 the Gaussian(R) 03 system (copyright 2003, Gaussian, Inc.),
 the Gaussian(R) 98 system (copyright 1998, Gaussian, Inc.),
 the Gaussian(R) 94 system (copyright 1995, Gaussian, Inc.),
 the Gaussian 92(TM) system (copyright 1992, Gaussian, Inc.),
 the Gaussian 90(TM) system (copyright 1990, Gaussian, Inc.),
 the Gaussian 88(TM) system (copyright 1988, Gaussian, Inc.),
 the Gaussian 86(TM) system (copyright 1986, Carnegie Mellon
 University), and the Gaussian 82(TM) system (copyright 1983,
 Carnegie Mellon University). Gaussian is a federally registered
 trademark of Gaussian, Inc.
  
 This software contains proprietary and confidential information,
 including trade secrets, belonging to Gaussian, Inc.
  
 This software is provided under written license and may be
 used, copied, transmitted, or stored only in accord with that
 written license.
  
 The following legend is applicable only to US Government
 contracts under FAR:
  
                    RESTRICTED RIGHTS LEGEND
  
 Use, reproduction and disclosure by the US Government is
 subject to restrictions as set forth in subparagraphs (a)
 and (c) of the Commercial Computer Software - Restricted
 Rights clause in FAR 52.227-19.
  
 Gaussian, Inc.
 340 Quinnipiac St., Bldg. 40, Wallingford CT 06492
  
  
 ---------------------------------------------------------------
 Warning -- This program may not be used in any manner that
 competes with the business of Gaussian, Inc. or will provide
 assistance to any competitor of Gaussian, Inc.  The licensee
 of this program is prohibited from giving any competitor of
 Gaussian, Inc. access to this program.  By using this program,
 the user acknowledges that Gaussian, Inc. is engaged in the
 business of creating and licensing software in the field of
 computational chemistry and represents and warrants to the
 licensee that it is not a competitor of Gaussian, Inc. and that
 it will not use this program in any manner prohibited above.
 ---------------------------------------------------------------
  

 Cite this work as:
 Gaussian 16, Revision C.01,
 M. J. Frisch, G. W. Trucks, H. B. Schlegel, G. E. Scuseria, 
 M. A. Robb, J. R. Cheeseman, G. Scalmani, V. Barone, 
 G. A. Petersson, H. Nakatsuji, X. Li, M. Caricato, A. V. Marenich, 
 J. Bloino, B. G. Janesko, R. Gomperts, B. Mennucci, H. P. Hratchian, 
 J. V. Ortiz, A. F. Izmaylov, J. L. Sonnenberg, D. Williams-Young, 
 F. Ding, F. Lipparini, F. Egidi, J. Goings, B. Peng, A. Petrone, 
 T. Henderson, D. Ranasinghe, V. G. Zakrzewski, J. Gao, N. Rega, 
 G. Zheng, W. Liang, M. Hada, M. Ehara, K. Toyota, R. Fukuda, 
 J. Hasegawa, M. Ishida, T. Nakajima, Y. Honda, O. Kitao, H. Nakai, 
 T. Vreven, K. Throssell, J. A. Montgomery, Jr., J. E. Peralta, 
 F. Ogliaro, M. J. Bearpark, J. J. Heyd, E. N. Brothers, K. N. Kudin, 
 V. N. Staroverov, T. A. Keith, R. Kobayashi, J. Normand, 
 K. Raghavachari, A. P. Rendell, J. C. Burant, S. S. Iyengar, 
 J. Tomasi, M. Cossi, J. M. Millam, M. Klene, C. Adamo, R. Cammi, 
 J. W. Ochterski, R. L. Martin, K. Morokuma, O. Farkas, 
 J. B. Foresman, and D. J. Fox, Gaussian, Inc., Wallingford CT, 2019.
 
 ******************************************
 Gaussian 16:  ES64L-G16RevC.01  3-Jul-2019
                24-Feb-2026 
 ******************************************
 %NProcShared=16
 Will use up to   16 processors via shared memory.
 %Mem=16GB
 %chk=prod_3i_1.chk
 ----------------------------------------------------------------
 #N OPT=(CalcAll) FREQ=NORAMAN Integral(Ultrafine) wB97XD def2SVP
 ----------------------------------------------------------------
 1/10=4,18=20,19=15,26=4,38=1/1,3;
 2/9=110,12=2,17=6,18=5,40=1/2;
 3/5=43,7=101,11=2,25=1,30=1,71=2,74=-58,75=-5,140=1/1,2,3;
 4//1;
 5/5=2,38=5/2;
 8/6=4,10=90,11=11/1;
 11/6=1,8=1,9=11,15=111,16=1/1,2,10;
 10/6=1/2;
 6/7=2,8=2,9=2,10=2,18=1,28=1/1;
 7/10=1,25=1/1,2,3,16;
 1/10=4,18=20,19=15,26=4/3(3);
 2/9=110/2;
 7/8=1,9=1,25=1,44=-1/16;
 99//99;
 2/9=110/2;
 3/5=43,7=101,11=2,25=1,30=1,71=2,74=-58,75=-5,140=1/1,2,3;
 4/5=5,16=3,69=1/1;
 5/5=2,38=5/2;
 8/6=4,10=90,11=11/1;
 11/6=1,8=1,9=11,15=111,16=1/1,2,10;
 10/6=1/2;
 7/10=1,25=1/1,2,3,16;
 1/10=4,18=20,19=15,26=4/3(-8);
 2/9=110/2;
 6/7=2,8=2,9=2,10=2,18=1,19=2,28=1/1;
 7/8=1,9=1,25=1,44=-1/16;
 99//99;
 ----------------
 prod_3i_1_update
 ----------------
 Symbolic Z-matrix:
 Charge =  0 Multiplicity = 1
 C                     4.87855  -0.79094   0.06417 
 C                     3.45257  -0.30467   0.03836 
 C                     3.11966   0.95333  -0.47408 
 C                     1.80573   1.40978  -0.48522 
 C                     2.41032  -1.081     0.55652 
 C                     1.09404  -0.63007   0.57245 
 C                     0.76777   0.62567   0.03879 
 N                    -0.5309    1.1377    0.05441 
 C                    -1.73907   0.44879   0.00267 
 C                    -2.90204   1.08548   0.46915 
 C                    -4.13773   0.4514    0.39835 
 C                    -4.24536  -0.83782  -0.12252 
 C                    -3.09549  -1.47326  -0.58864 
 C                    -1.85531  -0.84207  -0.53903 
 H                     4.93386  -1.88176  -0.06469 
 H                     5.47663  -0.32514  -0.73238 
 H                     5.36368  -0.54911   1.02422 
 H                     3.90487   1.59035  -0.8907 
 H                     1.57377   2.38809  -0.91453 
 H                     2.63274  -2.06627   0.97597 
 H                     0.31566  -1.25157   1.01721 
 H                    -0.60324   2.14522   0.08028 
 H                    -2.82674   2.08898   0.89665 
 H                    -5.0261    0.97006   0.76621 
 H                    -5.2139   -1.33884  -0.16852 
 H                    -3.16174  -2.47714  -1.0148 
 H                    -0.9751   -1.34459  -0.94159 
 

 GradGradGradGradGradGradGradGradGradGradGradGradGradGradGradGradGradGrad
 Berny optimization.
 Initialization pass.
                           ----------------------------
                           !    Initial Parameters    !
                           ! (Angstroms and Degrees)  !
 --------------------------                            --------------------------
 ! Name  Definition              Value          Derivative Info.                !
 --------------------------------------------------------------------------------
 ! R1    R(1,2)                  1.5068         calculate D2E/DX2 analytically  !
 ! R2    R(1,15)                 1.0998         calculate D2E/DX2 analytically  !
 ! R3    R(1,16)                 1.0996         calculate D2E/DX2 analytically  !
 ! R4    R(1,17)                 1.1025         calculate D2E/DX2 analytically  !
 ! R5    R(2,3)                  1.3986         calculate D2E/DX2 analytically  !
 ! R6    R(2,5)                  1.3991         calculate D2E/DX2 analytically  !
 ! R7    R(3,4)                  1.391          calculate D2E/DX2 analytically  !
 ! R8    R(3,18)                 1.0936         calculate D2E/DX2 analytically  !
 ! R9    R(4,7)                  1.4024         calculate D2E/DX2 analytically  !
 ! R10   R(4,19)                 1.0933         calculate D2E/DX2 analytically  !
 ! R11   R(5,6)                  1.3915         calculate D2E/DX2 analytically  !
 ! R12   R(5,20)                 1.0937         calculate D2E/DX2 analytically  !
 ! R13   R(6,7)                  1.4029         calculate D2E/DX2 analytically  !
 ! R14   R(6,21)                 1.0908         calculate D2E/DX2 analytically  !
 ! R15   R(7,8)                  1.3961         calculate D2E/DX2 analytically  !
 ! R16   R(8,9)                  1.3917         calculate D2E/DX2 analytically  !
 ! R17   R(8,22)                 1.0104         calculate D2E/DX2 analytically  !
 ! R18   R(9,10)                 1.4055         calculate D2E/DX2 analytically  !
 ! R19   R(9,14)                 1.4047         calculate D2E/DX2 analytically  !
 ! R20   R(10,11)                1.3907         calculate D2E/DX2 analytically  !
 ! R21   R(10,23)                1.0934         calculate D2E/DX2 analytically  !
 ! R22   R(11,12)                1.3946         calculate D2E/DX2 analytically  !
 ! R23   R(11,24)                1.0925         calculate D2E/DX2 analytically  !
 ! R24   R(12,13)                1.394          calculate D2E/DX2 analytically  !
 ! R25   R(12,25)                1.0914         calculate D2E/DX2 analytically  !
 ! R26   R(13,14)                1.3924         calculate D2E/DX2 analytically  !
 ! R27   R(13,26)                1.0926         calculate D2E/DX2 analytically  !
 ! R28   R(14,27)                1.0906         calculate D2E/DX2 analytically  !
 ! A1    A(2,1,15)             111.4483         calculate D2E/DX2 analytically  !
 ! A2    A(2,1,16)             111.4448         calculate D2E/DX2 analytically  !
 ! A3    A(2,1,17)             111.1336         calculate D2E/DX2 analytically  !
 ! A4    A(15,1,16)            107.9337         calculate D2E/DX2 analytically  !
 ! A5    A(15,1,17)            107.3047         calculate D2E/DX2 analytically  !
 ! A6    A(16,1,17)            107.3702         calculate D2E/DX2 analytically  !
 ! A7    A(1,2,3)              121.4541         calculate D2E/DX2 analytically  !
 ! A8    A(1,2,5)              121.3031         calculate D2E/DX2 analytically  !
 ! A9    A(3,2,5)              117.225          calculate D2E/DX2 analytically  !
 ! A10   A(2,3,4)              121.5301         calculate D2E/DX2 analytically  !
 ! A11   A(2,3,18)             119.5139         calculate D2E/DX2 analytically  !
 ! A12   A(4,3,18)             118.9493         calculate D2E/DX2 analytically  !
 ! A13   A(3,4,7)              120.8406         calculate D2E/DX2 analytically  !
 ! A14   A(3,4,19)             119.8154         calculate D2E/DX2 analytically  !
 ! A15   A(7,4,19)             119.342          calculate D2E/DX2 analytically  !
 ! A16   A(2,5,6)              121.9456         calculate D2E/DX2 analytically  !
 ! A17   A(2,5,20)             119.3677         calculate D2E/DX2 analytically  !
 ! A18   A(6,5,20)             118.6807         calculate D2E/DX2 analytically  !
 ! A19   A(5,6,7)              120.3792         calculate D2E/DX2 analytically  !
 ! A20   A(5,6,21)             119.6718         calculate D2E/DX2 analytically  !
 ! A21   A(7,6,21)             119.9419         calculate D2E/DX2 analytically  !
 ! A22   A(4,7,6)              118.0648         calculate D2E/DX2 analytically  !
 ! A23   A(4,7,8)              119.1835         calculate D2E/DX2 analytically  !
 ! A24   A(6,7,8)              122.7099         calculate D2E/DX2 analytically  !
 ! A25   A(7,8,9)              128.7246         calculate D2E/DX2 analytically  !
 ! A26   A(7,8,22)             115.6322         calculate D2E/DX2 analytically  !
 ! A27   A(9,8,22)             115.6179         calculate D2E/DX2 analytically  !
 ! A28   A(8,9,10)             118.798          calculate D2E/DX2 analytically  !
 ! A29   A(8,9,14)             122.7546         calculate D2E/DX2 analytically  !
 ! A30   A(10,9,14)            118.4108         calculate D2E/DX2 analytically  !
 ! A31   A(9,10,11)            120.7822         calculate D2E/DX2 analytically  !
 ! A32   A(9,10,23)            119.2451         calculate D2E/DX2 analytically  !
 ! A33   A(11,10,23)           119.9719         calculate D2E/DX2 analytically  !
 ! A34   A(10,11,12)           120.6023         calculate D2E/DX2 analytically  !
 ! A35   A(10,11,24)           119.2703         calculate D2E/DX2 analytically  !
 ! A36   A(12,11,24)           120.124          calculate D2E/DX2 analytically  !
 ! A37   A(11,12,13)           118.856          calculate D2E/DX2 analytically  !
 ! A38   A(11,12,25)           120.5695         calculate D2E/DX2 analytically  !
 ! A39   A(13,12,25)           120.5739         calculate D2E/DX2 analytically  !
 ! A40   A(12,13,14)           121.0726         calculate D2E/DX2 analytically  !
 ! A41   A(12,13,26)           119.9489         calculate D2E/DX2 analytically  !
 ! A42   A(14,13,26)           118.9724         calculate D2E/DX2 analytically  !
 ! A43   A(9,14,13)            120.2643         calculate D2E/DX2 analytically  !
 ! A44   A(9,14,27)            119.9332         calculate D2E/DX2 analytically  !
 ! A45   A(13,14,27)           119.7902         calculate D2E/DX2 analytically  !
 ! D1    D(15,1,2,3)          -147.6003         calculate D2E/DX2 analytically  !
 ! D2    D(15,1,2,5)            33.9768         calculate D2E/DX2 analytically  !
 ! D3    D(16,1,2,3)           -26.953          calculate D2E/DX2 analytically  !
 ! D4    D(16,1,2,5)           154.6242         calculate D2E/DX2 analytically  !
 ! D5    D(17,1,2,3)            92.7636         calculate D2E/DX2 analytically  !
 ! D6    D(17,1,2,5)           -85.6592         calculate D2E/DX2 analytically  !
 ! D7    D(1,2,3,4)           -179.2825         calculate D2E/DX2 analytically  !
 ! D8    D(1,2,3,18)             1.666          calculate D2E/DX2 analytically  !
 ! D9    D(5,2,3,4)             -0.798          calculate D2E/DX2 analytically  !
 ! D10   D(5,2,3,18)          -179.8494         calculate D2E/DX2 analytically  !
 ! D11   D(1,2,5,6)            178.2287         calculate D2E/DX2 analytically  !
 ! D12   D(1,2,5,20)            -0.8675         calculate D2E/DX2 analytically  !
 ! D13   D(3,2,5,6)             -0.2583         calculate D2E/DX2 analytically  !
 ! D14   D(3,2,5,20)          -179.3545         calculate D2E/DX2 analytically  !
 ! D15   D(2,3,4,7)              0.954          calculate D2E/DX2 analytically  !
 ! D16   D(2,3,4,19)          -178.5315         calculate D2E/DX2 analytically  !
 ! D17   D(18,3,4,7)          -179.9893         calculate D2E/DX2 analytically  !
 ! D18   D(18,3,4,19)            0.5251         calculate D2E/DX2 analytically  !
 ! D19   D(3,4,7,6)             -0.0353         calculate D2E/DX2 analytically  !
 ! D20   D(3,4,7,8)            177.679          calculate D2E/DX2 analytically  !
 ! D21   D(19,4,7,6)           179.4527         calculate D2E/DX2 analytically  !
 ! D22   D(19,4,7,8)            -2.833          calculate D2E/DX2 analytically  !
 ! D23   D(2,5,6,7)              1.169          calculate D2E/DX2 analytically  !
 ! D24   D(2,5,6,21)          -177.8608         calculate D2E/DX2 analytically  !
 ! D25   D(20,5,6,7)          -179.7288         calculate D2E/DX2 analytically  !
 ! D26   D(20,5,6,21)            1.2414         calculate D2E/DX2 analytically  !
 ! D27   D(5,6,7,4)             -0.9999         calculate D2E/DX2 analytically  !
 ! D28   D(5,6,7,8)           -178.6282         calculate D2E/DX2 analytically  !
 ! D29   D(21,6,7,4)           178.0273         calculate D2E/DX2 analytically  !
 ! D30   D(21,6,7,8)             0.399          calculate D2E/DX2 analytically  !
 ! D31   D(4,7,8,9)            151.8086         calculate D2E/DX2 analytically  !
 ! D32   D(4,7,8,22)           -26.2648         calculate D2E/DX2 analytically  !
 ! D33   D(6,7,8,9)            -30.5886         calculate D2E/DX2 analytically  !
 ! D34   D(6,7,8,22)           151.338          calculate D2E/DX2 analytically  !
 ! D35   D(7,8,9,10)           158.9888         calculate D2E/DX2 analytically  !
 ! D36   D(7,8,9,14)           -23.2478         calculate D2E/DX2 analytically  !
 ! D37   D(22,8,9,10)          -22.9376         calculate D2E/DX2 analytically  !
 ! D38   D(22,8,9,14)          154.8258         calculate D2E/DX2 analytically  !
 ! D39   D(8,9,10,11)          177.9834         calculate D2E/DX2 analytically  !
 ! D40   D(8,9,10,23)           -2.3525         calculate D2E/DX2 analytically  !
 ! D41   D(14,9,10,11)           0.1219         calculate D2E/DX2 analytically  !
 ! D42   D(14,9,10,23)         179.786          calculate D2E/DX2 analytically  !
 ! D43   D(8,9,14,13)         -178.7225         calculate D2E/DX2 analytically  !
 ! D44   D(8,9,14,27)           -0.0014         calculate D2E/DX2 analytically  !
 ! D45   D(10,9,14,13)          -0.9509         calculate D2E/DX2 analytically  !
 ! D46   D(10,9,14,27)         177.7703         calculate D2E/DX2 analytically  !
 ! D47   D(9,10,11,12)           0.8077         calculate D2E/DX2 analytically  !
 ! D48   D(9,10,11,24)        -179.867          calculate D2E/DX2 analytically  !
 ! D49   D(23,10,11,12)       -178.854          calculate D2E/DX2 analytically  !
 ! D50   D(23,10,11,24)          0.4713         calculate D2E/DX2 analytically  !
 ! D51   D(10,11,12,13)         -0.8937         calculate D2E/DX2 analytically  !
 ! D52   D(10,11,12,25)        179.3778         calculate D2E/DX2 analytically  !
 ! D53   D(24,11,12,13)        179.7867         calculate D2E/DX2 analytically  !
 ! D54   D(24,11,12,25)          0.0582         calculate D2E/DX2 analytically  !
 ! D55   D(11,12,13,14)          0.0569         calculate D2E/DX2 analytically  !
 ! D56   D(11,12,13,26)       -179.0344         calculate D2E/DX2 analytically  !
 ! D57   D(25,12,13,14)        179.7854         calculate D2E/DX2 analytically  !
 ! D58   D(25,12,13,26)          0.6941         calculate D2E/DX2 analytically  !
 ! D59   D(12,13,14,9)           0.8731         calculate D2E/DX2 analytically  !
 ! D60   D(12,13,14,27)       -177.8499         calculate D2E/DX2 analytically  !
 ! D61   D(26,13,14,9)         179.9731         calculate D2E/DX2 analytically  !
 ! D62   D(26,13,14,27)          1.2501         calculate D2E/DX2 analytically  !
 --------------------------------------------------------------------------------
 Trust Radius=3.00D-01 FncErr=1.00D-07 GrdErr=1.00D-06 EigMax=2.50D+02 EigMin=1.00D-04
 Number of steps in this run=    145 maximum allowed number of steps=    162.
 GradGradGradGradGradGradGradGradGradGradGradGradGradGradGradGradGradGrad

                          Input orientation:                          
 ---------------------------------------------------------------------
 Center     Atomic      Atomic             Coordinates (Angstroms)
 Number     Number       Type             X           Y           Z
 ---------------------------------------------------------------------
      1          6           0        4.878550   -0.790940    0.064170
      2          6           0        3.452570   -0.304670    0.038360
      3          6           0        3.119660    0.953330   -0.474080
      4          6           0        1.805730    1.409780   -0.485220
      5          6           0        2.410320   -1.081000    0.556520
      6          6           0        1.094040   -0.630070    0.572450
      7          6           0        0.767770    0.625670    0.038790
      8          7           0       -0.530900    1.137700    0.054410
      9          6           0       -1.739070    0.448790    0.002670
     10          6           0       -2.902040    1.085480    0.469150
     11          6           0       -4.137730    0.451400    0.398350
     12          6           0       -4.245360   -0.837820   -0.122520
     13          6           0       -3.095490   -1.473260   -0.588640
     14          6           0       -1.855310   -0.842070   -0.539030
     15          1           0        4.933860   -1.881760   -0.064690
     16          1           0        5.476630   -0.325140   -0.732380
     17          1           0        5.363680   -0.549110    1.024220
     18          1           0        3.904870    1.590350   -0.890700
     19          1           0        1.573770    2.388090   -0.914530
     20          1           0        2.632740   -2.066270    0.975970
     21          1           0        0.315660   -1.251570    1.017210
     22          1           0       -0.603240    2.145220    0.080280
     23          1           0       -2.826740    2.088980    0.896650
     24          1           0       -5.026100    0.970060    0.766210
     25          1           0       -5.213900   -1.338840   -0.168520
     26          1           0       -3.161740   -2.477140   -1.014800
     27          1           0       -0.975100   -1.344590   -0.941590
 ---------------------------------------------------------------------
                    Distance matrix (angstroms):
                    1          2          3          4          5
     1  C    0.000000
     2  C    1.506832   0.000000
     3  C    2.534933   1.398566   0.000000
     4  C    3.819322   2.434247   1.391001   0.000000
     5  C    2.533516   1.399094   2.388263   2.766719   0.000000
     6  C    3.821877   2.440041   2.775881   2.405443   1.391469
     7  C    4.348096   2.841423   2.429359   1.402418   2.424611
     8  N    5.742987   4.236593   3.693221   2.413518   3.718268
     9  C    6.733024   5.246151   4.908066   3.705016   4.456955
    10  C    8.013897   6.519138   6.096558   4.814467   5.737808
    11  C    9.107601   7.636353   7.326853   6.084727   6.726829
    12  C    9.125940   7.718048   7.587841   6.465211   6.694648
    13  C    8.029759   6.681005   6.673047   5.687229   5.637305
    14  C    6.761016   5.366169   5.289424   4.298481   4.410546
    15  H    1.099797   2.166115   3.390672   4.560294   2.719443
    16  H    1.099619   2.165936   2.693791   4.067744   3.410989
    17  H    1.102510   2.164258   3.088342   4.332974   3.037102
    18  H    2.744152   2.158432   1.093582   2.145555   3.385888
    19  H    4.688886   3.418895   2.154602   1.093253   3.859843
    20  H    2.738888   2.157422   3.384925   3.860304   1.093694
    21  H    4.684061   3.419791   3.866257   3.400057   2.151495
    22  H    6.218627   4.738493   3.948152   2.581433   4.440365
    23  H    8.267917   6.774655   6.207115   4.881665   6.131171
    24  H   10.084447   8.604798   8.239660   6.959406   7.716940
    25  H   10.109989   8.730407   8.648447   7.545225   7.662956
    26  H    8.285753   7.041155   7.177499   6.329641   5.955343
    27  H    5.965174   4.652526   4.718693   3.940538   3.711453
                    6          7          8          9         10
     6  C    0.000000
     7  C    1.402900   0.000000
     8  N    2.456381   1.396052   0.000000
     9  C    3.084656   2.513332   1.391743   0.000000
    10  C    4.349993   3.723458   2.407705   1.405517   0.000000
    11  C    5.345213   4.921746   3.687618   2.431078   1.390683
    12  C    5.388445   5.224873   4.210843   2.820023   2.419435
    13  C    4.428460   4.441166   3.715878   2.425654   2.775517
    14  C    3.158955   3.060831   2.454735   1.404731   2.414026
    15  H    4.088630   4.863560   6.244592   7.068521   8.395882
    16  H    4.582866   4.865399   6.232925   7.294216   8.581121
    17  H    4.294238   4.844953   6.207410   7.244890   8.444058
    18  H    3.869346   3.411152   4.557870   5.827120   6.959749
    19  H    3.398609   2.159764   2.632861   3.946777   4.862534
    20  H    2.143151   3.406312   4.596011   5.136688   6.389381
    21  H    1.090848   2.164657   2.711505   2.853495   4.014445
    22  H    3.290171   2.047052   1.010445   2.043039   2.561006
    23  H    4.782348   3.974632   2.623963   2.161585   1.093361
    24  H    6.328829   5.849502   4.554293   3.414569   2.147835
    25  H    6.390735   6.299417   5.302211   3.911441   3.410080
    26  H    4.903335   5.116496   4.596912   3.408856   3.868050
    27  H    2.661615   2.807252   2.711290   2.165985   3.407129
                   11         12         13         14         15
    11  C    0.000000
    12  C    1.394625   0.000000
    13  C    2.400985   1.394006   0.000000
    14  C    2.785891   2.426075   1.392447   0.000000
    15  H    9.378261   9.238573   8.056790   6.884677   0.000000
    16  H    9.711719   9.754581   8.649860   7.352683   1.778616
    17  H    9.574420   9.681530   8.661000   7.392117   1.773817
    18  H    8.224492   8.538873   7.647352   6.262588   3.714386
    19  H    6.172168   6.700451   6.067802   4.725836   5.499459
    20  H    7.246487   7.072767   5.967603   4.892493   2.532226
    21  H    4.807887   4.719436   3.776751   2.702348   4.784916
    22  H    3.932279   4.712186   4.444340   3.297746   6.848143
    23  H    2.156077   3.408423   3.868833   3.405276   8.770283
    24  H    1.092488   2.160515   3.395981   3.878321  10.393463
    25  H    2.164357   1.091424   2.163846   3.415287  10.162804
    26  H    3.394981   2.158186   1.092601   2.146292   8.172877
    27  H    3.875983   3.409148   2.153412   1.090573   5.997776
                   16         17         18         19         20
    16  H    0.000000
    17  H    1.774419   0.000000
    18  H    2.482861   3.220611   0.000000
    19  H    4.756796   5.171974   2.463937   0.000000
    20  H    3.746692   3.124442   4.298097   4.953456   0.000000
    21  H    5.527653   5.096666   4.959744   4.308316   2.456481
    22  H    6.612709   6.614724   4.644754   2.405827   5.386137
    23  H    8.799299   8.605741   6.982680   4.768053   6.861364
    24  H   10.687874  10.503427   9.104523   6.956578   8.241428
    25  H   10.753277  10.673870   9.604877   7.779396   7.962962
    26  H    8.906868   8.975393   8.154560   6.790108   6.140682
    27  H    6.535126   6.684110   5.694784   4.519997   4.149020
                   21         22         23         24         25
    21  H    0.000000
    22  H    3.641483   0.000000
    23  H    4.587863   2.369298   0.000000
    24  H    5.790772   4.627439   2.471069   0.000000
    25  H    5.655935   5.784355   4.310809   2.498001   0.000000
    26  H    4.209917   5.395492   4.961383   4.304767   2.494650
    27  H    2.347682   3.655307   4.312435   4.968379   4.308723
                   26         27
    26  H    0.000000
    27  H    2.463620   0.000000
 Stoichiometry    C13H13N
 Framework group  C1[X(C13H13N)]
 Deg. of freedom    75
 Full point group                 C1      NOp   1
 Largest Abelian subgroup         C1      NOp   1
 Largest concise Abelian subgroup C1      NOp   1
                         Standard orientation:                         
 ---------------------------------------------------------------------
 Center     Atomic      Atomic             Coordinates (Angstroms)
 Number     Number       Type             X           Y           Z
 ---------------------------------------------------------------------
      1          6           0        4.878551   -0.790938    0.064170
      2          6           0        3.452571   -0.304669    0.038360
      3          6           0        3.119661    0.953331   -0.474080
      4          6           0        1.805731    1.409781   -0.485220
      5          6           0        2.410321   -1.080999    0.556520
      6          6           0        1.094041   -0.630069    0.572450
      7          6           0        0.767771    0.625671    0.038790
      8          7           0       -0.530899    1.137701    0.054410
      9          6           0       -1.739069    0.448791    0.002670
     10          6           0       -2.902039    1.085481    0.469150
     11          6           0       -4.137729    0.451401    0.398350
     12          6           0       -4.245359   -0.837819   -0.122520
     13          6           0       -3.095489   -1.473259   -0.588640
     14          6           0       -1.855309   -0.842069   -0.539030
     15          1           0        4.933861   -1.881758   -0.064690
     16          1           0        5.476631   -0.325138   -0.732380
     17          1           0        5.363681   -0.549108    1.024220
     18          1           0        3.904871    1.590351   -0.890700
     19          1           0        1.573770    2.388091   -0.914530
     20          1           0        2.632741   -2.066269    0.975970
     21          1           0        0.315661   -1.251569    1.017210
     22          1           0       -0.603240    2.145221    0.080280
     23          1           0       -2.826740    2.088981    0.896650
     24          1           0       -5.026099    0.970060    0.766210
     25          1           0       -5.213899   -1.338840   -0.168520
     26          1           0       -3.161739   -2.477139   -1.014800
     27          1           0       -0.975099   -1.344589   -0.941590
 ---------------------------------------------------------------------
 Rotational constants (GHZ):           2.3060549           0.3138737           0.2870284
 Standard basis: def2SVP (5D, 7F)
 There are   275 symmetry adapted cartesian basis functions of A   symmetry.
 There are   261 symmetry adapted basis functions of A   symmetry.
   261 basis functions,   441 primitive gaussians,   275 cartesian basis functions
    49 alpha electrons       49 beta electrons
       nuclear repulsion energy       785.3386125245 Hartrees.
 NAtoms=   27 NActive=   27 NUniq=   27 SFac= 1.00D+00 NAtFMM=   60 NAOKFM=F Big=F
 Integral buffers will be    131072 words long.
 Raffenetti 2 integral format.
 Two-electron integral symmetry is turned on.
 Nuclear repulsion after empirical dispersion term =      785.3227920044 Hartrees.
 One-electron integrals computed using PRISM.
   1 Symmetry operations used in ECPInt.
 ECPInt:  NShTT=    7626 NPrTT=   27482 LenC2=    7045 LenP2D=   18659.
 LDataN:  DoStor=T MaxTD1= 4 Len=   56
 NBasis=   261 RedAO= T EigKep=  2.54D-04  NBF=   261
 NBsUse=   261 1.00D-06 EigRej= -1.00D+00 NBFU=   261
 ExpMin= 1.22D-01 ExpMax= 1.71D+03 ExpMxC= 2.58D+02 IAcc=3 IRadAn=         5 AccDes= 0.00D+00
 Harris functional with IExCor= 4639 and IRadAn=       5 diagonalized for initial guess.
 HarFok:  IExCor= 4639 AccDes= 0.00D+00 IRadAn=         5 IDoV= 1 UseB2=F ITyADJ=14
 ICtDFT=  3500011 ScaDFX=  1.000000  1.000000  1.000000  1.000000
 FoFCou: FMM=F IPFlag=           0 FMFlag=      100000 FMFlg1=           0
         NFxFlg=           0 DoJE=T BraDBF=F KetDBF=T FulRan=T
         wScrn=  0.000000 ICntrl=       500 IOpCl=  0 I1Cent=   200000004 NGrid=           0
         NMat0=    1 NMatS0=      1 NMatT0=    0 NMatD0=    1 NMtDS0=    0 NMtDT0=    0
 Petite list used in FoFCou.
 Requested convergence on RMS density matrix=1.00D-08 within 128 cycles.
 Requested convergence on MAX density matrix=1.00D-06.
 Requested convergence on             energy=1.00D-06.
 No special actions if energy rises.
 Integral accuracy reduced to 1.0D-05 until final iterations.
 Initial convergence to 1.0D-05 achieved.  Increase integral accuracy.
 SCF Done:  E(RwB97XD) =  -557.390318862     A.U. after   15 cycles
            NFock= 15  Conv=0.37D-08     -V/T= 2.0116
 DoSCS=F DFT=T ScalE2(SS,OS)=  1.000000  1.000000
 Range of M.O.s used for correlation:     1   261
 NBasis=   261 NAE=    49 NBE=    49 NFC=     0 NFV=     0
 NROrb=    261 NOA=    49 NOB=    49 NVA=   212 NVB=   212

 **** Warning!!: The largest alpha MO coefficient is  0.14621292D+02

   1 Symmetry operations used in ECPInt.
 ECPInt:  NShTT=    7626 NPrTT=   27482 LenC2=    7045 LenP2D=   18659.
 LDataN:  DoStor=T MaxTD1= 5 Len=  102
 Symmetrizing basis deriv contribution to polar:
 IMax=3 JMax=2 DiffMx= 0.00D+00
 G2DrvN: will do    28 centers at a time, making    1 passes.
 Calling FoFCou, ICntrl=  3107 FMM=F I1Cent=   0 AccDes= 0.00D+00.
 End of G2Drv F.D. properties file   721 does not exist.
 End of G2Drv F.D. properties file   722 does not exist.
 End of G2Drv F.D. properties file   788 does not exist.
          IDoAtm=111111111111111111111111111
          Differentiating once with respect to electric field.
                with respect to dipole field.
          Differentiating once with respect to nuclear coordinates.
 Keep R1 ints in memory in canonical form, NReq=1195721150.
          There are    84 degrees of freedom in the 1st order CPHF.  IDoFFX=6 NUNeed=     3.
     81 vectors produced by pass  0 Test12= 1.24D-14 1.19D-09 XBig12= 1.14D+02 6.65D+00.
 AX will form    81 AO Fock derivatives at one time.
     81 vectors produced by pass  1 Test12= 1.24D-14 1.19D-09 XBig12= 8.97D+00 5.62D-01.
     81 vectors produced by pass  2 Test12= 1.24D-14 1.19D-09 XBig12= 1.37D-01 5.45D-02.
     81 vectors produced by pass  3 Test12= 1.24D-14 1.19D-09 XBig12= 1.18D-03 3.99D-03.
     81 vectors produced by pass  4 Test12= 1.24D-14 1.19D-09 XBig12= 9.95D-06 3.31D-04.
     81 vectors produced by pass  5 Test12= 1.24D-14 1.19D-09 XBig12= 5.14D-08 2.08D-05.
     61 vectors produced by pass  6 Test12= 1.24D-14 1.19D-09 XBig12= 2.62D-10 1.36D-06.
     24 vectors produced by pass  7 Test12= 1.24D-14 1.19D-09 XBig12= 9.95D-13 7.69D-08.
      3 vectors produced by pass  8 Test12= 1.24D-14 1.19D-09 XBig12= 4.12D-15 4.71D-09.
 InvSVY:  IOpt=1 It=  1 EMax= 1.64D-15
 Solved reduced A of dimension   574 with    84 vectors.
 Isotropic polarizability for W=    0.000000      150.68 Bohr**3.
 End of Minotr F.D. properties file   721 does not exist.
 End of Minotr F.D. properties file   722 does not exist.
 End of Minotr F.D. properties file   788 does not exist.

 **********************************************************************

            Population analysis using the SCF Density.

 **********************************************************************

 Orbital symmetries:
       Occupied  (A) (A) (A) (A) (A) (A) (A) (A) (A) (A) (A) (A)
                 (A) (A) (A) (A) (A) (A) (A) (A) (A) (A) (A) (A)
                 (A) (A) (A) (A) (A) (A) (A) (A) (A) (A) (A) (A)
                 (A) (A) (A) (A) (A) (A) (A) (A) (A) (A) (A) (A)
                 (A)
       Virtual   (A) (A) (A) (A) (A) (A) (A) (A) (A) (A) (A) (A)
                 (A) (A) (A) (A) (A) (A) (A) (A) (A) (A) (A) (A)
                 (A) (A) (A) (A) (A) (A) (A) (A) (A) (A) (A) (A)
                 (A) (A) (A) (A) (A) (A) (A) (A) (A) (A) (A) (A)
                 (A) (A) (A) (A) (A) (A) (A) (A) (A) (A) (A) (A)
                 (A) (A) (A) (A) (A) (A) (A) (A) (A) (A) (A) (A)
                 (A) (A) (A) (A) (A) (A) (A) (A) (A) (A) (A) (A)
                 (A) (A) (A) (A) (A) (A) (A) (A) (A) (A) (A) (A)
                 (A) (A) (A) (A) (A) (A) (A) (A) (A) (A) (A) (A)
                 (A) (A) (A) (A) (A) (A) (A) (A) (A) (A) (A) (A)
                 (A) (A) (A) (A) (A) (A) (A) (A) (A) (A) (A) (A)
                 (A) (A) (A) (A) (A) (A) (A) (A) (A) (A) (A) (A)
                 (A) (A) (A) (A) (A) (A) (A) (A) (A) (A) (A) (A)
                 (A) (A) (A) (A) (A) (A) (A) (A) (A) (A) (A) (A)
                 (A) (A) (A) (A) (A) (A) (A) (A) (A) (A) (A) (A)
                 (A) (A) (A) (A) (A) (A) (A) (A) (A) (A) (A) (A)
                 (A) (A) (A) (A) (A) (A) (A) (A) (A) (A) (A) (A)
                 (A) (A) (A) (A) (A) (A) (A) (A)
 The electronic state is 1-A.
 Alpha  occ. eigenvalues --  -14.46736 -10.34540 -10.34290 -10.30169 -10.30091
 Alpha  occ. eigenvalues --  -10.30088 -10.29957 -10.29884 -10.29851 -10.29765
 Alpha  occ. eigenvalues --  -10.29669 -10.29562 -10.29524 -10.29211  -1.04522
 Alpha  occ. eigenvalues --   -0.95284  -0.93338  -0.86452  -0.83984  -0.83460
 Alpha  occ. eigenvalues --   -0.82129  -0.76799  -0.71420  -0.70061  -0.68737
 Alpha  occ. eigenvalues --   -0.66517  -0.62348  -0.61584  -0.57652  -0.55203
 Alpha  occ. eigenvalues --   -0.54583  -0.53349  -0.51763  -0.51228  -0.50578
 Alpha  occ. eigenvalues --   -0.50409  -0.50119  -0.48204  -0.46471  -0.45091
 Alpha  occ. eigenvalues --   -0.44564  -0.43501  -0.42378  -0.41992  -0.39795
 Alpha  occ. eigenvalues --   -0.33189  -0.32952  -0.32721  -0.26151
 Alpha virt. eigenvalues --    0.05327   0.05937   0.06470   0.09514   0.13962
 Alpha virt. eigenvalues --    0.14892   0.15094   0.17000   0.18143   0.19086
 Alpha virt. eigenvalues --    0.20220   0.20507   0.22093   0.22992   0.23413
 Alpha virt. eigenvalues --    0.24026   0.24671   0.24931   0.26937   0.30133
 Alpha virt. eigenvalues --    0.31004   0.34667   0.36228   0.36653   0.37498
 Alpha virt. eigenvalues --    0.38370   0.39176   0.39406   0.40320   0.41146
 Alpha virt. eigenvalues --    0.44880   0.45032   0.47601   0.48177   0.49745
 Alpha virt. eigenvalues --    0.50126   0.51125   0.51587   0.52343   0.53596
 Alpha virt. eigenvalues --    0.54444   0.54894   0.56895   0.57569   0.58163
 Alpha virt. eigenvalues --    0.58896   0.59328   0.59750   0.61890   0.62987
 Alpha virt. eigenvalues --    0.63764   0.64885   0.65166   0.67271   0.68961
 Alpha virt. eigenvalues --    0.70025   0.71609   0.71937   0.72341   0.73071
 Alpha virt. eigenvalues --    0.73786   0.73912   0.74581   0.74887   0.76467
 Alpha virt. eigenvalues --    0.76674   0.77126   0.77776   0.77980   0.78962
 Alpha virt. eigenvalues --    0.80172   0.80421   0.81090   0.82044   0.82747
 Alpha virt. eigenvalues --    0.83426   0.83901   0.84729   0.86694   0.87868
 Alpha virt. eigenvalues --    0.89730   0.91124   0.92168   0.92740   0.93353
 Alpha virt. eigenvalues --    0.96374   1.01613   1.02304   1.04456   1.07103
 Alpha virt. eigenvalues --    1.08534   1.15315   1.16463   1.20385   1.21874
 Alpha virt. eigenvalues --    1.23264   1.25792   1.29180   1.30188   1.32775
 Alpha virt. eigenvalues --    1.33079   1.33247   1.34564   1.34960   1.36632
 Alpha virt. eigenvalues --    1.37767   1.38826   1.38910   1.39754   1.41397
 Alpha virt. eigenvalues --    1.43544   1.53637   1.56921   1.57575   1.60013
 Alpha virt. eigenvalues --    1.61827   1.63393   1.69339   1.72982   1.74967
 Alpha virt. eigenvalues --    1.76843   1.77021   1.77920   1.79983   1.81713
 Alpha virt. eigenvalues --    1.81983   1.82246   1.83047   1.83766   1.84034
 Alpha virt. eigenvalues --    1.84581   1.85120   1.85802   1.86955   1.87989
 Alpha virt. eigenvalues --    1.88941   1.89166   1.89429   1.91276   1.92550
 Alpha virt. eigenvalues --    1.94202   1.94980   1.95846   2.00429   2.00939
 Alpha virt. eigenvalues --    2.03764   2.04416   2.06989   2.07283   2.08234
 Alpha virt. eigenvalues --    2.10514   2.11989   2.13057   2.15977   2.17501
 Alpha virt. eigenvalues --    2.18097   2.19686   2.22184   2.22895   2.23023
 Alpha virt. eigenvalues --    2.23559   2.25840   2.26537   2.28018   2.28393
 Alpha virt. eigenvalues --    2.32894   2.36100   2.36654   2.38637   2.40122
 Alpha virt. eigenvalues --    2.40378   2.41940   2.43043   2.43499   2.44892
 Alpha virt. eigenvalues --    2.47707   2.47958   2.54979   2.56622   2.58280
 Alpha virt. eigenvalues --    2.64908   2.66844   2.68809   2.69824   2.71723
 Alpha virt. eigenvalues --    2.72592   2.73774   2.76528   2.77439   2.81670
 Alpha virt. eigenvalues --    2.81812   2.81961   2.82552   2.84686   2.92250
 Alpha virt. eigenvalues --    2.95138   2.96260   2.97366   2.97719   3.00976
 Alpha virt. eigenvalues --    3.02927   3.05466   3.09577   3.15863   3.19417
 Alpha virt. eigenvalues --    3.20541   3.25353   3.28808   3.39235   3.57047
 Alpha virt. eigenvalues --    3.72763   3.75841
          Condensed to atoms (all electrons):
               1          2          3          4          5          6
     1  C    4.561203   0.406694  -0.072954   0.009047  -0.073736   0.008491
     2  C    0.406694   5.210601   0.336690   0.058047   0.328731   0.058005
     3  C   -0.072954   0.336690   5.004412   0.348096   0.048731  -0.110508
     4  C    0.009047   0.058047   0.348096   5.118047  -0.115963   0.032526
     5  C   -0.073736   0.328731   0.048731  -0.115963   5.008351   0.356671
     6  C    0.008491   0.058005  -0.110508   0.032526   0.356671   5.105707
     7  C    0.000418  -0.148197   0.085553   0.299059   0.092106   0.280011
     8  N    0.000007  -0.000012   0.007296  -0.082053   0.006416  -0.073040
     9  C   -0.000000   0.000042  -0.000284   0.007837   0.000202  -0.010807
    10  C    0.000000   0.000000  -0.000005  -0.000204   0.000002  -0.000042
    11  C    0.000000  -0.000000  -0.000000  -0.000006   0.000000   0.000054
    12  C   -0.000000  -0.000000  -0.000000   0.000000   0.000000  -0.000033
    13  C    0.000000   0.000000   0.000000  -0.000002  -0.000003  -0.000233
    14  C    0.000000  -0.000031   0.000048   0.000153  -0.000490  -0.003215
    15  H    0.390197  -0.019577   0.006568  -0.000402  -0.007866   0.000649
    16  H    0.390163  -0.019603  -0.008356   0.000787   0.007057  -0.000432
    17  H    0.387207  -0.015757  -0.002818  -0.000346  -0.002941  -0.000103
    18  H   -0.013402  -0.069020   0.440129  -0.057029   0.013312  -0.001526
    19  H   -0.000231   0.015072  -0.054526   0.444440  -0.002387   0.015324
    20  H   -0.012806  -0.072243   0.013437  -0.001533   0.443242  -0.057657
    21  H   -0.000198   0.014475  -0.002304   0.014126  -0.059597   0.453752
    22  H   -0.000000  -0.000034   0.000535  -0.016317  -0.000156   0.008098
    23  H    0.000000   0.000000  -0.000001  -0.000026   0.000000  -0.000014
    24  H   -0.000000   0.000000   0.000000  -0.000000  -0.000000  -0.000000
    25  H    0.000000  -0.000000   0.000000   0.000000  -0.000000   0.000000
    26  H    0.000000   0.000000  -0.000000   0.000000  -0.000002   0.000024
    27  H    0.000000  -0.000050  -0.000014  -0.000461   0.000513   0.003900
               7          8          9         10         11         12
     1  C    0.000418   0.000007  -0.000000   0.000000   0.000000  -0.000000
     2  C   -0.148197  -0.000012   0.000042   0.000000  -0.000000  -0.000000
     3  C    0.085553   0.007296  -0.000284  -0.000005  -0.000000  -0.000000
     4  C    0.299059  -0.082053   0.007837  -0.000204  -0.000006   0.000000
     5  C    0.092106   0.006416   0.000202   0.000002   0.000000   0.000000
     6  C    0.280011  -0.073040  -0.010807  -0.000042   0.000054  -0.000033
     7  C    5.094569   0.345223  -0.040335   0.008258  -0.000324   0.000058
     8  N    0.345223   6.415455   0.361224  -0.085561   0.007367  -0.000264
     9  C   -0.040335   0.361224   5.050935   0.296437   0.093378  -0.140851
    10  C    0.008258  -0.085561   0.296437   5.158164   0.332224   0.059647
    11  C   -0.000324   0.007367   0.093378   0.332224   4.986365   0.316096
    12  C    0.000058  -0.000264  -0.140851   0.059647   0.316096   5.073035
    13  C    0.000083   0.006893   0.099691  -0.129478   0.076384   0.316124
    14  C   -0.008798  -0.077933   0.281888   0.038021  -0.124289   0.058211
    15  H    0.000011  -0.000000  -0.000000  -0.000000   0.000000  -0.000000
    16  H    0.000006  -0.000000  -0.000000  -0.000000   0.000000  -0.000000
    17  H    0.000070  -0.000000   0.000000   0.000000  -0.000000   0.000000
    18  H    0.014282  -0.000132   0.000005  -0.000000   0.000000  -0.000000
    19  H   -0.080383  -0.008669  -0.000037  -0.000045  -0.000001   0.000000
    20  H    0.014393  -0.000122  -0.000016   0.000000  -0.000000   0.000000
    21  H   -0.073321  -0.010350   0.003726  -0.000473   0.000007  -0.000064
    22  H   -0.022020   0.365632  -0.020164  -0.017890   0.000562  -0.000043
    23  H   -0.000028  -0.009478  -0.075491   0.441744  -0.054015   0.013517
    24  H    0.000005  -0.000115   0.013765  -0.060576   0.440721  -0.064662
    25  H   -0.000000   0.000008  -0.001487   0.012911  -0.065357   0.446831
    26  H   -0.000018  -0.000108   0.013793  -0.001482   0.012609  -0.066338
    27  H    0.004336  -0.011003  -0.068243   0.013695  -0.002108   0.013096
              13         14         15         16         17         18
     1  C    0.000000   0.000000   0.390197   0.390163   0.387207  -0.013402
     2  C    0.000000  -0.000031  -0.019577  -0.019603  -0.015757  -0.069020
     3  C    0.000000   0.000048   0.006568  -0.008356  -0.002818   0.440129
     4  C   -0.000002   0.000153  -0.000402   0.000787  -0.000346  -0.057029
     5  C   -0.000003  -0.000490  -0.007866   0.007057  -0.002941   0.013312
     6  C   -0.000233  -0.003215   0.000649  -0.000432  -0.000103  -0.001526
     7  C    0.000083  -0.008798   0.000011   0.000006   0.000070   0.014282
     8  N    0.006893  -0.077933  -0.000000  -0.000000  -0.000000  -0.000132
     9  C    0.099691   0.281888  -0.000000  -0.000000   0.000000   0.000005
    10  C   -0.129478   0.038021  -0.000000  -0.000000   0.000000  -0.000000
    11  C    0.076384  -0.124289   0.000000   0.000000  -0.000000   0.000000
    12  C    0.316124   0.058211  -0.000000  -0.000000   0.000000  -0.000000
    13  C    4.994059   0.328771   0.000000   0.000000  -0.000000  -0.000000
    14  C    0.328771   5.156027  -0.000000   0.000000   0.000000  -0.000000
    15  H    0.000000  -0.000000   0.629220  -0.022151  -0.020511   0.000142
    16  H    0.000000   0.000000  -0.022151   0.631438  -0.020231   0.004970
    17  H   -0.000000   0.000000  -0.020511  -0.020231   0.618399   0.000493
    18  H   -0.000000  -0.000000   0.000142   0.004970   0.000493   0.676706
    19  H    0.000000  -0.000012   0.000007  -0.000011   0.000009  -0.012953
    20  H   -0.000002   0.000026   0.004135   0.000086   0.000924  -0.000268
    21  H    0.000593   0.003302  -0.000013   0.000007   0.000007   0.000017
    22  H   -0.000134   0.008514   0.000000   0.000000  -0.000000  -0.000020
    23  H   -0.002204   0.014942   0.000000   0.000000  -0.000000   0.000000
    24  H    0.012388  -0.001482  -0.000000  -0.000000   0.000000  -0.000000
    25  H   -0.064516   0.013045   0.000000   0.000000  -0.000000   0.000000
    26  H    0.442334  -0.061031   0.000000   0.000000  -0.000000   0.000000
    27  H   -0.059292   0.451071   0.000000  -0.000000  -0.000000  -0.000001
              19         20         21         22         23         24
     1  C   -0.000231  -0.012806  -0.000198  -0.000000   0.000000  -0.000000
     2  C    0.015072  -0.072243   0.014475  -0.000034   0.000000   0.000000
     3  C   -0.054526   0.013437  -0.002304   0.000535  -0.000001   0.000000
     4  C    0.444440  -0.001533   0.014126  -0.016317  -0.000026  -0.000000
     5  C   -0.002387   0.443242  -0.059597  -0.000156   0.000000  -0.000000
     6  C    0.015324  -0.057657   0.453752   0.008098  -0.000014  -0.000000
     7  C   -0.080383   0.014393  -0.073321  -0.022020  -0.000028   0.000005
     8  N   -0.008669  -0.000122  -0.010350   0.365632  -0.009478  -0.000115
     9  C   -0.000037  -0.000016   0.003726  -0.020164  -0.075491   0.013765
    10  C   -0.000045   0.000000  -0.000473  -0.017890   0.441744  -0.060576
    11  C   -0.000001  -0.000000   0.000007   0.000562  -0.054015   0.440721
    12  C    0.000000   0.000000  -0.000064  -0.000043   0.013517  -0.064662
    13  C    0.000000  -0.000002   0.000593  -0.000134  -0.002204   0.012388
    14  C   -0.000012   0.000026   0.003302   0.008514   0.014942  -0.001482
    15  H    0.000007   0.004135  -0.000013   0.000000   0.000000  -0.000000
    16  H   -0.000011   0.000086   0.000007   0.000000   0.000000  -0.000000
    17  H    0.000009   0.000924   0.000007  -0.000000  -0.000000   0.000000
    18  H   -0.012953  -0.000268   0.000017  -0.000020   0.000000  -0.000000
    19  H    0.682859   0.000022  -0.000188   0.005141  -0.000020   0.000000
    20  H    0.000022   0.676247  -0.012603   0.000010  -0.000000   0.000000
    21  H   -0.000188  -0.012603   0.652593  -0.000207  -0.000009  -0.000001
    22  H    0.005141   0.000010  -0.000207   0.548520   0.005632  -0.000021
    23  H   -0.000020  -0.000000  -0.000009   0.005632   0.681044  -0.012484
    24  H    0.000000   0.000000  -0.000001  -0.000021  -0.012484   0.663963
    25  H    0.000000   0.000000  -0.000000  -0.000001  -0.000206  -0.011030
    26  H   -0.000000  -0.000000   0.000028   0.000011   0.000022  -0.000257
    27  H   -0.000017   0.000022  -0.002447  -0.000222  -0.000173   0.000018
              25         26         27
     1  C    0.000000   0.000000   0.000000
     2  C   -0.000000   0.000000  -0.000050
     3  C    0.000000  -0.000000  -0.000014
     4  C    0.000000   0.000000  -0.000461
     5  C   -0.000000  -0.000002   0.000513
     6  C    0.000000   0.000024   0.003900
     7  C   -0.000000  -0.000018   0.004336
     8  N    0.000008  -0.000108  -0.011003
     9  C   -0.001487   0.013793  -0.068243
    10  C    0.012911  -0.001482   0.013695
    11  C   -0.065357   0.012609  -0.002108
    12  C    0.446831  -0.066338   0.013096
    13  C   -0.064516   0.442334  -0.059292
    14  C    0.013045  -0.061031   0.451071
    15  H    0.000000   0.000000   0.000000
    16  H    0.000000   0.000000  -0.000000
    17  H   -0.000000  -0.000000  -0.000000
    18  H    0.000000   0.000000  -0.000001
    19  H    0.000000  -0.000000  -0.000017
    20  H    0.000000  -0.000000   0.000022
    21  H   -0.000000   0.000028  -0.002447
    22  H   -0.000001   0.000011  -0.000222
    23  H   -0.000206   0.000022  -0.000173
    24  H   -0.011030  -0.000257   0.000018
    25  H    0.665201  -0.011107  -0.000188
    26  H   -0.011107   0.663754  -0.012183
    27  H   -0.000188  -0.012183   0.649642
 Mulliken charges:
               1
     1  C    0.019901
     2  C   -0.083834
     3  C   -0.039725
     4  C   -0.057825
     5  C   -0.042193
     6  C   -0.065602
     7  C    0.134982
     8  N   -0.156678
     9  C    0.134794
    10  C   -0.065346
    11  C   -0.019669
    12  C   -0.024360
    13  C   -0.021459
    14  C   -0.076740
    15  H    0.039592
    16  H    0.036271
    17  H    0.055600
    18  H    0.004293
    19  H   -0.003396
    20  H    0.004705
    21  H    0.019145
    22  H    0.134572
    23  H   -0.002753
    24  H    0.019767
    25  H    0.015896
    26  H    0.019951
    27  H    0.020110
 Sum of Mulliken charges =  -0.00000
 Mulliken charges with hydrogens summed into heavy atoms:
               1
     1  C    0.151364
     2  C   -0.083834
     3  C   -0.035431
     4  C   -0.061221
     5  C   -0.037488
     6  C   -0.046457
     7  C    0.134982
     8  N   -0.022105
     9  C    0.134794
    10  C   -0.068099
    11  C    0.000098
    12  C   -0.008465
    13  C   -0.001507
    14  C   -0.056631
 APT charges:
               1
     1  C    0.063592
     2  C   -0.044583
     3  C    0.020734
     4  C   -0.177861
     5  C    0.042933
     6  C   -0.164322
     7  C    0.641363
     8  N   -1.046164
     9  C    0.693183
    10  C   -0.219926
    11  C    0.079274
    12  C   -0.197739
    13  C    0.102336
    14  C   -0.195629
    15  H   -0.013415
    16  H   -0.013652
    17  H   -0.034119
    18  H    0.022135
    19  H    0.031905
    20  H    0.024791
    21  H    0.049924
    22  H    0.156015
    23  H    0.034226
    24  H    0.027199
    25  H    0.031955
    26  H    0.029789
    27  H    0.056054
 Sum of APT charges =  -0.00000
 APT charges with hydrogens summed into heavy atoms:
               1
     1  C    0.002406
     2  C   -0.044583
     3  C    0.042870
     4  C   -0.145956
     5  C    0.067724
     6  C   -0.114398
     7  C    0.641363
     8  N   -0.890149
     9  C    0.693183
    10  C   -0.185700
    11  C    0.106473
    12  C   -0.165784
    13  C    0.132126
    14  C   -0.139575
 Electronic spatial extent (au):  <R**2>=           3781.5820
 Charge=             -0.0000 electrons
 Dipole moment (field-independent basis, Debye):
    X=              0.5308    Y=              0.7552    Z=              0.0704  Tot=              0.9257
 Quadrupole moment (field-independent basis, Debye-Ang):
   XX=            -75.9908   YY=            -73.9815   ZZ=            -86.8364
   XY=             -1.1892   XZ=             -1.5773   YZ=              0.0654
 Traceless Quadrupole moment (field-independent basis, Debye-Ang):
   XX=              2.9454   YY=              4.9547   ZZ=             -7.9002
   XY=             -1.1892   XZ=             -1.5773   YZ=              0.0654
 Octapole moment (field-independent basis, Debye-Ang**2):
  XXX=              8.7475  YYY=             10.3570  ZZZ=              0.6991  XYY=             -3.4789
  XXY=             -2.8365  XXZ=              3.8522  XZZ=              5.3435  YZZ=             -0.0828
  YYZ=             -1.9347  XYZ=            -13.6782
 Hexadecapole moment (field-independent basis, Debye-Ang**3):
 XXXX=          -4159.8659 YYYY=           -564.1652 ZZZZ=           -205.2015 XXXY=              6.1482
 XXXZ=            -46.7753 YYYX=             -8.1376 YYYZ=              2.2746 ZZZX=             -0.2374
 ZZZY=             -0.3709 XXYY=           -803.4183 XXZZ=           -809.9720 YYZZ=           -131.9165
 XXYZ=             10.2431 YYXZ=             -0.3298 ZZXY=             -2.4586
 N-N= 7.853227920044D+02 E-N=-2.860205963217D+03  KE= 5.510011390686D+02
  Exact polarizability:     233.330       1.214     137.345      -8.245      -0.029      81.373
 Approx polarizability:     214.733       1.428     171.679     -10.922      -0.488     102.643
   1 Symmetry operations used in ECPInt.
 ECPInt:  NShTT=    7626 NPrTT=   27482 LenC2=    7045 LenP2D=   18659.
 LDataN:  DoStor=T MaxTD1= 6 Len=  172
 Calling FoFJK, ICntrl=    100127 FMM=F ISym2X=0 I1Cent= 0 IOpClX= 0 NMat=1 NMatS=1 NMatT=0.
 ***** Axes restored to original set *****
 -------------------------------------------------------------------
 Center     Atomic                   Forces (Hartrees/Bohr)
 Number     Number              X              Y              Z
 -------------------------------------------------------------------
      1        6           0.000000813    0.000007450   -0.000000945
      2        6          -0.000002139   -0.000030412    0.000013366
      3        6          -0.000008533    0.000016201   -0.000008094
      4        6           0.000016447    0.000007726    0.000003028
      5        6           0.000009842    0.000006523    0.000001961
      6        6          -0.000009214    0.000002969   -0.000002703
      7        6          -0.000082269    0.000013369    0.000001112
      8        7           0.000010573   -0.000031008   -0.000004412
      9        6           0.000065892    0.000033218    0.000010522
     10        6           0.000010151    0.000010728    0.000000807
     11        6           0.000003012    0.000000443   -0.000000600
     12        6          -0.000009866   -0.000003863    0.000000494
     13        6           0.000003006   -0.000002583   -0.000005580
     14        6          -0.000006142   -0.000007160   -0.000003789
     15        1          -0.000000172   -0.000003841   -0.000005033
     16        1           0.000007027    0.000004819   -0.000001584
     17        1           0.000000712   -0.000000925    0.000002569
     18        1          -0.000000538    0.000001045    0.000000489
     19        1          -0.000001026    0.000004575   -0.000001231
     20        1          -0.000000032   -0.000000643    0.000000603
     21        1          -0.000001833   -0.000003908    0.000005958
     22        1          -0.000003667   -0.000020811   -0.000001276
     23        1           0.000000032    0.000000492    0.000000300
     24        1          -0.000002872    0.000002182    0.000001364
     25        1          -0.000004408   -0.000001747   -0.000001036
     26        1           0.000000494    0.000000523   -0.000000342
     27        1           0.000004710   -0.000005362   -0.000005948
 -------------------------------------------------------------------
 Cartesian Forces:  Max     0.000082269 RMS     0.000014493
 FormGI is forming the generalized inverse of G from B-inverse, IUseBI=4.

 GradGradGradGradGradGradGradGradGradGradGradGradGradGradGradGradGradGrad
 Berny optimization.
 Internal  Forces:  Max     0.000074984 RMS     0.000010642
 Search for a local minimum.
 Step number   1 out of a maximum of  145
 All quantities printed in internal units (Hartrees-Bohrs-Radians)
 Mixed Optimization -- En-DIIS/RFO-DIIS
 Second derivative matrix not updated -- analytic derivatives used.
 ITU=  0
     Eigenvalues ---   -0.00005   0.00191   0.00331   0.01149   0.01627
     Eigenvalues ---    0.01692   0.01796   0.01831   0.01873   0.02023
     Eigenvalues ---    0.02104   0.02330   0.02348   0.02439   0.02539
     Eigenvalues ---    0.02609   0.02703   0.02806   0.02882   0.02942
     Eigenvalues ---    0.03102   0.03207   0.05607   0.05794   0.10996
     Eigenvalues ---    0.11485   0.11525   0.11707   0.11773   0.11887
     Eigenvalues ---    0.12126   0.12176   0.12555   0.12688   0.12982
     Eigenvalues ---    0.14251   0.14514   0.17896   0.18419   0.19059
     Eigenvalues ---    0.19224   0.19338   0.19530   0.20178   0.21485
     Eigenvalues ---    0.21999   0.28391   0.31185   0.32772   0.33986
     Eigenvalues ---    0.34643   0.34737   0.35578   0.35945   0.36083
     Eigenvalues ---    0.36132   0.36218   0.36316   0.36344   0.36606
     Eigenvalues ---    0.36759   0.38117   0.38671   0.40906   0.43067
     Eigenvalues ---    0.43474   0.46565   0.48295   0.48616   0.48752
     Eigenvalues ---    0.49274   0.49534   0.52251   0.53108   0.56159
 RFO step:  Lambda=-5.21920023D-05 EMin=-5.12770710D-05
 I=     1 Eig=   -5.13D-05 Dot1= -4.15D-06
 I=     1 Stepn= -6.00D-01 RXN=   6.00D-01 EDone=F
 Mixed    1 eigenvectors in step.  Raw Step.Grad=  4.15D-06.
 RFO eigenvector is Hessian eigenvector with negative curvature.
 Taking step of  6.00D-01 in eigenvector direction(s).  Step.Grad=  9.94D-06.
 Linear search not attempted -- first point.
 Iteration  1 RMS(Cart)=  0.05613186 RMS(Int)=  0.01120482
 Iteration  2 RMS(Cart)=  0.01455122 RMS(Int)=  0.00033638
 Iteration  3 RMS(Cart)=  0.00036292 RMS(Int)=  0.00000169
 Iteration  4 RMS(Cart)=  0.00000021 RMS(Int)=  0.00000168
 Variable       Old X    -DE/DX   Delta X   Delta X   Delta X     New X
                                 (Linear)    (Quad)   (Total)
    R1        2.84750   0.00001   0.00000  -0.00000  -0.00000   2.84750
    R2        2.07831   0.00000   0.00000   0.00122   0.00122   2.07953
    R3        2.07798   0.00001   0.00000  -0.00100  -0.00100   2.07698
    R4        2.08344   0.00000   0.00000  -0.00026  -0.00026   2.08318
    R5        2.64291   0.00002   0.00000  -0.00219  -0.00219   2.64071
    R6        2.64390  -0.00000   0.00000   0.00219   0.00219   2.64609
    R7        2.62861  -0.00001   0.00000   0.00209   0.00209   2.63070
    R8        2.06657   0.00000   0.00000  -0.00020  -0.00020   2.06637
    R9        2.65019   0.00001   0.00000  -0.00195  -0.00195   2.64823
   R10        2.06595   0.00000   0.00000  -0.00005  -0.00005   2.06590
   R11        2.62949   0.00001   0.00000  -0.00211  -0.00211   2.62739
   R12        2.06678   0.00000   0.00000   0.00021   0.00021   2.06700
   R13        2.65110   0.00000   0.00000   0.00196   0.00196   2.65306
   R14        2.06140   0.00001   0.00000   0.00010   0.00010   2.06151
   R15        2.63816  -0.00007   0.00000   0.00005   0.00005   2.63821
   R16        2.63001  -0.00007   0.00000  -0.00004  -0.00004   2.62998
   R17        1.90946  -0.00002   0.00000  -0.00000  -0.00000   1.90946
   R18        2.65604  -0.00000   0.00000   0.00001   0.00001   2.65605
   R19        2.65456   0.00002   0.00000  -0.00002  -0.00002   2.65454
   R20        2.62801   0.00001   0.00000  -0.00002  -0.00002   2.62799
   R21        2.06615   0.00000   0.00000  -0.00001  -0.00001   2.06615
   R22        2.63546   0.00001   0.00000   0.00002   0.00002   2.63548
   R23        2.06450   0.00000   0.00000  -0.00000  -0.00000   2.06450
   R24        2.63429   0.00001   0.00000  -0.00002  -0.00002   2.63427
   R25        2.06249   0.00000   0.00000  -0.00000  -0.00000   2.06249
   R26        2.63134   0.00001   0.00000   0.00002   0.00002   2.63137
   R27        2.06472  -0.00000   0.00000   0.00000   0.00000   2.06472
   R28        2.06089   0.00001   0.00000   0.00000   0.00000   2.06089
    A1        1.94514  -0.00000   0.00000  -0.00048  -0.00048   1.94466
    A2        1.94508   0.00000   0.00000  -0.00005  -0.00005   1.94503
    A3        1.93965   0.00000   0.00000   0.00042   0.00041   1.94006
    A4        1.88380  -0.00000   0.00000  -0.00063  -0.00063   1.88317
    A5        1.87282   0.00000   0.00000  -0.00190  -0.00190   1.87092
    A6        1.87396  -0.00000   0.00000   0.00266   0.00266   1.87662
    A7        2.11977  -0.00001   0.00000   0.00598   0.00598   2.12575
    A8        2.11714   0.00002   0.00000  -0.00599  -0.00599   2.11115
    A9        2.04596  -0.00000   0.00000   0.00008   0.00008   2.04604
   A10        2.12110   0.00000   0.00000  -0.00000  -0.00000   2.12110
   A11        2.08591  -0.00000   0.00000   0.00015   0.00015   2.08606
   A12        2.07606  -0.00000   0.00000  -0.00014  -0.00014   2.07591
   A13        2.10907   0.00000   0.00000  -0.00006  -0.00006   2.10901
   A14        2.09117  -0.00000   0.00000  -0.00040  -0.00040   2.09078
   A15        2.08291  -0.00000   0.00000   0.00046   0.00046   2.08337
   A16        2.12835   0.00000   0.00000  -0.00007  -0.00007   2.12828
   A17        2.08336  -0.00000   0.00000  -0.00023  -0.00023   2.08313
   A18        2.07137  -0.00000   0.00000   0.00029   0.00029   2.07166
   A19        2.10101  -0.00000   0.00000  -0.00003  -0.00003   2.10098
   A20        2.08867  -0.00000   0.00000   0.00067   0.00067   2.08933
   A21        2.09338   0.00000   0.00000  -0.00064  -0.00064   2.09274
   A22        2.06062   0.00000   0.00000   0.00007   0.00007   2.06069
   A23        2.08015  -0.00001   0.00000   0.00114   0.00114   2.08128
   A24        2.14169   0.00001   0.00000  -0.00126  -0.00126   2.14044
   A25        2.24667   0.00002   0.00000  -0.00041  -0.00041   2.24626
   A26        2.01816  -0.00000   0.00000   0.00011   0.00011   2.01828
   A27        2.01791  -0.00001   0.00000   0.00020   0.00020   2.01811
   A28        2.07342  -0.00003   0.00000   0.00007   0.00007   2.07349
   A29        2.14247   0.00003   0.00000  -0.00006  -0.00006   2.14242
   A30        2.06666   0.00000   0.00000  -0.00000  -0.00000   2.06665
   A31        2.10805   0.00000   0.00000  -0.00002  -0.00002   2.10803
   A32        2.08122  -0.00000   0.00000  -0.00001  -0.00001   2.08121
   A33        2.09390  -0.00000   0.00000   0.00003   0.00003   2.09393
   A34        2.10491   0.00000   0.00000   0.00002   0.00002   2.10493
   A35        2.08166  -0.00000   0.00000  -0.00001  -0.00001   2.08165
   A36        2.09656  -0.00000   0.00000  -0.00001  -0.00001   2.09655
   A37        2.07443  -0.00000   0.00000  -0.00000  -0.00000   2.07443
   A38        2.10434   0.00000   0.00000   0.00000   0.00000   2.10434
   A39        2.10441   0.00000   0.00000   0.00000   0.00000   2.10441
   A40        2.11312   0.00000   0.00000  -0.00002  -0.00002   2.11310
   A41        2.09350  -0.00000   0.00000   0.00001   0.00001   2.09351
   A42        2.07646  -0.00000   0.00000   0.00001   0.00001   2.07647
   A43        2.09901  -0.00000   0.00000   0.00002   0.00002   2.09903
   A44        2.09323   0.00000   0.00000   0.00004   0.00004   2.09327
   A45        2.09073  -0.00000   0.00000  -0.00006  -0.00006   2.09067
    D1       -2.57611   0.00000   0.00000   0.24594   0.24594  -2.33017
    D2        0.59301   0.00000   0.00000   0.24294   0.24294   0.83595
    D3       -0.47042   0.00000   0.00000   0.24477   0.24477  -0.22565
    D4        2.69870   0.00000   0.00000   0.24177   0.24177   2.94047
    D5        1.61903   0.00000   0.00000   0.24838   0.24838   1.86741
    D6       -1.49504   0.00000   0.00000   0.24539   0.24539  -1.24965
    D7       -3.12907  -0.00000   0.00000  -0.00368  -0.00368  -3.13276
    D8        0.02908  -0.00000   0.00000  -0.00385  -0.00385   0.02522
    D9       -0.01393  -0.00000   0.00000  -0.00089  -0.00089  -0.01482
   D10       -3.13896  -0.00000   0.00000  -0.00106  -0.00106  -3.14003
   D11        3.11068   0.00000   0.00000   0.00367   0.00366   3.11433
   D12       -0.01514   0.00000   0.00000   0.00432   0.00431  -0.01083
   D13       -0.00451   0.00000   0.00000   0.00070   0.00070  -0.00381
   D14       -3.13033   0.00000   0.00000   0.00134   0.00135  -3.12898
   D15        0.01665  -0.00000   0.00000   0.00046   0.00046   0.01711
   D16       -3.11596   0.00000   0.00000  -0.00017  -0.00017  -3.11614
   D17       -3.14141  -0.00000   0.00000   0.00064   0.00063  -3.14077
   D18        0.00917  -0.00000   0.00000  -0.00000  -0.00000   0.00916
   D19       -0.00062   0.00000   0.00000   0.00019   0.00019  -0.00042
   D20        3.10108  -0.00000   0.00000  -0.00108  -0.00108   3.10001
   D21        3.13204   0.00000   0.00000   0.00082   0.00082   3.13286
   D22       -0.04945  -0.00000   0.00000  -0.00045  -0.00045  -0.04989
   D23        0.02040  -0.00000   0.00000  -0.00007  -0.00007   0.02033
   D24       -3.10426   0.00000   0.00000   0.00010   0.00010  -3.10415
   D25       -3.13686  -0.00000   0.00000  -0.00072  -0.00072  -3.13758
   D26        0.02167   0.00000   0.00000  -0.00055  -0.00055   0.02112
   D27       -0.01745  -0.00000   0.00000  -0.00039  -0.00039  -0.01784
   D28       -3.11765   0.00000   0.00000   0.00087   0.00087  -3.11678
   D29        3.10716  -0.00000   0.00000  -0.00055  -0.00055   3.10662
   D30        0.00696   0.00000   0.00000   0.00071   0.00071   0.00767
   D31        2.64956   0.00000   0.00000  -0.00217  -0.00217   2.64739
   D32       -0.45841   0.00000   0.00000   0.00134   0.00134  -0.45707
   D33       -0.53387  -0.00000   0.00000  -0.00346  -0.00346  -0.53734
   D34        2.64135  -0.00000   0.00000   0.00005   0.00005   2.64139
   D35        2.77488  -0.00000   0.00000   0.00174   0.00174   2.77662
   D36       -0.40575  -0.00000   0.00000   0.00219   0.00219  -0.40356
   D37       -0.40034  -0.00000   0.00000  -0.00177  -0.00177  -0.40210
   D38        2.70222  -0.00000   0.00000  -0.00132  -0.00132   2.70090
   D39        3.10640  -0.00000   0.00000   0.00063   0.00063   3.10703
   D40       -0.04106  -0.00000   0.00000   0.00055   0.00055  -0.04051
   D41        0.00213   0.00000   0.00000   0.00021   0.00021   0.00233
   D42        3.13786   0.00000   0.00000   0.00012   0.00012   3.13798
   D43       -3.11930   0.00000   0.00000  -0.00079  -0.00079  -3.12008
   D44       -0.00002   0.00000   0.00000  -0.00080  -0.00080  -0.00083
   D45       -0.01660  -0.00000   0.00000  -0.00034  -0.00034  -0.01693
   D46        3.10268  -0.00000   0.00000  -0.00036  -0.00036   3.10232
   D47        0.01410  -0.00000   0.00000   0.00003   0.00003   0.01413
   D48       -3.13927  -0.00000   0.00000   0.00001   0.00001  -3.13927
   D49       -3.12159  -0.00000   0.00000   0.00012   0.00012  -3.12147
   D50        0.00823  -0.00000   0.00000   0.00009   0.00009   0.00832
   D51       -0.01560  -0.00000   0.00000  -0.00014  -0.00014  -0.01574
   D52        3.13073   0.00000   0.00000  -0.00009  -0.00009   3.13064
   D53        3.13787  -0.00000   0.00000  -0.00012  -0.00012   3.13775
   D54        0.00102   0.00000   0.00000  -0.00006  -0.00006   0.00095
   D55        0.00099   0.00000   0.00000   0.00001   0.00001   0.00100
   D56       -3.12474   0.00000   0.00000   0.00009   0.00009  -3.12465
   D57        3.13785   0.00000   0.00000  -0.00004  -0.00004   3.13781
   D58        0.01211  -0.00000   0.00000   0.00004   0.00004   0.01215
   D59        0.01524  -0.00000   0.00000   0.00023   0.00023   0.01547
   D60       -3.10407   0.00000   0.00000   0.00025   0.00025  -3.10382
   D61        3.14112   0.00000   0.00000   0.00016   0.00016   3.14128
   D62        0.02182   0.00000   0.00000   0.00017   0.00017   0.02199
         Item               Value     Threshold  Converged?
 Maximum Force            0.000075     0.000450     YES
 RMS     Force            0.000011     0.000300     YES
 Maximum Displacement     0.425738     0.001800     NO 
 RMS     Displacement     0.068771     0.001200     NO 
 Predicted change in Energy=-1.337973D-05
 GradGradGradGradGradGradGradGradGradGradGradGradGradGradGradGradGradGrad

                          Input orientation:                          
 ---------------------------------------------------------------------
 Center     Atomic      Atomic             Coordinates (Angstroms)
 Number     Number       Type             X           Y           Z
 ---------------------------------------------------------------------
      1          6           0        4.875709   -0.794523    0.067462
      2          6           0        3.452847   -0.299454    0.037348
      3          6           0        3.119277    0.950826   -0.490168
      4          6           0        1.804142    1.407041   -0.505744
      5          6           0        2.410752   -1.069756    0.567799
      6          6           0        1.095431   -0.619341    0.579586
      7          6           0        0.767871    0.630038    0.029316
      8          7           0       -0.531301    1.140955    0.041672
      9          6           0       -1.738570    0.449910   -0.001396
     10          6           0       -2.902183    1.090343    0.458325
     11          6           0       -4.136894    0.453469    0.396219
     12          6           0       -4.242881   -0.842150   -0.108903
     13          6           0       -3.092405   -1.481291   -0.568385
     14          6           0       -1.853225   -0.847482   -0.527580
     15          1           0        4.947629   -1.832805   -0.289981
     16          1           0        5.530172   -0.174697   -0.561420
     17          1           0        5.282691   -0.773540    1.091741
     18          1           0        3.903691    1.582898   -0.915455
     19          1           0        1.571871    2.379881   -0.947081
     20          1           0        2.634465   -2.049071    1.000590
     21          1           0        0.317337   -1.234514    1.033678
     22          1           0       -0.604717    2.148648    0.054312
     23          1           0       -2.828122    2.099022    0.873671
     24          1           0       -5.025799    0.975120    0.758516
     25          1           0       -5.210640   -1.345263   -0.147953
     26          1           0       -3.157394   -2.490335   -0.982371
     27          1           0       -0.972624   -1.353330   -0.925088
 ---------------------------------------------------------------------
                    Distance matrix (angstroms):
                    1          2          3          4          5
     1  C    0.000000
     2  C    1.506830   0.000000
     3  C    2.538158   1.397406   0.000000
     4  C    3.822299   2.434195   1.392104   0.000000
     5  C    2.530238   1.400252   2.388316   2.766766   0.000000
     6  C    3.818830   2.440032   2.775923   2.405501   1.390353
     7  C    4.348007   2.841324   2.429379   1.401386   2.424525
     8  N    5.743040   4.236536   3.694012   2.413455   3.717490
     9  C    6.730679   5.245365   4.908002   3.704224   4.455360
    10  C    8.012559   6.518832   6.097302   4.814481   5.736313
    11  C    9.104537   7.635434   7.327010   6.084304   6.724680
    12  C    9.120419   7.716225   7.586929   6.463964   6.691827
    13  C    8.022892   6.678621   6.671305   5.685294   5.634271
    14  C    6.755401   5.364129   5.287825   4.296474   4.408034
    15  H    1.100440   2.166259   3.336397   4.519365   2.784560
    16  H    1.099090   2.165495   2.661634   4.048246   3.436139
    17  H    1.102372   2.164447   3.186885   4.405360   2.934330
    18  H    2.750104   2.157393   1.093476   2.146367   3.386072
    19  H    4.692705   3.418481   2.155327   1.093227   3.859867
    20  H    2.732727   2.158412   3.384787   3.860465   1.093807
    21  H    4.680376   3.420297   3.866353   3.399739   2.150947
    22  H    6.220732   4.738916   3.949604   2.581908   4.440140
    23  H    8.268711   6.775153   6.208862   4.882570   6.130294
    24  H   10.082116   8.604189   8.240271   6.959383   7.714932
    25  H   10.103671   8.728349   8.647350   7.543896   7.659884
    26  H    8.276996   7.038116   7.174988   6.327208   5.951917
    27  H    5.958223   4.649918   4.716137   3.937758   3.708957
                    6          7          8          9         10
     6  C    0.000000
     7  C    1.403938   0.000000
     8  N    2.456472   1.396079   0.000000
     9  C    3.084218   2.513092   1.391724   0.000000
    10  C    4.349557   3.723604   2.407746   1.405523   0.000000
    11  C    5.344322   4.921637   3.687634   2.431064   1.390675
    12  C    5.387136   5.224373   4.210843   2.820027   2.419452
    13  C    4.427050   4.440348   3.715858   2.425672   2.775539
    14  C    3.157917   3.059958   2.454672   1.404722   2.414019
    15  H    4.131351   4.861885   6.242749   7.071019   8.409774
    16  H    4.600710   4.865808   6.231864   7.316992   8.587481
    17  H    4.221282   4.845863   6.210511   7.210401   8.418281
    18  H    3.869280   3.410851   4.558570   5.827029   6.960590
    19  H    3.398976   2.159101   2.633610   3.946913   4.863665
    20  H    2.142427   3.406637   4.595418   5.135398   6.387835
    21  H    1.090903   2.165244   2.710557   2.852265   4.012643
    22  H    3.290620   2.047144   1.010443   2.043144   2.561560
    23  H    4.782285   3.975174   2.624023   2.161582   1.093358
    24  H    6.328016   5.849566   4.554325   3.414556   2.147821
    25  H    6.389274   6.298876   5.302212   3.911445   3.410091
    26  H    4.901719   5.115461   4.596879   3.408873   3.868074
    27  H    2.660759   2.806058   2.711246   2.166000   3.407135
                   11         12         13         14         15
    11  C    0.000000
    12  C    1.394637   0.000000
    13  C    2.400982   1.393994   0.000000
    14  C    2.785862   2.426061   1.392460   0.000000
    15  H    9.392895   9.245520   8.052528   6.875967   0.000000
    16  H    9.734672   9.806265   8.721014   7.414064   1.778302
    17  H    9.524594   9.601186   8.567332   7.317717   1.772982
    18  H    8.224786   8.538033   7.645592   6.260933   3.626024
    19  H    6.172967   6.700400   6.066921   4.724737   5.438220
    20  H    7.244258   7.070043   5.964989   4.890652   2.657644
    21  H    4.805811   4.717523   3.775427   2.701604   4.852795
    22  H    3.932786   4.712510   4.444412   3.297601   6.840983
    23  H    2.156082   3.408444   3.868852   3.405263   8.790656
    24  H    1.092488   2.160520   3.395973   3.878292  10.414079
    25  H    2.164368   1.091424   2.163836   3.415280  10.170954
    26  H    3.394984   2.158180   1.092602   2.146312   8.161075
    27  H    3.875949   3.409111   2.153389   1.090575   5.973496
                   16         17         18         19         20
    16  H    0.000000
    17  H    1.775614   0.000000
    18  H    2.420728   3.388699   0.000000
    19  H    4.726812   5.279304   2.464461   0.000000
    20  H    3.786592   2.940815   4.298065   4.953599   0.000000
    21  H    5.553486   4.987044   4.959724   4.308261   2.456354
    22  H    6.588925   6.654098   4.646102   2.407030   5.385962
    23  H    8.780112   8.607233   6.984601   4.770111   6.860221
    24  H   10.700133  10.461062   9.105348   6.957849   8.239173
    25  H   10.812319  10.581764   9.603865   7.779316   7.959910
    26  H    9.000733   8.859140   8.151971   6.788681   6.137791
    27  H    6.618746   6.597934   5.692098   4.517942   4.147696
                   21         22         23         24         25
    21  H    0.000000
    22  H    3.640760   0.000000
    23  H    4.586063   2.370093   0.000000
    24  H    5.788549   4.628070   2.471073   0.000000
    25  H    5.653941   5.784709   4.310825   2.498005   0.000000
    26  H    4.208954   5.395464   4.961402   4.304765   2.494648
    27  H    2.348379   3.654919   4.312440   4.968343   4.308687
                   26         27
    26  H    0.000000
    27  H    2.463591   0.000000
 Stoichiometry    C13H13N
 Framework group  C1[X(C13H13N)]
 Deg. of freedom    75
 Full point group                 C1      NOp   1
 Largest Abelian subgroup         C1      NOp   1
 Largest concise Abelian subgroup C1      NOp   1
                         Standard orientation:                         
 ---------------------------------------------------------------------
 Center     Atomic      Atomic             Coordinates (Angstroms)
 Number     Number       Type             X           Y           Z
 ---------------------------------------------------------------------
      1          6           0        4.875163   -0.797310    0.063562
      2          6           0        3.452445   -0.301573    0.038015
      3          6           0        3.119725    0.955196   -0.474403
      4          6           0        1.804709    1.411878   -0.485777
      5          6           0        2.409603   -1.078113    0.557796
      6          6           0        1.094370   -0.627569    0.573711
      7          6           0        0.767684    0.628579    0.038536
      8          7           0       -0.531387    1.139610    0.055785
      9          6           0       -1.738761    0.449432    0.002889
     10          6           0       -2.902731    1.084420    0.469212
     11          6           0       -4.137515    0.448651    0.397918
     12          6           0       -4.243240   -0.840616   -0.123259
     13          6           0       -3.092407   -1.474312   -0.589341
     14          6           0       -1.853132   -0.841346   -0.539380
     15          1           0        4.947241   -1.831121   -0.306580
     16          1           0        5.530447   -0.169929   -0.556918
     17          1           0        5.281037   -0.789056    1.088463
     18          1           0        3.904741    1.592281   -0.891012
     19          1           0        1.573133    2.390141   -0.915334
     20          1           0        2.632628   -2.062743    0.978718
     21          1           0        0.315647   -1.248113    1.019338
     22          1           0       -0.604593    2.147087    0.080771
     23          1           0       -2.828898    2.087882    0.897046
     24          1           0       -5.026698    0.966002    0.765657
     25          1           0       -5.211068   -1.342982   -0.169559
     26          1           0       -3.157170   -2.478158   -1.015811
     27          1           0       -0.972212   -1.342460   -0.942142
 ---------------------------------------------------------------------
 Rotational constants (GHZ):           2.3022740           0.3140943           0.2871779
 Standard basis: def2SVP (5D, 7F)
 There are   275 symmetry adapted cartesian basis functions of A   symmetry.
 There are   261 symmetry adapted basis functions of A   symmetry.
   261 basis functions,   441 primitive gaussians,   275 cartesian basis functions
    49 alpha electrons       49 beta electrons
       nuclear repulsion energy       785.3891315073 Hartrees.
 NAtoms=   27 NActive=   27 NUniq=   27 SFac= 1.00D+00 NAtFMM=   60 NAOKFM=F Big=F
 Integral buffers will be    131072 words long.
 Raffenetti 2 integral format.
 Two-electron integral symmetry is turned on.
 Nuclear repulsion after empirical dispersion term =      785.3733121214 Hartrees.
 One-electron integrals computed using PRISM.
   1 Symmetry operations used in ECPInt.
 ECPInt:  NShTT=    7626 NPrTT=   27482 LenC2=    7048 LenP2D=   18662.
 LDataN:  DoStor=T MaxTD1= 4 Len=   56
 NBasis=   261 RedAO= T EigKep=  2.54D-04  NBF=   261
 NBsUse=   261 1.00D-06 EigRej= -1.00D+00 NBFU=   261
 Initial guess from the checkpoint file:  "prod_3i_1.chk"
 B after Tr=     0.000000   -0.000000    0.000000
         Rot=    0.999996   -0.002741    0.000173   -0.000057 Ang=  -0.31 deg.
 ExpMin= 1.22D-01 ExpMax= 1.71D+03 ExpMxC= 2.58D+02 IAcc=3 IRadAn=         5 AccDes= 0.00D+00
 Harris functional with IExCor= 4639 and IRadAn=       5 diagonalized for initial guess.
 HarFok:  IExCor= 4639 AccDes= 0.00D+00 IRadAn=         5 IDoV= 1 UseB2=F ITyADJ=14
 ICtDFT=  3500011 ScaDFX=  1.000000  1.000000  1.000000  1.000000
 FoFCou: FMM=F IPFlag=           0 FMFlag=      100000 FMFlg1=           0
[...]
 Alpha virt. eigenvalues --    5.92206   5.98007   6.14611   6.24033  22.19501
 Alpha virt. eigenvalues --   22.26799  22.48644  22.68792  22.69721  22.80307
 Alpha virt. eigenvalues --   22.82091  22.82489  22.84210  22.91898  23.04113
 Alpha virt. eigenvalues --   23.32035  23.41882  32.85592
          Condensed to atoms (all electrons):
               1          2          3          4          5          6
     1  C    4.956959   0.301470  -0.074604   0.015887  -0.079197   0.015736
     2  C    0.301470   4.993380   0.454973   0.006712   0.429446   0.035349
     3  C   -0.074604   0.454973   5.037863   0.424082   0.002268  -0.090637
     4  C    0.015887   0.006712   0.424082   5.144432  -0.074214   0.000710
     5  C   -0.079197   0.429446   0.002268  -0.074214   5.048320   0.392504
     6  C    0.015736   0.035349  -0.090637   0.000710   0.392504   5.254953
     7  C   -0.004237  -0.089537  -0.026469   0.386005   0.011337   0.367146
     8  N    0.000009   0.002474   0.011990  -0.016484   0.000937  -0.033786
     9  C   -0.000005  -0.000559   0.001863   0.010166   0.000647  -0.004438
    10  C    0.000000   0.000069  -0.000354  -0.009080  -0.000256   0.010914
    11  C   -0.000000   0.000008  -0.000030  -0.000347  -0.000030   0.000977
    12  C   -0.000000  -0.000004   0.000010   0.000065   0.000013  -0.000466
    13  C   -0.000000   0.000025  -0.000052  -0.000077   0.000141   0.003378
    14  C    0.000004  -0.000510   0.000839   0.011754   0.003996  -0.018902
    15  H    0.393190  -0.023227  -0.004700   0.000893  -0.007702   0.000406
    16  H    0.427325  -0.056775  -0.004813   0.000598   0.008068  -0.000902
    17  H    0.426472  -0.056699   0.005571  -0.001018  -0.002390   0.001058
    18  H   -0.007245  -0.065388   0.437634  -0.047919   0.013655  -0.003876
    19  H   -0.000215   0.009921  -0.026228   0.440945  -0.001596   0.004819
    20  H   -0.006979  -0.066456   0.013129  -0.003797   0.442458  -0.051921
    21  H   -0.000092   0.007964  -0.001719   0.003716  -0.033654   0.435813
    22  H   -0.000001   0.000066   0.001372   0.000649  -0.000306   0.007785
    23  H    0.000000  -0.000000   0.000000  -0.000423   0.000008   0.000248
    24  H    0.000000  -0.000000   0.000000   0.000003   0.000000  -0.000008
    25  H   -0.000000  -0.000000   0.000000   0.000000  -0.000000  -0.000003
    26  H    0.000000   0.000002  -0.000001   0.000002  -0.000010   0.000082
    27  H   -0.000001  -0.000210   0.000218  -0.000102   0.000541  -0.006389
               7          8          9         10         11         12
     1  C   -0.004237   0.000009  -0.000005   0.000000  -0.000000  -0.000000
     2  C   -0.089537   0.002474  -0.000559   0.000069   0.000008  -0.000004
     3  C   -0.026469   0.011990   0.001863  -0.000354  -0.000030   0.000010
     4  C    0.386005  -0.016484   0.010166  -0.009080  -0.000347   0.000065
     5  C    0.011337   0.000937   0.000647  -0.000256  -0.000030   0.000013
     6  C    0.367146  -0.033786  -0.004438   0.010914   0.000977  -0.000466
     7  C    4.992286   0.229873  -0.093387   0.012199   0.001145  -0.000432
     8  N    0.229873   6.529966   0.269748  -0.027616   0.008572   0.001903
     9  C   -0.093387   0.269748   4.923880   0.384800  -0.034213  -0.071715
    10  C    0.012199  -0.027616   0.384800   5.143325   0.460230   0.008095
    11  C    0.001145   0.008572  -0.034213   0.460230   4.880499   0.463525
    12  C   -0.000432   0.001903  -0.071715   0.008095   0.463525   4.948295
    13  C    0.000072   0.000368  -0.017064  -0.066433   0.000777   0.462231
    14  C   -0.002904  -0.040574   0.396469   0.009584  -0.076863   0.016941
    15  H   -0.000374  -0.000009  -0.000001   0.000000   0.000000  -0.000000
    16  H    0.000352   0.000004   0.000000  -0.000000  -0.000000  -0.000000
    17  H    0.000311   0.000000   0.000002  -0.000000  -0.000000   0.000000
    18  H    0.014500  -0.000277   0.000014   0.000003   0.000000  -0.000000
    19  H   -0.083178   0.004784   0.000762  -0.000411  -0.000002  -0.000000
    20  H    0.014770  -0.000241   0.000071   0.000002  -0.000001   0.000001
    21  H   -0.049210   0.002110   0.001793  -0.000076   0.000219  -0.000135
    22  H   -0.060824   0.401025  -0.061425  -0.000821   0.001105   0.000088
    23  H    0.000963   0.004505  -0.081316   0.438869  -0.025179   0.008139
    24  H    0.000010  -0.000272   0.015209  -0.057308   0.439590  -0.057455
    25  H   -0.000002   0.000004  -0.004076   0.012575  -0.057619   0.445160
    26  H    0.000019  -0.000208   0.013298  -0.002697   0.009978  -0.055286
    27  H    0.002710   0.000877  -0.042790   0.003199  -0.000995   0.005264
              13         14         15         16         17         18
     1  C   -0.000000   0.000004   0.393190   0.427325   0.426472  -0.007245
     2  C    0.000025  -0.000510  -0.023227  -0.056775  -0.056699  -0.065388
     3  C   -0.000052   0.000839  -0.004700  -0.004813   0.005571   0.437634
     4  C   -0.000077   0.011754   0.000893   0.000598  -0.001018  -0.047919
     5  C    0.000141   0.003996  -0.007702   0.008068  -0.002390   0.013655
     6  C    0.003378  -0.018902   0.000406  -0.000902   0.001058  -0.003876
     7  C    0.000072  -0.002904  -0.000374   0.000352   0.000311   0.014500
     8  N    0.000368  -0.040574  -0.000009   0.000004   0.000000  -0.000277
     9  C   -0.017064   0.396469  -0.000001   0.000000   0.000002   0.000014
    10  C   -0.066433   0.009584   0.000000  -0.000000  -0.000000   0.000003
    11  C    0.000777  -0.076863   0.000000  -0.000000  -0.000000   0.000000
    12  C    0.462231   0.016941  -0.000000  -0.000000   0.000000  -0.000000
    13  C    4.883006   0.444979  -0.000000   0.000000  -0.000000   0.000000
    14  C    0.444979   5.207142  -0.000003   0.000001   0.000000  -0.000009
    15  H   -0.000000  -0.000003   0.568391  -0.026898  -0.028686   0.000457
    16  H    0.000000   0.000001  -0.026898   0.553661  -0.022988   0.001228
    17  H   -0.000000   0.000000  -0.028686  -0.022988   0.553915  -0.000029
    18  H    0.000000  -0.000009   0.000457   0.001228  -0.000029   0.553648
    19  H    0.000008   0.000273   0.000006  -0.000030   0.000011  -0.008319
    20  H   -0.000014   0.000072   0.000058   0.000082   0.001548  -0.000151
    21  H    0.000664  -0.007015   0.000017   0.000001  -0.000035   0.000035
    22  H   -0.000334   0.009173   0.000000  -0.000000  -0.000000  -0.000039
    23  H   -0.001796   0.005108   0.000000  -0.000000  -0.000000   0.000000
    24  H    0.010658  -0.003306  -0.000000   0.000000   0.000000  -0.000000
    25  H   -0.059296   0.013067  -0.000000   0.000000   0.000000  -0.000000
    26  H    0.439184  -0.057015   0.000000  -0.000000  -0.000000   0.000000
    27  H   -0.027762   0.425617  -0.000001  -0.000000   0.000000  -0.000001
              19         20         21         22         23         24
     1  C   -0.000215  -0.006979  -0.000092  -0.000001   0.000000   0.000000
     2  C    0.009921  -0.066456   0.007964   0.000066  -0.000000  -0.000000
     3  C   -0.026228   0.013129  -0.001719   0.001372   0.000000   0.000000
     4  C    0.440945  -0.003797   0.003716   0.000649  -0.000423   0.000003
     5  C   -0.001596   0.442458  -0.033654  -0.000306   0.000008   0.000000
     6  C    0.004819  -0.051921   0.435813   0.007785   0.000248  -0.000008
     7  C   -0.083178   0.014770  -0.049210  -0.060824   0.000963   0.000010
     8  N    0.004784  -0.000241   0.002110   0.401025   0.004505  -0.000272
     9  C    0.000762   0.000071   0.001793  -0.061425  -0.081316   0.015209
    10  C   -0.000411   0.000002  -0.000076  -0.000821   0.438869  -0.057308
    11  C   -0.000002  -0.000001   0.000219   0.001105  -0.025179   0.439590
    12  C   -0.000000   0.000001  -0.000135   0.000088   0.008139  -0.057455
    13  C    0.000008  -0.000014   0.000664  -0.000334  -0.001796   0.010658
    14  C    0.000273   0.000072  -0.007015   0.009173   0.005108  -0.003306
    15  H    0.000006   0.000058   0.000017   0.000000   0.000000  -0.000000
    16  H   -0.000030   0.000082   0.000001  -0.000000  -0.000000   0.000000
    17  H    0.000011   0.001548  -0.000035  -0.000000  -0.000000   0.000000
    18  H   -0.008319  -0.000151   0.000035  -0.000039   0.000000  -0.000000
    19  H    0.543766   0.000042  -0.000220   0.003700  -0.000026   0.000000
    20  H    0.000042   0.550426  -0.006798   0.000017  -0.000000   0.000000
    21  H   -0.000220  -0.006798   0.487315  -0.000214   0.000010  -0.000002
    22  H    0.003700   0.000017  -0.000214   0.466052   0.004025  -0.000044
    23  H   -0.000026  -0.000000   0.000010   0.004025   0.544003  -0.008189
    24  H    0.000000   0.000000  -0.000002  -0.000044  -0.008189   0.550822
    25  H    0.000000   0.000000  -0.000000  -0.000002  -0.000135  -0.006737
    26  H   -0.000000  -0.000001   0.000072   0.000017   0.000043  -0.000176
    27  H    0.000004   0.000060  -0.005585  -0.000244  -0.000199   0.000033
              25         26         27
     1  C   -0.000000   0.000000  -0.000001
     2  C   -0.000000   0.000002  -0.000210
     3  C    0.000000  -0.000001   0.000218
     4  C    0.000000   0.000002  -0.000102
     5  C   -0.000000  -0.000010   0.000541
     6  C   -0.000003   0.000082  -0.006389
     7  C   -0.000002   0.000019   0.002710
     8  N    0.000004  -0.000208   0.000877
     9  C   -0.004076   0.013298  -0.042790
    10  C    0.012575  -0.002697   0.003199
    11  C   -0.057619   0.009978  -0.000995
    12  C    0.445160  -0.055286   0.005264
    13  C   -0.059296   0.439184  -0.027762
    14  C    0.013067  -0.057015   0.425617
    15  H   -0.000000   0.000000  -0.000001
    16  H    0.000000  -0.000000  -0.000000
    17  H    0.000000  -0.000000   0.000000
    18  H   -0.000000   0.000000  -0.000001
    19  H    0.000000  -0.000000   0.000004
    20  H    0.000000  -0.000001   0.000060
    21  H   -0.000000   0.000072  -0.005585
    22  H   -0.000002   0.000017  -0.000244
    23  H   -0.000135   0.000043  -0.000199
    24  H   -0.006737  -0.000176   0.000033
    25  H    0.548035  -0.006998  -0.000083
    26  H   -0.006998   0.547147  -0.006131
    27  H   -0.000083  -0.006131   0.485173
 Mulliken charges:
               1
     1  C   -0.364478
     2  C    0.117505
     3  C   -0.162204
     4  C   -0.293157
     5  C   -0.154985
     6  C   -0.320552
     7  C    0.376853
     8  N   -0.349682
     9  C    0.392264
    10  C   -0.318811
    11  C   -0.071347
    12  C   -0.174239
    13  C   -0.072664
    14  C   -0.337918
    15  H    0.128181
    16  H    0.121085
    17  H    0.122957
    18  H    0.112080
    19  H    0.111186
    20  H    0.113624
    21  H    0.165026
    22  H    0.229180
    23  H    0.111341
    24  H    0.117170
    25  H    0.116110
    26  H    0.118680
    27  H    0.166793
 Sum of Mulliken charges =  -0.00000
 Mulliken charges with hydrogens summed into heavy atoms:
               1
     1  C    0.007745
     2  C    0.117505
     3  C   -0.050124
     4  C   -0.181972
     5  C   -0.041361
     6  C   -0.155525
     7  C    0.376853
     8  N   -0.120502
     9  C    0.392264
    10  C   -0.207470
    11  C    0.045823
    12  C   -0.058129
    13  C    0.046016
    14  C   -0.171124
 Electronic spatial extent (au):  <R**2>=           3781.4571
 Charge=             -0.0000 electrons
 Dipole moment (field-independent basis, Debye):
    X=              0.5032    Y=              0.7331    Z=             -0.0038  Tot=              0.8892
 Quadrupole moment (field-independent basis, Debye-Ang):
   XX=            -76.6053   YY=            -74.0214   ZZ=            -87.4199
   XY=             -1.2380   XZ=             -2.0047   YZ=              0.1185
 Traceless Quadrupole moment (field-independent basis, Debye-Ang):
   XX=              2.7435   YY=              5.3275   ZZ=             -8.0710
   XY=             -1.2380   XZ=             -2.0047   YZ=              0.1185
 Octapole moment (field-independent basis, Debye-Ang**2):
  XXX=              5.1234  YYY=             11.7001  ZZZ=              0.2447  XYY=             -3.5602
  XXY=             -2.4112  XXZ=              2.9129  XZZ=              5.5148  YZZ=             -1.3110
  YYZ=             -2.0145  XYZ=            -14.2266
 Hexadecapole moment (field-independent basis, Debye-Ang**3):
 XXXX=          -4190.8268 YYYY=           -574.8559 ZZZZ=           -212.1782 XXXY=             12.6859
 XXXZ=            -55.4115 YYYX=             -3.2402 YYYZ=              1.6960 ZZZX=             -2.8561
 ZZZY=             -0.1959 XXYY=           -804.0096 XXZZ=           -823.1716 YYZZ=           -132.2933
 XXYZ=             12.6874 YYXZ=              0.4069 ZZXY=             -8.6095
 N-N= 7.853346781547D+02 E-N=-2.865226563969D+03  KE= 5.547926108765D+02
 Breneman (CHELPG) radii used.
 Read replacement radii for each type of atom:
 Atom Element Radius
    1     6    1.50
    2     6    1.50
    3     6    1.50
    4     6    1.50
    5     6    1.50
    6     6    1.50
    7     6    1.50
    8     7    1.70
    9     6    1.50
   10     6    1.50
   11     6    1.50
   12     6    1.50
   13     6    1.50
   14     6    1.50
   15     1    1.45
   16     1    1.45
   17     1    1.45
   18     1    1.45
   19     1    1.45
   20     1    1.45
   21     1    1.45
   22     1    1.45
   23     1    1.45
   24     1    1.45
   25     1    1.45
   26     1    1.45
   27     1    1.45
 Generate Potential Derived Charges using the Breneman model, NDens= 1.
 Grid spacing= 0.300 Box extension= 2.800
 NStep X,Y,Z=   56     36     27   Total possible points=       54432
 Number of Points to Fit=   17297

 **********************************************************************

            Electrostatic Properties Using The SCF Density.

 **********************************************************************

       Atomic Center    1 is at   4.871602 -0.807537  0.035097
       Atomic Center    2 is at   3.454180 -0.297152  0.057939
       Atomic Center    3 is at   3.122931  0.961052 -0.455224
       Atomic Center    4 is at   1.808104  1.414403 -0.477521
       Atomic Center    5 is at   2.410326 -1.072995  0.573590
       Atomic Center    6 is at   1.092897 -0.625261  0.578129
       Atomic Center    7 is at   0.767509  0.627923  0.037678
       Atomic Center    8 is at  -0.531469  1.138795  0.045466
       Atomic Center    9 is at  -1.738821  0.448477 -0.002594
       Atomic Center   10 is at  -2.902619  1.086841  0.459534
       Atomic Center   11 is at  -4.137718  0.451281  0.391778
       Atomic Center   12 is at  -4.243945 -0.841059 -0.121614
       Atomic Center   13 is at  -3.093261 -1.478190 -0.583416
       Atomic Center   14 is at  -1.853648 -0.845641 -0.536833
       Atomic Center   15 is at   5.067841 -1.395306 -0.876788
       Atomic Center   16 is at   5.597058  0.018570  0.055403
       Atomic Center   17 is at   5.077448 -1.460682  0.895798
       Atomic Center   18 is at   3.910821  1.602583 -0.859620
       Atomic Center   19 is at   1.578563  2.395176 -0.902579
       Atomic Center   20 is at   2.633050 -2.053561  1.003831
       Atomic Center   21 is at   0.313724 -1.244165  1.025176
       Atomic Center   22 is at  -0.604954  2.146263  0.069015
       Atomic Center   23 is at  -2.828479  2.092909  0.881172
       Atomic Center   24 is at  -5.026735  0.971317  0.756129
       Atomic Center   25 is at  -5.212027 -1.343191 -0.165203
       Atomic Center   26 is at  -3.158402 -2.484603 -1.003727
       Atomic Center   27 is at  -0.972846 -1.349734 -0.936124
   17297 points will be used for fitting atomic charges
 Fitting point charges to electrostatic potential
 Charges from ESP fit, RMS=   0.00402 RRMS=   0.37826:
 ESP charges:
               1
     1  C   -0.166798
     2  C    0.122803
     3  C   -0.161466
     4  C   -0.287990
     5  C   -0.175137
     6  C   -0.209499
     7  C    0.456426
     8  N   -0.773953
     9  C    0.498186
    10  C   -0.310845
    11  C   -0.019215
    12  C   -0.198233
    13  C   -0.035412
    14  C   -0.253439
    15  H    0.052144
    16  H    0.047033
    17  H    0.046378
    18  H    0.122338
    19  H    0.134036
    20  H    0.123815
    21  H    0.107967
    22  H    0.362213
    23  H    0.125684
    24  H    0.087761
    25  H    0.104440
    26  H    0.091217
    27  H    0.109546
 Sum of ESP charges =  -0.00000
 ESP charges with hydrogens summed into heavy atoms:
               1
     1  C   -0.021243
     2  C    0.122803
     3  C   -0.039128
     4  C   -0.153955
     5  C   -0.051322
     6  C   -0.101532
     7  C    0.456426
     8  N   -0.411740
     9  C    0.498186
    10  C   -0.185161
    11  C    0.068546
    12  C   -0.093793
    13  C    0.055805
    14  C   -0.143893
 Charge=  -0.00000 Dipole=     0.4392     0.8162    -0.0005 Tot=     0.9269
 -----------------------------------------------------------------

              Electrostatic Properties (Atomic Units)

 -----------------------------------------------------------------
    Center     Electric         -------- Electric Field --------
               Potential          X             Y             Z
 -----------------------------------------------------------------
    1 Atom    -14.772375
    2 Atom    -14.766518
    3 Atom    -14.771884
    4 Atom    -14.771844
    5 Atom    -14.772611
    6 Atom    -14.773777
    7 Atom    -14.724434
    8 Atom    -18.360318
    9 Atom    -14.722071
   10 Atom    -14.772508
   11 Atom    -14.769722
   12 Atom    -14.778639
   13 Atom    -14.770524
   14 Atom    -14.774929
   15 Atom     -1.118057
   16 Atom     -1.118471
   17 Atom     -1.118415
   18 Atom     -1.108791
   19 Atom     -1.102220
   20 Atom     -1.110253
   21 Atom     -1.107617
   22 Atom     -1.024155
   23 Atom     -1.102728
   24 Atom     -1.108976
   25 Atom     -1.113386
   26 Atom     -1.110668
   27 Atom     -1.108616
 -----------------------------------------------------------------
 Unable to Open any file for archive entry.
 1\1\GINC-NOTCH080\SP\RwB97XD\def2TZVP\C13H13N1\U1366379\24-Feb-2026\0\
 \#N Guess=Read Geom=Check Integral(Ultrafine) Density Pop=(ChelpG,Read
 Radii) NMR wB97XD def2TZVP\\prod_3i_1\\0,1\C,0,4.8731956069,-0.7979789
 066,0.0608887823\C,0,3.4551917791,-0.2887031227,0.0630711138\C,0,3.121
 0891694,0.9433504462,-0.5083825728\C,0,1.8056408309,1.3936310503,-0.54
 88414454\C,0,2.4135952754,-1.0403908594,0.6175987761\C,0,1.095618774,-
 0.5944504769,0.6042194515\C,0,0.767315498,0.6313003002,0.0057316549\N,
 0,-0.532281846,1.1404834828,-0.0074454665\C,0,-1.7388783794,0.44728454
 26,-0.0196372349\C,0,-2.9023328728,1.1055319403,0.4146197998\C,0,-4.13
 6794082,0.4660625482,0.3802271502\C,0,-4.2426617858,-0.84930591,-0.070
 9882994\C,0,-3.0923210903,-1.5063218652,-0.5049440265\C,0,-1.853395160
 5,-0.8708599316,-0.49156897\H,0,5.0679187251,-1.4281378341,-0.82256974
 05\H,0,5.5976576056,0.0289885863,0.0401328193\H,0,5.0819931448,-1.4093
 053457,0.9510913341\H,0,3.907167173,1.5658653007,-0.9447590055\H,0,1.5
 738138265,2.3528639467,-1.0193812272\H,0,2.6386190043,-1.9991792388,1.
 0933234925\H,0,0.3183344499,-1.1923296074,1.0821034265\H,0,-0.60697829
 11,2.1478484228,-0.0315471027\H,0,-2.8284190344,2.1305603109,0.7878512
 732\H,0,-5.0255615079,1.001788691,0.7217374484\H,0,-5.2102144859,-1.35
 40457539,-0.0882491422\H,0,-3.1572335716,-2.531622094,-0.8768565359\H,
 0,-0.9729487553,-1.3923286227,-0.8687157531\\Version=ES64L-G16RevC.01\
 State=1-A\HF=-557.9740549\RMSD=2.772e-09\Dipole=0.1975917,0.2882707,-0
 .0156816\Quadrupole=2.0346462,3.9445341,-5.9791803,-0.9932447,-1.46495
 96,-0.3836209\PG=C01 [X(C13H13N1)]\\@
 The archive entry for this job was punched.


 MEN HAVE BECOME THE TOOLS OF THEIR TOOLS... THOREAU   
 Job cpu time:       0 days  1 hours 10 minutes 17.1 seconds.
 Elapsed time:       0 days  0 hours  4 minutes 40.2 seconds.
 File lengths (MBytes):  RWF=    165 Int=      0 D2E=      0 Chk=     27 Scr=      2
 Normal termination of Gaussian 16 at Tue Feb 24 12:36:51 2026.
