 Entering Gaussian System, Link 0=g16
 Input=prod_3k_1.com
 Output=prod_3k_1.log
 Initial command:
 /uufs/chpc.utah.edu/sys/installdir/gaussian16/C01/AVX/g16/l1.exe "/scratch/general/vast/u1366379/GAUSSSCRDIR/11028624-notchpeak.peaks/Gau-632133.inp" -scrdir="/scratch/general/vast/u1366379/GAUSSSCRDIR/11028624-notchpeak.peaks/"
 Entering Link 1 = /uufs/chpc.utah.edu/sys/installdir/gaussian16/C01/AVX/g16/l1.exe PID=    632140.
  
 Copyright (c) 1988-2019, Gaussian, Inc.  All Rights Reserved.
  
 This is part of the Gaussian(R) 16 program.  It is based on
 the Gaussian(R) 09 system (copyright 2009, Gaussian, Inc.),
 the Gaussian(R) 03 system (copyright 2003, Gaussian, Inc.),
 the Gaussian(R) 98 system (copyright 1998, Gaussian, Inc.),
 the Gaussian(R) 94 system (copyright 1995, Gaussian, Inc.),
 the Gaussian 92(TM) system (copyright 1992, Gaussian, Inc.),
 the Gaussian 90(TM) system (copyright 1990, Gaussian, Inc.),
 the Gaussian 88(TM) system (copyright 1988, Gaussian, Inc.),
 the Gaussian 86(TM) system (copyright 1986, Carnegie Mellon
 University), and the Gaussian 82(TM) system (copyright 1983,
 Carnegie Mellon University). Gaussian is a federally registered
 trademark of Gaussian, Inc.
  
 This software contains proprietary and confidential information,
 including trade secrets, belonging to Gaussian, Inc.
  
 This software is provided under written license and may be
 used, copied, transmitted, or stored only in accord with that
 written license.
  
 The following legend is applicable only to US Government
 contracts under FAR:
  
                    RESTRICTED RIGHTS LEGEND
  
 Use, reproduction and disclosure by the US Government is
 subject to restrictions as set forth in subparagraphs (a)
 and (c) of the Commercial Computer Software - Restricted
 Rights clause in FAR 52.227-19.
  
 Gaussian, Inc.
 340 Quinnipiac St., Bldg. 40, Wallingford CT 06492
  
  
 ---------------------------------------------------------------
 Warning -- This program may not be used in any manner that
 competes with the business of Gaussian, Inc. or will provide
 assistance to any competitor of Gaussian, Inc.  The licensee
 of this program is prohibited from giving any competitor of
 Gaussian, Inc. access to this program.  By using this program,
 the user acknowledges that Gaussian, Inc. is engaged in the
 business of creating and licensing software in the field of
 computational chemistry and represents and warrants to the
 licensee that it is not a competitor of Gaussian, Inc. and that
 it will not use this program in any manner prohibited above.
 ---------------------------------------------------------------
  

 Cite this work as:
 Gaussian 16, Revision C.01,
 M. J. Frisch, G. W. Trucks, H. B. Schlegel, G. E. Scuseria, 
 M. A. Robb, J. R. Cheeseman, G. Scalmani, V. Barone, 
 G. A. Petersson, H. Nakatsuji, X. Li, M. Caricato, A. V. Marenich, 
 J. Bloino, B. G. Janesko, R. Gomperts, B. Mennucci, H. P. Hratchian, 
 J. V. Ortiz, A. F. Izmaylov, J. L. Sonnenberg, D. Williams-Young, 
 F. Ding, F. Lipparini, F. Egidi, J. Goings, B. Peng, A. Petrone, 
 T. Henderson, D. Ranasinghe, V. G. Zakrzewski, J. Gao, N. Rega, 
 G. Zheng, W. Liang, M. Hada, M. Ehara, K. Toyota, R. Fukuda, 
 J. Hasegawa, M. Ishida, T. Nakajima, Y. Honda, O. Kitao, H. Nakai, 
 T. Vreven, K. Throssell, J. A. Montgomery, Jr., J. E. Peralta, 
 F. Ogliaro, M. J. Bearpark, J. J. Heyd, E. N. Brothers, K. N. Kudin, 
 V. N. Staroverov, T. A. Keith, R. Kobayashi, J. Normand, 
 K. Raghavachari, A. P. Rendell, J. C. Burant, S. S. Iyengar, 
 J. Tomasi, M. Cossi, J. M. Millam, M. Klene, C. Adamo, R. Cammi, 
 J. W. Ochterski, R. L. Martin, K. Morokuma, O. Farkas, 
 J. B. Foresman, and D. J. Fox, Gaussian, Inc., Wallingford CT, 2019.
 
 ******************************************
 Gaussian 16:  ES64L-G16RevC.01  3-Jul-2019
                17-Feb-2026 
 ******************************************
 %NProcShared=8
 Will use up to    8 processors via shared memory.
 %Mem=8GB
 %chk=prod_3k_1.chk
 ------------------------------------------------------
 #N OPT FREQ=NORAMAN Integral(Ultrafine) wB97XD def2SVP
 ------------------------------------------------------
 1/18=20,19=15,26=4,38=1/1,3;
 2/9=110,12=2,17=6,18=5,40=1/2;
 3/5=43,7=101,11=2,25=1,30=1,71=1,74=-58,75=-5/1,2,3;
 4//1;
 5/5=2,38=5/2;
 6/7=2,8=2,9=2,10=2,28=1/1;
 7//1,2,3,16;
 1/18=20,19=15,26=4/3(2);
 2/9=110/2;
 99//99;
 2/9=110/2;
 3/5=43,7=101,11=2,25=1,30=1,71=1,74=-58,75=-5/1,2,3;
 4/5=5,16=3,69=1/1;
 5/5=2,38=5/2;
 7//1,2,3,16;
 1/18=20,19=15,26=4/3(-5);
 2/9=110/2;
 6/7=2,8=2,9=2,10=2,19=2,28=1/1;
 99/9=1/99;
 ---------
 prod_3k_1
 ---------
 Symbolic Z-matrix:
 Charge =  0 Multiplicity = 1
 F                     4.3386    0.31694   0.95896 
 C                     3.68709  -0.33177  -0.02788 
 C                     2.22703   0.08373  -0.01048 
 C                     1.25896  -0.77359  -0.49325 
 C                    -0.06291  -0.39684  -0.49539 
 C                     1.86444   1.33264   0.45274 
 C                     0.54462   1.71734   0.45122 
 C                    -0.44668   0.85236  -0.01033 
 N                    -1.79659   1.26499  -0.01656 
 C                    -2.95366   0.45579   0.0092 
 C                    -2.93384  -0.83007   0.54661 
 C                    -4.07604  -1.59596   0.57911 
 C                    -5.26158  -1.09302   0.08233 
 C                    -5.3027    0.18397  -0.44019 
 C                    -4.16314   0.95397  -0.4726 
 F                     3.76264  -1.66509   0.1614 
 F                     4.20877  -0.00125  -1.22659 
 H                     1.56224  -1.73692  -0.86781 
 H                    -0.80953  -1.05176  -0.90753 
 H                     2.6343    1.99244   0.81649 
 H                     0.26178   2.68822   0.81834 
 H                    -1.95529   2.26931  -0.03757 
 H                    -2.01982  -1.20577   0.97062 
 H                    -4.04677  -2.58791   0.99869 
 H                    -6.15522  -1.69448   0.10775 
 H                    -6.22925   0.57838  -0.82328 
 H                    -4.19033   1.94835  -0.88233 
 

 GradGradGradGradGradGradGradGradGradGradGradGradGradGradGradGradGradGrad
 Berny optimization.
 Initialization pass.
                           ----------------------------
                           !    Initial Parameters    !
                           ! (Angstroms and Degrees)  !
 --------------------------                            --------------------------
 ! Name  Definition              Value          Derivative Info.                !
 --------------------------------------------------------------------------------
 ! R1    R(1,2)                  1.3488         estimate D2E/DX2                !
 ! R2    R(2,3)                  1.5181         estimate D2E/DX2                !
 ! R3    R(2,16)                 1.3488         estimate D2E/DX2                !
 ! R4    R(2,17)                 1.3484         estimate D2E/DX2                !
 ! R5    R(3,4)                  1.3803         estimate D2E/DX2                !
 ! R6    R(3,6)                  1.3805         estimate D2E/DX2                !
 ! R7    R(4,5)                  1.3745         estimate D2E/DX2                !
 ! R8    R(4,18)                 1.0772         estimate D2E/DX2                !
 ! R9    R(5,8)                  1.3939         estimate D2E/DX2                !
 ! R10   R(5,19)                 1.0753         estimate D2E/DX2                !
 ! R11   R(6,7)                  1.3747         estimate D2E/DX2                !
 ! R12   R(6,20)                 1.0772         estimate D2E/DX2                !
 ! R13   R(7,8)                  1.3942         estimate D2E/DX2                !
 ! R14   R(7,21)                 1.0758         estimate D2E/DX2                !
 ! R15   R(8,9)                  1.4116         estimate D2E/DX2                !
 ! R16   R(9,10)                 1.4122         estimate D2E/DX2                !
 ! R17   R(9,22)                 1.017          estimate D2E/DX2                !
 ! R18   R(10,11)                1.3938         estimate D2E/DX2                !
 ! R19   R(10,15)                1.394          estimate D2E/DX2                !
 ! R20   R(11,12)                1.3756         estimate D2E/DX2                !
 ! R21   R(11,23)                1.0753         estimate D2E/DX2                !
 ! R22   R(12,13)                1.3803         estimate D2E/DX2                !
 ! R23   R(12,24)                1.0774         estimate D2E/DX2                !
 ! R24   R(13,14)                1.3804         estimate D2E/DX2                !
 ! R25   R(13,25)                1.0775         estimate D2E/DX2                !
 ! R26   R(14,15)                1.3757         estimate D2E/DX2                !
 ! R27   R(14,26)                1.0774         estimate D2E/DX2                !
 ! R28   R(15,27)                1.0758         estimate D2E/DX2                !
 ! A1    A(1,2,3)              108.938          estimate D2E/DX2                !
 ! A2    A(1,2,16)             110.2254         estimate D2E/DX2                !
 ! A3    A(1,2,17)             110.2216         estimate D2E/DX2                !
 ! A4    A(3,2,16)             108.833          estimate D2E/DX2                !
 ! A5    A(3,2,17)             108.3717         estimate D2E/DX2                !
 ! A6    A(16,2,17)            110.2048         estimate D2E/DX2                !
 ! A7    A(2,3,4)              120.0343         estimate D2E/DX2                !
 ! A8    A(2,3,6)              120.2682         estimate D2E/DX2                !
 ! A9    A(4,3,6)              119.6732         estimate D2E/DX2                !
 ! A10   A(3,4,5)              120.3172         estimate D2E/DX2                !
 ! A11   A(3,4,18)             118.661          estimate D2E/DX2                !
 ! A12   A(5,4,18)             121.0216         estimate D2E/DX2                !
 ! A13   A(4,5,8)              120.6548         estimate D2E/DX2                !
 ! A14   A(4,5,19)             120.0933         estimate D2E/DX2                !
 ! A15   A(8,5,19)             119.2118         estimate D2E/DX2                !
 ! A16   A(3,6,7)              120.3275         estimate D2E/DX2                !
 ! A17   A(3,6,20)             118.6673         estimate D2E/DX2                !
 ! A18   A(7,6,20)             121.0048         estimate D2E/DX2                !
 ! A19   A(6,7,8)              120.6206         estimate D2E/DX2                !
 ! A20   A(6,7,21)             120.3024         estimate D2E/DX2                !
 ! A21   A(8,7,21)             119.0729         estimate D2E/DX2                !
 ! A22   A(5,8,7)              118.3871         estimate D2E/DX2                !
 ! A23   A(5,8,9)              121.5818         estimate D2E/DX2                !
 ! A24   A(7,8,9)              120.0029         estimate D2E/DX2                !
 ! A25   A(8,9,10)             128.0222         estimate D2E/DX2                !
 ! A26   A(8,9,22)             115.976          estimate D2E/DX2                !
 ! A27   A(10,9,22)            116.0011         estimate D2E/DX2                !
 ! A28   A(9,10,11)            121.6025         estimate D2E/DX2                !
 ! A29   A(9,10,15)            119.9879         estimate D2E/DX2                !
 ! A30   A(11,10,15)           118.3798         estimate D2E/DX2                !
 ! A31   A(10,11,12)           120.7277         estimate D2E/DX2                !
 ! A32   A(10,11,23)           119.107          estimate D2E/DX2                !
 ! A33   A(12,11,23)           120.1275         estimate D2E/DX2                !
 ! A34   A(11,12,13)           120.1189         estimate D2E/DX2                !
 ! A35   A(11,12,24)           119.9496         estimate D2E/DX2                !
 ! A36   A(13,12,24)           119.9304         estimate D2E/DX2                !
 ! A37   A(12,13,14)           119.9274         estimate D2E/DX2                !
 ! A38   A(12,13,25)           120.0304         estimate D2E/DX2                !
 ! A39   A(14,13,25)           120.0411         estimate D2E/DX2                !
 ! A40   A(13,14,15)           120.135          estimate D2E/DX2                !
 ! A41   A(13,14,26)           119.9252         estimate D2E/DX2                !
 ! A42   A(15,14,26)           119.9398         estimate D2E/DX2                !
 ! A43   A(10,15,14)           120.7            estimate D2E/DX2                !
 ! A44   A(10,15,27)           118.9396         estimate D2E/DX2                !
 ! A45   A(14,15,27)           120.3564         estimate D2E/DX2                !
 ! D1    D(1,2,3,4)           -153.212          estimate D2E/DX2                !
 ! D2    D(1,2,3,6)             28.5865         estimate D2E/DX2                !
 ! D3    D(16,2,3,4)           -33.0            estimate D2E/DX2                !
 ! D4    D(16,2,3,6)           148.7985         estimate D2E/DX2                !
 ! D5    D(17,2,3,4)            86.8535         estimate D2E/DX2                !
 ! D6    D(17,2,3,6)           -91.348          estimate D2E/DX2                !
 ! D7    D(2,3,4,5)           -179.2012         estimate D2E/DX2                !
 ! D8    D(2,3,4,18)             0.6493         estimate D2E/DX2                !
 ! D9    D(6,3,4,5)             -0.9889         estimate D2E/DX2                !
 ! D10   D(6,3,4,18)           178.8615         estimate D2E/DX2                !
 ! D11   D(2,3,6,7)            179.0675         estimate D2E/DX2                !
 ! D12   D(2,3,6,20)            -1.1712         estimate D2E/DX2                !
 ! D13   D(4,3,6,7)              0.8594         estimate D2E/DX2                !
 ! D14   D(4,3,6,20)          -179.3792         estimate D2E/DX2                !
 ! D15   D(3,4,5,8)             -0.0735         estimate D2E/DX2                !
 ! D16   D(3,4,5,19)           177.6068         estimate D2E/DX2                !
 ! D17   D(18,4,5,8)          -179.9203         estimate D2E/DX2                !
 ! D18   D(18,4,5,19)           -2.2401         estimate D2E/DX2                !
 ! D19   D(4,5,8,7)              1.239          estimate D2E/DX2                !
 ! D20   D(4,5,8,9)            179.3062         estimate D2E/DX2                !
 ! D21   D(19,5,8,7)          -176.4615         estimate D2E/DX2                !
 ! D22   D(19,5,8,9)             1.6058         estimate D2E/DX2                !
 ! D23   D(3,6,7,8)              0.3329         estimate D2E/DX2                !
 ! D24   D(3,6,7,21)           179.5945         estimate D2E/DX2                !
 ! D25   D(20,6,7,8)          -179.4228         estimate D2E/DX2                !
 ! D26   D(20,6,7,21)           -0.1612         estimate D2E/DX2                !
 ! D27   D(6,7,8,5)             -1.3681         estimate D2E/DX2                !
 ! D28   D(6,7,8,9)           -179.4668         estimate D2E/DX2                !
 ! D29   D(21,7,8,5)           179.3613         estimate D2E/DX2                !
 ! D30   D(21,7,8,9)             1.2626         estimate D2E/DX2                !
 ! D31   D(5,8,9,10)            25.8044         estimate D2E/DX2                !
 ! D32   D(5,8,9,22)          -154.5266         estimate D2E/DX2                !
 ! D33   D(7,8,9,10)          -156.159          estimate D2E/DX2                !
 ! D34   D(7,8,9,22)            23.5099         estimate D2E/DX2                !
 ! D35   D(8,9,10,11)           25.0651         estimate D2E/DX2                !
 ! D36   D(8,9,10,15)         -156.9559         estimate D2E/DX2                !
 ! D37   D(22,9,10,11)        -154.6038         estimate D2E/DX2                !
 ! D38   D(22,9,10,15)          23.3753         estimate D2E/DX2                !
 ! D39   D(9,10,11,12)         179.1006         estimate D2E/DX2                !
 ! D40   D(9,10,11,23)           1.3329         estimate D2E/DX2                !
 ! D41   D(15,10,11,12)          1.0901         estimate D2E/DX2                !
 ! D42   D(15,10,11,23)       -176.6776         estimate D2E/DX2                !
 ! D43   D(9,10,15,14)        -179.2382         estimate D2E/DX2                !
 ! D44   D(9,10,15,27)           1.4854         estimate D2E/DX2                !
 ! D45   D(11,10,15,14)         -1.1946         estimate D2E/DX2                !
 ! D46   D(11,10,15,27)        179.5291         estimate D2E/DX2                !
 ! D47   D(10,11,12,13)         -0.2998         estimate D2E/DX2                !
 ! D48   D(10,11,12,24)       -179.9159         estimate D2E/DX2                !
 ! D49   D(23,11,12,13)        177.4451         estimate D2E/DX2                !
 ! D50   D(23,11,12,24)         -2.171          estimate D2E/DX2                !
 ! D51   D(11,12,13,14)         -0.4129         estimate D2E/DX2                !
 ! D52   D(11,12,13,25)        179.9488         estimate D2E/DX2                !
 ! D53   D(24,12,13,14)        179.2033         estimate D2E/DX2                !
 ! D54   D(24,12,13,25)         -0.435          estimate D2E/DX2                !
 ! D55   D(12,13,14,15)          0.3086         estimate D2E/DX2                !
 ! D56   D(12,13,14,26)       -179.6836         estimate D2E/DX2                !
 ! D57   D(25,13,14,15)        179.9468         estimate D2E/DX2                !
 ! D58   D(25,13,14,26)         -0.0453         estimate D2E/DX2                !
 ! D59   D(13,14,15,10)          0.5092         estimate D2E/DX2                !
 ! D60   D(13,14,15,27)        179.7753         estimate D2E/DX2                !
 ! D61   D(26,14,15,10)       -179.4987         estimate D2E/DX2                !
 ! D62   D(26,14,15,27)         -0.2326         estimate D2E/DX2                !
 --------------------------------------------------------------------------------
 Trust Radius=3.00D-01 FncErr=1.00D-07 GrdErr=1.00D-06 EigMax=2.50D+02 EigMin=1.00D-04
 Number of steps in this run=    145 maximum allowed number of steps=    162.
 GradGradGradGradGradGradGradGradGradGradGradGradGradGradGradGradGradGrad

                          Input orientation:                          
 ---------------------------------------------------------------------
 Center     Atomic      Atomic             Coordinates (Angstroms)
 Number     Number       Type             X           Y           Z
 ---------------------------------------------------------------------
      1          9           0        4.338600    0.316940    0.958960
      2          6           0        3.687090   -0.331770   -0.027880
      3          6           0        2.227030    0.083730   -0.010480
      4          6           0        1.258960   -0.773590   -0.493250
      5          6           0       -0.062910   -0.396840   -0.495390
      6          6           0        1.864440    1.332640    0.452740
      7          6           0        0.544620    1.717340    0.451220
      8          6           0       -0.446680    0.852360   -0.010330
      9          7           0       -1.796590    1.264990   -0.016560
     10          6           0       -2.953660    0.455790    0.009200
     11          6           0       -2.933840   -0.830070    0.546610
     12          6           0       -4.076040   -1.595960    0.579110
     13          6           0       -5.261580   -1.093020    0.082330
     14          6           0       -5.302700    0.183970   -0.440190
     15          6           0       -4.163140    0.953970   -0.472600
     16          9           0        3.762640   -1.665090    0.161400
     17          9           0        4.208770   -0.001250   -1.226590
     18          1           0        1.562240   -1.736920   -0.867810
     19          1           0       -0.809530   -1.051760   -0.907530
     20          1           0        2.634300    1.992440    0.816490
     21          1           0        0.261780    2.688220    0.818340
     22          1           0       -1.955290    2.269310   -0.037570
     23          1           0       -2.019820   -1.205770    0.970620
     24          1           0       -4.046770   -2.587910    0.998690
     25          1           0       -6.155220   -1.694480    0.107750
     26          1           0       -6.229250    0.578380   -0.823280
     27          1           0       -4.190330    1.948350   -0.882330
 ---------------------------------------------------------------------
                    Distance matrix (angstroms):
                    1          2          3          4          5
     1  F    0.000000
     2  C    1.348756   0.000000
     3  C    2.335151   1.518130   0.000000
     4  C    3.575242   2.511491   1.380299   0.000000
     5  C    4.690193   3.779590   2.389542   1.374513   0.000000
     6  C    2.722016   2.514619   1.380515   2.386987   2.757667
     7  C    4.075930   3.781998   2.390053   2.758086   2.394769
     8  C    4.911731   4.300061   2.781999   2.405438   1.393938
     9  N    6.284186   5.711437   4.193439   3.703975   2.448796
    10  C    7.355160   6.687390   5.194070   4.417012   3.055818
    11  C    7.373876   6.664462   5.270670   4.320193   3.084751
    12  C    8.637687   7.888777   6.549631   5.503496   4.324078
    13  C    9.742686   8.981667   7.581071   6.553684   5.276798
    14  C    9.743201   9.014006   7.542648   6.631374   5.272171
    15  C    8.644927   7.967246   6.465690   5.690699   4.317070
    16  F    2.212753   1.348806   2.333669   2.737107   4.083462
    17  F    2.212404   1.348443   2.326680   3.136188   4.351827
    18  H    3.906866   2.682334   2.119369   1.077162   2.139071
    19  H    5.644499   4.638077   3.363738   2.127829   1.075277
    20  H    2.394209   2.687616   2.119651   3.355280   3.834662
    21  H    4.718390   4.644263   3.366381   3.833897   3.368814
    22  H    6.664673   6.213064   4.719035   4.449527   3.301372
    23  H    6.538217   5.859155   4.545449   3.616641   2.575471
    24  H    8.874354   8.121367   6.893232   5.802449   4.785834
    25  H   10.718705   9.937124   8.569605   7.495285   6.258106
    26  H   10.720270   9.989736   8.509641   7.616432   6.251585
    27  H    8.876626   8.245167   6.739395   6.103696   4.762902
                    6          7          8          9         10
     6  C    0.000000
     7  C    1.374744   0.000000
     8  C    2.405489   1.394236   0.000000
     9  N    3.691607   2.429959   1.411580   0.000000
    10  C    4.917284   3.744977   2.538227   1.412190   0.000000
    11  C    5.263993   4.312549   3.053968   2.449444   1.393786
    12  C    6.624347   5.687250   4.417461   3.706177   2.407117
    13  C    7.536656   6.461127   5.193876   4.192391   2.780406
    14  C    7.313321   6.110400   4.920615   3.693355   2.407037
    15  C    6.109940   4.857899   3.746477   2.430075   1.393971
    16  F    3.560116   4.677658   4.907690   6.286659   7.044855
    17  F    3.177309   4.381163   4.886835   6.255548   7.282614
    18  H    3.355201   3.835010   3.387536   4.584521   5.096124
    19  H    3.832207   3.368655   2.135954   2.671225   2.776760
    20  H    1.077188   2.139127   3.387603   4.566831   5.851351
    21  H    2.130676   1.075818   2.135179   2.638092   3.997187
    22  H    3.963344   2.606365   2.069878   1.016998   2.070697
    23  H    4.668961   3.923098   2.770006   2.670021   2.134752
    24  H    7.114153   6.317892   5.080770   4.575902   3.382024
    25  H    8.578894   7.526377   6.252021   5.269874   3.857896
    26  H    8.228302   6.986193   5.845859   4.557489   3.381943
    27  H    6.230710   4.924578   3.997061   2.635627   2.133521
                   11         12         13         14         15
    11  C    0.000000
    12  C    1.375596   0.000000
    13  C    2.388111   1.380306   0.000000
    14  C    2.759266   2.389941   1.380370   0.000000
    15  C    2.394320   2.759678   2.388448   1.375699   0.000000
    16  F    6.759326   7.850106   9.042680   9.271533   8.371345
    17  F    7.405948   8.627962   9.622513   9.545721   8.459895
    18  H    4.799760   5.822684   6.919674   7.141434   6.338537
    19  H    2.583866   3.629923   4.560951   4.683376   3.931770
    20  H    6.248486   7.613253   8.509053   8.236855   6.996096
    21  H    4.760692   6.101484   6.734018   6.230458   4.924842
    22  H    3.302269   4.451762   4.717117   3.964328   2.606525
    23  H    1.075345   2.129218   3.363150   3.833936   3.367667
    24  H    2.129082   1.077436   2.133114   3.366163   3.837076
    25  H    3.364089   2.134216   1.077494   2.134386   3.364443
    26  H    3.836673   3.366120   2.133095   1.077410   2.129050
    27  H    3.367529   3.835492   3.365721   2.132110   1.075830
                   16         17         18         19         20
    16  F    0.000000
    17  F    2.212219   0.000000
    18  H    2.430266   3.185184   0.000000
    19  H    4.735348   5.136994   2.469072   0.000000
    20  H    3.883274   3.260051   4.230166   4.909110   0.000000
    21  H    5.624847   5.195548   4.910821   4.256029   2.472441
    22  H    6.943617   6.675691   5.395572   3.619268   4.676581
    23  H    5.856847   6.713712   4.061170   2.239636   5.649171
    24  H    7.908194   8.932895   5.972353   4.058713   8.102438
    25  H    9.918049  10.585829   7.778991   5.479077   9.557790
    26  H   10.287887  10.461878   8.128340   5.660196   9.124195
    27  H    8.797503   8.629272   6.831800   4.520078   7.033030
                   21         22         23         24         25
    21  H    0.000000
    22  H    2.413186   0.000000
    23  H    4.515755   3.618949   0.000000
    24  H    6.814226   5.388943   2.453492   0.000000
    25  H    7.803261   5.776864   4.252636   2.457143   0.000000
    26  H    7.019958   4.662973   4.911270   4.255371   2.457273
    27  H    4.822963   2.410817   4.253588   4.912891   4.255733
                   26         27
    26  H    0.000000
    27  H    2.457132   0.000000
 Stoichiometry    C13H10F3N
 Framework group  C1[X(C13H10F3N)]
 Deg. of freedom    75
 Full point group                 C1      NOp   1
 Largest Abelian subgroup         C1      NOp   1
 Largest concise Abelian subgroup C1      NOp   1
                         Standard orientation:                         
 ---------------------------------------------------------------------
 Center     Atomic      Atomic             Coordinates (Angstroms)
 Number     Number       Type             X           Y           Z
 ---------------------------------------------------------------------
      1          9           0       -4.476838    0.277443   -0.950500
      2          6           0       -3.819517   -0.367015    0.035272
      3          6           0       -2.362226    0.057993    0.015517
      4          6           0       -1.387808   -0.793003    0.496703
      5          6           0       -0.068421   -0.407644    0.496710
      6          6           0       -2.008535    1.309244   -0.448266
      7          6           0       -0.691250    1.702539   -0.448874
      8          6           0        0.306413    0.844035    0.011054
      9          7           0        1.653613    1.265455    0.015107
     10          6           0        2.815890    0.463815   -0.012542
     11          6           0        2.803582   -0.822142   -0.549944
     12          6           0        3.950696   -1.580571   -0.584307
     13          6           0        5.133735   -1.069918   -0.089437
     14          6           0        5.167376    0.207308    0.433040
     15          6           0        4.022875    0.969864    0.467310
     16          9           0       -3.886681   -1.700798   -0.153911
     17          9           0       -4.341399   -0.039913    1.234831
     18          1           0       -1.684196   -1.758292    0.871735
     19          1           0        0.683119   -1.057687    0.907629
     20          1           0       -2.783267    1.964015   -0.810756
     21          1           0       -0.415339    2.675245   -0.816433
     22          1           0        1.805797    2.270788    0.035879
     23          1           0        1.891345   -1.203789   -0.972481
     24          1           0        3.927213   -2.572687   -1.003858
     25          1           0        6.031234   -1.665540   -0.116315
     26          1           0        6.091954    0.607746    0.814638
     27          1           0        4.044246    1.964396    0.877014
 ---------------------------------------------------------------------
 Rotational constants (GHZ):           1.5214103           0.1812236           0.1702714
 Standard basis: def2SVP (5D, 7F)
 There are   305 symmetry adapted cartesian basis functions of A   symmetry.
 There are   288 symmetry adapted basis functions of A   symmetry.
   288 basis functions,   495 primitive gaussians,   305 cartesian basis functions
    61 alpha electrons       61 beta electrons
       nuclear repulsion energy      1126.4028118467 Hartrees.
 NAtoms=   27 NActive=   27 NUniq=   27 SFac= 1.00D+00 NAtFMM=   60 NAOKFM=F Big=F
 Integral buffers will be    131072 words long.
 Raffenetti 2 integral format.
 Two-electron integral symmetry is turned on.
 Nuclear repulsion after empirical dispersion term =     1126.3863354757 Hartrees.
 One-electron integrals computed using PRISM.
   1 Symmetry operations used in ECPInt.
 ECPInt:  NShTT=    8778 NPrTT=   32636 LenC2=    7794 LenP2D=   20647.
 LDataN:  DoStor=T MaxTD1= 4 Len=   56
 NBasis=   288 RedAO= T EigKep=  2.32D-04  NBF=   288
 NBsUse=   288 1.00D-06 EigRej= -1.00D+00 NBFU=   288
 ExpMin= 1.22D-01 ExpMax= 2.89D+03 ExpMxC= 4.35D+02 IAcc=3 IRadAn=         5 AccDes= 0.00D+00
 Harris functional with IExCor= 4639 and IRadAn=       5 diagonalized for initial guess.
 HarFok:  IExCor= 4639 AccDes= 0.00D+00 IRadAn=         5 IDoV= 1 UseB2=F ITyADJ=14
 ICtDFT=  3500011 ScaDFX=  1.000000  1.000000  1.000000  1.000000
 FoFCou: FMM=F IPFlag=           0 FMFlag=      100000 FMFlg1=           0
         NFxFlg=           0 DoJE=T BraDBF=F KetDBF=T FulRan=T
         wScrn=  0.000000 ICntrl=       500 IOpCl=  0 I1Cent=   200000004 NGrid=           0
         NMat0=    1 NMatS0=      1 NMatT0=    0 NMatD0=    1 NMtDS0=    0 NMtDT0=    0
 Petite list used in FoFCou.
 Requested convergence on RMS density matrix=1.00D-08 within 128 cycles.
 Requested convergence on MAX density matrix=1.00D-06.
 Requested convergence on             energy=1.00D-06.
 No special actions if energy rises.
 Integral accuracy reduced to 1.0D-05 until final iterations.
 Initial convergence to 1.0D-05 achieved.  Increase integral accuracy.
 SCF Done:  E(RwB97XD) =  -854.805721346     A.U. after   15 cycles
            NFock= 15  Conv=0.55D-08     -V/T= 2.0086

 **********************************************************************

            Population analysis using the SCF Density.

 **********************************************************************

 Orbital symmetries:
       Occupied  (A) (A) (A) (A) (A) (A) (A) (A) (A) (A) (A) (A)
                 (A) (A) (A) (A) (A) (A) (A) (A) (A) (A) (A) (A)
                 (A) (A) (A) (A) (A) (A) (A) (A) (A) (A) (A) (A)
                 (A) (A) (A) (A) (A) (A) (A) (A) (A) (A) (A) (A)
                 (A) (A) (A) (A) (A) (A) (A) (A) (A) (A) (A) (A)
                 (A)
       Virtual   (A) (A) (A) (A) (A) (A) (A) (A) (A) (A) (A) (A)
                 (A) (A) (A) (A) (A) (A) (A) (A) (A) (A) (A) (A)
                 (A) (A) (A) (A) (A) (A) (A) (A) (A) (A) (A) (A)
                 (A) (A) (A) (A) (A) (A) (A) (A) (A) (A) (A) (A)
                 (A) (A) (A) (A) (A) (A) (A) (A) (A) (A) (A) (A)
                 (A) (A) (A) (A) (A) (A) (A) (A) (A) (A) (A) (A)
                 (A) (A) (A) (A) (A) (A) (A) (A) (A) (A) (A) (A)
                 (A) (A) (A) (A) (A) (A) (A) (A) (A) (A) (A) (A)
                 (A) (A) (A) (A) (A) (A) (A) (A) (A) (A) (A) (A)
                 (A) (A) (A) (A) (A) (A) (A) (A) (A) (A) (A) (A)
                 (A) (A) (A) (A) (A) (A) (A) (A) (A) (A) (A) (A)
                 (A) (A) (A) (A) (A) (A) (A) (A) (A) (A) (A) (A)
                 (A) (A) (A) (A) (A) (A) (A) (A) (A) (A) (A) (A)
                 (A) (A) (A) (A) (A) (A) (A) (A) (A) (A) (A) (A)
                 (A) (A) (A) (A) (A) (A) (A) (A) (A) (A) (A) (A)
                 (A) (A) (A) (A) (A) (A) (A) (A) (A) (A) (A) (A)
                 (A) (A) (A) (A) (A) (A) (A) (A) (A) (A) (A) (A)
                 (A) (A) (A) (A) (A) (A) (A) (A) (A) (A) (A) (A)
                 (A) (A) (A) (A) (A) (A) (A) (A) (A) (A) (A)
 The electronic state is 1-A.
 Alpha  occ. eigenvalues --  -24.84992 -24.84934 -24.84500 -14.47986 -10.54536
 Alpha  occ. eigenvalues --  -10.36015 -10.35215 -10.31564 -10.31476 -10.31179
 Alpha  occ. eigenvalues --  -10.30994 -10.30680 -10.30452 -10.30364 -10.30257
 Alpha  occ. eigenvalues --  -10.29964 -10.29539  -1.39635  -1.31215  -1.30886
 Alpha  occ. eigenvalues --   -1.05056  -0.97489  -0.95133  -0.87924  -0.86112
 Alpha  occ. eigenvalues --   -0.84963  -0.83375  -0.78684  -0.73381  -0.72858
 Alpha  occ. eigenvalues --   -0.70684  -0.69046  -0.68343  -0.67904  -0.66361
 Alpha  occ. eigenvalues --   -0.63514  -0.62434  -0.58470  -0.56456  -0.56226
 Alpha  occ. eigenvalues --   -0.55380  -0.54707  -0.54423  -0.53082  -0.52927
 Alpha  occ. eigenvalues --   -0.52686  -0.51740  -0.51524  -0.51204  -0.50243
 Alpha  occ. eigenvalues --   -0.49417  -0.47370  -0.45331  -0.44532  -0.43995
 Alpha  occ. eigenvalues --   -0.43398  -0.41700  -0.35008  -0.34738  -0.34130
 Alpha  occ. eigenvalues --   -0.27786
 Alpha virt. eigenvalues --    0.03821   0.04900   0.05828   0.08228   0.13346
 Alpha virt. eigenvalues --    0.14564   0.15384   0.18326   0.18685   0.20023
 Alpha virt. eigenvalues --    0.21203   0.21774   0.22246   0.23102   0.24279
 Alpha virt. eigenvalues --    0.25013   0.25980   0.26235   0.28886   0.30267
 Alpha virt. eigenvalues --    0.31987   0.33966   0.35032   0.36396   0.37461
 Alpha virt. eigenvalues --    0.37699   0.38508   0.39141   0.40093   0.40732
 Alpha virt. eigenvalues --    0.43456   0.44375   0.45429   0.48022   0.48270
 Alpha virt. eigenvalues --    0.48679   0.49488   0.50744   0.52087   0.53262
 Alpha virt. eigenvalues --    0.54378   0.54687   0.55581   0.56386   0.57177
 Alpha virt. eigenvalues --    0.57953   0.58243   0.59842   0.60020   0.61669
 Alpha virt. eigenvalues --    0.62201   0.63129   0.64829   0.66524   0.67851
 Alpha virt. eigenvalues --    0.68400   0.69965   0.71374   0.71973   0.72746
 Alpha virt. eigenvalues --    0.73270   0.73778   0.74194   0.74949   0.76087
 Alpha virt. eigenvalues --    0.76332   0.77783   0.78377   0.79255   0.80055
 Alpha virt. eigenvalues --    0.80787   0.81519   0.82408   0.82950   0.84261
 Alpha virt. eigenvalues --    0.84638   0.86930   0.87851   0.90555   0.91877
 Alpha virt. eigenvalues --    0.92186   0.92575   0.95925   0.96295   1.01154
 Alpha virt. eigenvalues --    1.02450   1.05271   1.07196   1.14319   1.15308
 Alpha virt. eigenvalues --    1.18081   1.18210   1.19403   1.19790   1.22201
 Alpha virt. eigenvalues --    1.23688   1.24520   1.28342   1.29367   1.31081
 Alpha virt. eigenvalues --    1.31871   1.32404   1.33131   1.33725   1.36124
 Alpha virt. eigenvalues --    1.36735   1.37268   1.38106   1.39328   1.41205
 Alpha virt. eigenvalues --    1.41433   1.42315   1.45202   1.47265   1.52390
 Alpha virt. eigenvalues --    1.54069   1.54614   1.56040   1.59471   1.60713
 Alpha virt. eigenvalues --    1.68128   1.71629   1.73488   1.74498   1.75855
 Alpha virt. eigenvalues --    1.76626   1.76960   1.78159   1.80321   1.81550
 Alpha virt. eigenvalues --    1.81709   1.82685   1.82996   1.84196   1.84896
 Alpha virt. eigenvalues --    1.85255   1.85561   1.86627   1.87792   1.88915
 Alpha virt. eigenvalues --    1.89537   1.91880   1.92926   1.94045   1.94843
 Alpha virt. eigenvalues --    1.97720   1.98864   2.00132   2.02971   2.03174
 Alpha virt. eigenvalues --    2.03958   2.05253   2.07071   2.07945   2.09052
 Alpha virt. eigenvalues --    2.10103   2.11839   2.14390   2.15663   2.17422
 Alpha virt. eigenvalues --    2.18597   2.19691   2.21275   2.23099   2.23526
 Alpha virt. eigenvalues --    2.24101   2.25721   2.27217   2.28158   2.29634
 Alpha virt. eigenvalues --    2.33974   2.37010   2.37667   2.38986   2.40293
 Alpha virt. eigenvalues --    2.40743   2.42400   2.44410   2.45104   2.48510
 Alpha virt. eigenvalues --    2.48768   2.54650   2.56045   2.59521   2.67449
 Alpha virt. eigenvalues --    2.69108   2.70528   2.72399   2.73721   2.74807
 Alpha virt. eigenvalues --    2.76879   2.77613   2.81814   2.84084   2.84483
 Alpha virt. eigenvalues --    2.85314   2.90699   2.95151   2.97924   3.00244
 Alpha virt. eigenvalues --    3.00537   3.03398   3.04020   3.08921   3.12791
 Alpha virt. eigenvalues --    3.12929   3.13467   3.13737   3.15780   3.16003
 Alpha virt. eigenvalues --    3.18149   3.22215   3.22957   3.27753   3.28685
 Alpha virt. eigenvalues --    3.29252   3.34313   3.39809   3.45178   3.55249
 Alpha virt. eigenvalues --    3.60902   3.67084   3.72993   3.78833   3.80063
 Alpha virt. eigenvalues --    3.92210   3.95212
          Condensed to atoms (all electrons):
               1          2          3          4          5          6
     1  F    8.962112   0.364979  -0.078609   0.003825  -0.000058   0.000420
     2  C    0.364979   4.063724   0.291553  -0.035344   0.005475  -0.038755
     3  C   -0.078609   0.291553   5.751252   0.241572   0.072663   0.256619
     4  C    0.003825  -0.035344   0.241572   5.032892   0.314353   0.040939
     5  C   -0.000058   0.005475   0.072663   0.314353   5.170020  -0.117895
     6  C    0.000420  -0.038755   0.256619   0.040939  -0.117895   5.027477
     7  C    0.001259   0.006292   0.071951  -0.119235   0.041045   0.309973
     8  C   -0.000035   0.000678  -0.177621   0.116796   0.237504   0.114520
     9  N   -0.000000   0.000007  -0.000052   0.006743  -0.077157   0.007306
    10  C   -0.000000  -0.000001   0.000019   0.000428  -0.010777  -0.000293
    11  C    0.000000   0.000000  -0.000044  -0.000459  -0.004520   0.000072
    12  C   -0.000000  -0.000000   0.000001  -0.000012  -0.000434   0.000000
    13  C   -0.000000   0.000000  -0.000000   0.000000  -0.000044  -0.000000
    14  C    0.000000   0.000000  -0.000000   0.000000   0.000068   0.000000
    15  C   -0.000000  -0.000000  -0.000000   0.000005  -0.000025  -0.000006
    16  F   -0.035533   0.363659  -0.078438   0.000837   0.001152   0.003437
    17  F   -0.037623   0.367160  -0.069654  -0.001969  -0.000029  -0.002644
    18  H    0.000172  -0.009824  -0.075437   0.455672  -0.056939   0.012724
    19  H    0.000000  -0.000205   0.016609  -0.065399   0.466087  -0.002355
    20  H    0.008323  -0.011100  -0.072327   0.012529  -0.001487   0.453111
    21  H   -0.000008  -0.000206   0.017178  -0.002575   0.016776  -0.063163
    22  H    0.000000   0.000001  -0.000036  -0.000192   0.008718   0.000432
    23  H    0.000000   0.000001  -0.000109   0.000815   0.002374   0.000019
    24  H    0.000000  -0.000000   0.000000  -0.000002   0.000039  -0.000000
    25  H    0.000000   0.000000   0.000000  -0.000000   0.000000  -0.000000
    26  H   -0.000000  -0.000000  -0.000000  -0.000000  -0.000000   0.000000
    27  H    0.000000   0.000000   0.000000  -0.000000  -0.000009  -0.000001
               7          8          9         10         11         12
     1  F    0.001259  -0.000035  -0.000000  -0.000000   0.000000  -0.000000
     2  C    0.006292   0.000678   0.000007  -0.000001   0.000000  -0.000000
     3  C    0.071951  -0.177621  -0.000052   0.000019  -0.000044   0.000001
     4  C   -0.119235   0.116796   0.006743   0.000428  -0.000459  -0.000012
     5  C    0.041045   0.237504  -0.077157  -0.010777  -0.004520  -0.000434
     6  C    0.309973   0.114520   0.007306  -0.000293   0.000072   0.000000
     7  C    5.155057   0.259977  -0.083273   0.007568  -0.000045  -0.000001
     8  C    0.259977   5.111442   0.358541  -0.036391  -0.010845   0.000225
     9  N   -0.083273   0.358541   6.451742   0.347275  -0.078010   0.007291
    10  C    0.007568  -0.036391   0.347275   5.087970   0.248873   0.116792
    11  C   -0.000045  -0.010845  -0.078010   0.248873   5.199205   0.294159
    12  C   -0.000001   0.000225   0.007291   0.116792   0.294159   5.018540
    13  C    0.000000   0.000051  -0.000305  -0.162212   0.080539   0.287581
    14  C   -0.000007  -0.000301   0.007638   0.115040  -0.146060   0.095400
    15  C   -0.000127   0.007478  -0.083576   0.273055   0.058418  -0.146197
    16  F   -0.000049  -0.000030  -0.000000  -0.000000   0.000000  -0.000000
    17  F   -0.000086  -0.000022  -0.000000   0.000000  -0.000000  -0.000000
    18  H   -0.001593   0.014278  -0.000109  -0.000012   0.000040  -0.000002
    19  H    0.014828  -0.076955  -0.010800   0.003829   0.002717   0.000987
    20  H   -0.056051   0.014105  -0.000110   0.000004  -0.000000  -0.000000
    21  H    0.457772  -0.083592  -0.009559  -0.000038  -0.000003   0.000000
    22  H   -0.016722  -0.019672   0.362176  -0.019514   0.008349  -0.000141
    23  H   -0.000659   0.003669  -0.011235  -0.073815   0.459911  -0.062859
    24  H    0.000000  -0.000018  -0.000114   0.015271  -0.067945   0.454209
    25  H    0.000000   0.000000   0.000009  -0.001649   0.015047  -0.069547
    26  H   -0.000000   0.000005  -0.000116   0.015250  -0.001920   0.013987
    27  H   -0.000019  -0.000036  -0.010061  -0.080394   0.017003  -0.002555
              13         14         15         16         17         18
     1  F   -0.000000   0.000000  -0.000000  -0.035533  -0.037623   0.000172
     2  C    0.000000   0.000000  -0.000000   0.363659   0.367160  -0.009824
     3  C   -0.000000  -0.000000  -0.000000  -0.078438  -0.069654  -0.075437
     4  C    0.000000   0.000000   0.000005   0.000837  -0.001969   0.455672
     5  C   -0.000044   0.000068  -0.000025   0.001152  -0.000029  -0.056939
     6  C   -0.000000   0.000000  -0.000006   0.003437  -0.002644   0.012724
     7  C    0.000000  -0.000007  -0.000127  -0.000049  -0.000086  -0.001593
     8  C    0.000051  -0.000301   0.007478  -0.000030  -0.000022   0.014278
     9  N   -0.000305   0.007638  -0.083576  -0.000000  -0.000000  -0.000109
    10  C   -0.162212   0.115040   0.273055  -0.000000   0.000000  -0.000012
    11  C    0.080539  -0.146060   0.058418   0.000000  -0.000000   0.000040
    12  C    0.287581   0.095400  -0.146197  -0.000000  -0.000000  -0.000002
    13  C    5.097438   0.288095   0.081123   0.000000   0.000000   0.000000
    14  C    0.288095   5.017028   0.296392  -0.000000  -0.000000  -0.000000
    15  C    0.081123   0.296392   5.171585   0.000000   0.000000   0.000000
    16  F    0.000000  -0.000000   0.000000   8.964757  -0.037711   0.007410
    17  F    0.000000  -0.000000   0.000000  -0.037711   8.969265   0.000182
    18  H    0.000000  -0.000000   0.000000   0.007410   0.000182   0.644635
    19  H   -0.000131   0.000039  -0.000673  -0.000014   0.000001  -0.011978
    20  H    0.000000   0.000000  -0.000000   0.000190   0.000093  -0.000254
    21  H    0.000000  -0.000001  -0.000023   0.000001   0.000001   0.000021
    22  H   -0.000037   0.000419  -0.016286   0.000000  -0.000000   0.000009
    23  H    0.014610  -0.002306   0.015008   0.000000  -0.000000   0.000043
    24  H   -0.071135   0.014162  -0.001937  -0.000000  -0.000000  -0.000000
    25  H    0.453755  -0.070268   0.014658   0.000000  -0.000000   0.000000
    26  H   -0.069308   0.451880  -0.067184  -0.000000   0.000000   0.000000
    27  H    0.015241  -0.061122   0.451749   0.000000  -0.000000  -0.000000
              19         20         21         22         23         24
     1  F    0.000000   0.008323  -0.000008   0.000000   0.000000   0.000000
     2  C   -0.000205  -0.011100  -0.000206   0.000001   0.000001  -0.000000
     3  C    0.016609  -0.072327   0.017178  -0.000036  -0.000109   0.000000
     4  C   -0.065399   0.012529  -0.002575  -0.000192   0.000815  -0.000002
     5  C    0.466087  -0.001487   0.016776   0.008718   0.002374   0.000039
     6  C   -0.002355   0.453111  -0.063163   0.000432   0.000019  -0.000000
     7  C    0.014828  -0.056051   0.457772  -0.016722  -0.000659   0.000000
     8  C   -0.076955   0.014105  -0.083592  -0.019672   0.003669  -0.000018
     9  N   -0.010800  -0.000110  -0.009559   0.362176  -0.011235  -0.000114
    10  C    0.003829   0.000004  -0.000038  -0.019514  -0.073815   0.015271
    11  C    0.002717  -0.000000  -0.000003   0.008349   0.459911  -0.067945
    12  C    0.000987  -0.000000   0.000000  -0.000141  -0.062859   0.454209
    13  C   -0.000131   0.000000   0.000000  -0.000037   0.014610  -0.071135
    14  C    0.000039   0.000000  -0.000001   0.000419  -0.002306   0.014162
    15  C   -0.000673  -0.000000  -0.000023  -0.016286   0.015008  -0.001937
    16  F   -0.000014   0.000190   0.000001   0.000000   0.000000  -0.000000
    17  F    0.000001   0.000093   0.000001  -0.000000  -0.000000  -0.000000
    18  H   -0.011978  -0.000254   0.000021   0.000009   0.000043  -0.000000
    19  H    0.646485   0.000017  -0.000189  -0.000157  -0.004168   0.000060
    20  H    0.000017   0.643930  -0.012226  -0.000014  -0.000002   0.000000
    21  H   -0.000189  -0.012226   0.679896   0.005125  -0.000016  -0.000000
    22  H   -0.000157  -0.000014   0.005125   0.543046  -0.000206   0.000010
    23  H   -0.004168  -0.000002  -0.000016  -0.000206   0.657022  -0.012893
    24  H    0.000060   0.000000  -0.000000   0.000010  -0.012893   0.668421
    25  H   -0.000001   0.000000   0.000000  -0.000001  -0.000230  -0.012325
    26  H   -0.000001  -0.000000   0.000000  -0.000016   0.000021  -0.000262
    27  H   -0.000015   0.000000  -0.000016   0.005334  -0.000199   0.000025
              25         26         27
     1  F    0.000000  -0.000000   0.000000
     2  C    0.000000  -0.000000   0.000000
     3  C    0.000000  -0.000000   0.000000
     4  C   -0.000000  -0.000000  -0.000000
     5  C    0.000000  -0.000000  -0.000009
     6  C   -0.000000   0.000000  -0.000001
     7  C    0.000000  -0.000000  -0.000019
     8  C    0.000000   0.000005  -0.000036
     9  N    0.000009  -0.000116  -0.010061
    10  C   -0.001649   0.015250  -0.080394
    11  C    0.015047  -0.001920   0.017003
    12  C   -0.069547   0.013987  -0.002555
    13  C    0.453755  -0.069308   0.015241
    14  C   -0.070268   0.451880  -0.061122
    15  C    0.014658  -0.067184   0.451749
    16  F    0.000000  -0.000000   0.000000
    17  F   -0.000000   0.000000  -0.000000
    18  H    0.000000   0.000000  -0.000000
    19  H   -0.000001  -0.000001  -0.000015
    20  H    0.000000  -0.000000   0.000000
    21  H    0.000000   0.000000  -0.000016
    22  H   -0.000001  -0.000016   0.005334
    23  H   -0.000230   0.000021  -0.000199
    24  H   -0.012325  -0.000262   0.000025
    25  H    0.672902  -0.012364  -0.000238
    26  H   -0.012364   0.668944  -0.013197
    27  H   -0.000238  -0.013197   0.689587
 Mulliken charges:
               1
     1  F   -0.189223
     2  C    0.631907
     3  C   -0.167089
     4  C   -0.002218
     5  C   -0.066901
     6  C   -0.001937
     7  C   -0.047855
     8  C    0.166249
     9  N   -0.184250
    10  C    0.153719
    11  C   -0.074482
    12  C   -0.007424
    13  C   -0.015259
    14  C   -0.006097
    15  C   -0.053437
    16  F   -0.189667
    17  F   -0.186965
    18  H    0.020963
    19  H    0.021382
    20  H    0.021270
    21  H   -0.005154
    22  H    0.139377
    23  H    0.015204
    24  H    0.014435
    25  H    0.010251
    26  H    0.014281
    27  H   -0.011079
 Sum of Mulliken charges =  -0.00000
 Mulliken charges with hydrogens summed into heavy atoms:
               1
     1  F   -0.189223
     2  C    0.631907
     3  C   -0.167089
     4  C    0.018745
     5  C   -0.045518
     6  C    0.019332
     7  C   -0.053009
     8  C    0.166249
     9  N   -0.044872
    10  C    0.153719
    11  C   -0.059278
    12  C    0.007011
    13  C   -0.005008
    14  C    0.008184
    15  C   -0.064517
    16  F   -0.189667
    17  F   -0.186965
 Electronic spatial extent (au):  <R**2>=           5842.6852
 Charge=             -0.0000 electrons
 Dipole moment (field-independent basis, Debye):
    X=              2.6527    Y=              1.3921    Z=             -0.0146  Tot=              2.9959
 Quadrupole moment (field-independent basis, Debye-Ang):
   XX=            -99.7516   YY=            -85.9120   ZZ=            -99.9276
   XY=             -0.1528   XZ=              2.2670   YZ=             -0.1894
 Traceless Quadrupole moment (field-independent basis, Debye-Ang):
   XX=             -4.5545   YY=              9.2851   ZZ=             -4.7306
   XY=             -0.1528   XZ=              2.2670   YZ=             -0.1894
 Octapole moment (field-independent basis, Debye-Ang**2):
  XXX=             -8.5131  YYY=              6.8327  ZZZ=              0.5600  XYY=            -13.2289
  XXY=              3.5380  XXZ=              8.9371  XZZ=            -34.3430  YZZ=             -4.8410
  YYZ=             -3.2366  XYZ=             12.8513
 Hexadecapole moment (field-independent basis, Debye-Ang**3):
 XXXX=          -6136.6337 YYYY=           -670.3123 ZZZZ=           -262.0521 XXXY=              3.6246
 XXXZ=             84.9653 YYYX=             40.4753 YYYZ=             -1.8893 ZZZX=              1.2885
 ZZZY=             -0.2113 XXYY=          -1105.1071 XXZZ=          -1150.7306 YYZZ=           -161.3332
 XXYZ=             33.4439 YYXZ=             -5.2119 ZZXY=             20.4117
 N-N= 1.126386335476D+03 E-N=-4.252478362956D+03  KE= 8.475304438313D+02
   1 Symmetry operations used in ECPInt.
 ECPInt:  NShTT=    8778 NPrTT=   32636 LenC2=    7794 LenP2D=   20647.
 LDataN:  DoStor=T MaxTD1= 5 Len=  102
 Calling FoFJK, ICntrl=      2127 FMM=F ISym2X=0 I1Cent= 0 IOpClX= 0 NMat=1 NMatS=1 NMatT=0.
 ***** Axes restored to original set *****
 -------------------------------------------------------------------
 Center     Atomic                   Forces (Hartrees/Bohr)
 Number     Number              X              Y              Z
 -------------------------------------------------------------------
      1        9           0.008435758   -0.014060693   -0.015686687
      2        6          -0.036885912    0.009959273    0.002521900
      3        6           0.016812768   -0.005066627    0.002355585
      4        6           0.002573974   -0.002071596    0.000148588
      5        6          -0.004720714    0.000418939   -0.002745869
      6        6           0.004097877    0.001440129   -0.000866901
      7        6          -0.006711290    0.001328018    0.000076063
      8        6          -0.024096024    0.004866992   -0.001166941
      9        7           0.004742754   -0.002407890    0.000120427
     10        6           0.016137668    0.007916163    0.000435751
     11        6           0.006750113    0.003957340    0.002149568
     12        6          -0.002501549   -0.001037821   -0.001061880
     13        6          -0.007257200   -0.005102133   -0.000321680
     14        6          -0.002595723   -0.000825832    0.001453817
     15        6           0.008626037    0.004389889   -0.001169800
     16        9           0.016732469    0.014721075   -0.004197460
     17        9           0.011468661   -0.010004988    0.016294384
     18        1          -0.000282695   -0.009971101   -0.004173799
     19        1          -0.006195542   -0.007606313   -0.004100449
     20        1           0.005004725    0.008206528    0.004451933
     21        1          -0.002419181    0.011041913    0.004852455
     22        1           0.001016256   -0.005746552    0.000624609
     23        1           0.008595526   -0.005139326    0.004592355
     24        1           0.001044664   -0.009492260    0.004566676
     25        1          -0.008726123   -0.005858568    0.000029099
     26        1          -0.008765881    0.004572727   -0.003832705
     27        1          -0.000881416    0.011572713   -0.005349040
 -------------------------------------------------------------------
 Cartesian Forces:  Max     0.036885912 RMS     0.008444677

 GradGradGradGradGradGradGradGradGradGradGradGradGradGradGradGradGradGrad
 Berny optimization.
 FormGI is forming the generalized inverse of G from B-inverse, IUseBI=4.
 Internal  Forces:  Max     0.024307665 RMS     0.007681567
 Search for a local minimum.
 Step number   1 out of a maximum of  145
 All quantities printed in internal units (Hartrees-Bohrs-Radians)
 Mixed Optimization -- RFO/linear search
 Second derivative matrix not updated -- first step.
 ITU=  0
     Eigenvalues ---    0.00526   0.01531   0.01535   0.01539   0.01614
     Eigenvalues ---    0.01982   0.01989   0.02198   0.02203   0.02279
     Eigenvalues ---    0.02283   0.02301   0.02308   0.02348   0.02349
     Eigenvalues ---    0.02355   0.02363   0.02367   0.02381   0.02386
     Eigenvalues ---    0.02389   0.02393   0.11590   0.11688   0.15988
     Eigenvalues ---    0.15989   0.15999   0.15999   0.16000   0.16000
     Eigenvalues ---    0.16000   0.16000   0.16000   0.16000   0.21999
     Eigenvalues ---    0.21999   0.22000   0.22000   0.22964   0.23464
     Eigenvalues ---    0.23994   0.24984   0.24985   0.24988   0.25000
     Eigenvalues ---    0.25000   0.25000   0.30547   0.36299   0.36306
     Eigenvalues ---    0.36309   0.36336   0.36339   0.36503   0.36504
     Eigenvalues ---    0.36563   0.36571   0.43186   0.43336   0.43659
     Eigenvalues ---    0.43754   0.43905   0.43940   0.44820   0.47496
     Eigenvalues ---    0.47520   0.48080   0.48088   0.49253   0.49304
     Eigenvalues ---    0.49907   0.50098   0.55276   0.55287   0.55354
 RFO step:  Lambda=-2.28417533D-02 EMin= 5.26124489D-03
 Linear search not attempted -- first point.
 Iteration  1 RMS(Cart)=  0.08641226 RMS(Int)=  0.00220545
 Iteration  2 RMS(Cart)=  0.00407008 RMS(Int)=  0.00074910
 Iteration  3 RMS(Cart)=  0.00000774 RMS(Int)=  0.00074909
 Iteration  4 RMS(Cart)=  0.00000001 RMS(Int)=  0.00074909
 Variable       Old X    -DE/DX   Delta X   Delta X   Delta X     New X
                                 (Linear)    (Quad)   (Total)
    R1        2.54878  -0.01417   0.00000  -0.02461  -0.02461   2.52417
    R2        2.86885  -0.00039   0.00000  -0.00120  -0.00120   2.86765
    R3        2.54887  -0.01420   0.00000  -0.02467  -0.02467   2.52420
    R4        2.54819  -0.01250   0.00000  -0.02169  -0.02169   2.52650
    R5        2.60839   0.01637   0.00000   0.03245   0.03246   2.64084
    R6        2.60879   0.01523   0.00000   0.03012   0.03013   2.63892
    R7        2.59745   0.01458   0.00000   0.02796   0.02796   2.62542
    R8        2.03554   0.01029   0.00000   0.02664   0.02664   2.06218
    R9        2.63416   0.01153   0.00000   0.02314   0.02313   2.65729
   R10        2.03198   0.01051   0.00000   0.02704   0.02704   2.05902
   R11        2.59789   0.01419   0.00000   0.02697   0.02697   2.62486
   R12        2.03559   0.01011   0.00000   0.02617   0.02617   2.06176
   R13        2.63472   0.00951   0.00000   0.01888   0.01887   2.65360
   R14        2.03300   0.01226   0.00000   0.03160   0.03160   2.06460
   R15        2.66750  -0.01642   0.00000  -0.03566  -0.03566   2.63184
   R16        2.66865  -0.01136   0.00000  -0.02473  -0.02473   2.64392
   R17        1.92185  -0.00585   0.00000  -0.01241  -0.01241   1.90944
   R18        2.63387   0.01081   0.00000   0.02170   0.02169   2.65556
   R19        2.63422   0.00886   0.00000   0.01760   0.01759   2.65181
   R20        2.59950   0.01723   0.00000   0.03314   0.03314   2.63264
   R21        2.03211   0.01091   0.00000   0.02809   0.02809   2.06020
   R22        2.60840   0.01441   0.00000   0.02856   0.02857   2.63697
   R23        2.03606   0.01054   0.00000   0.02732   0.02732   2.06338
   R24        2.60852   0.01388   0.00000   0.02742   0.02743   2.63595
   R25        2.03617   0.01051   0.00000   0.02723   0.02723   2.06340
   R26        2.59969   0.01658   0.00000   0.03165   0.03164   2.63134
   R27        2.03601   0.01058   0.00000   0.02740   0.02740   2.06341
   R28        2.03302   0.01276   0.00000   0.03289   0.03289   2.06591
    A1        1.90133   0.02321   0.00000   0.08591   0.08206   1.98338
    A2        1.92380  -0.02172   0.00000  -0.07689  -0.08039   1.84341
    A3        1.92373  -0.02337   0.00000  -0.08668  -0.08994   1.83379
    A4        1.89949   0.02303   0.00000   0.08492   0.08112   1.98062
    A5        1.89144   0.02431   0.00000   0.08775   0.08411   1.97555
    A6        1.92344  -0.02345   0.00000  -0.08768  -0.09085   1.83259
    A7        2.09499   0.00133   0.00000   0.00389   0.00386   2.09885
    A8        2.09908   0.00141   0.00000   0.00420   0.00417   2.10324
    A9        2.08869  -0.00275   0.00000  -0.00837  -0.00836   2.08033
   A10        2.09993   0.00118   0.00000   0.00627   0.00627   2.10621
   A11        2.07103   0.00279   0.00000   0.01536   0.01535   2.08637
   A12        2.11223  -0.00398   0.00000  -0.02165  -0.02166   2.09056
   A13        2.10582  -0.00111   0.00000  -0.00520  -0.00522   2.10060
   A14        2.09602  -0.00108   0.00000  -0.00627  -0.00627   2.08975
   A15        2.08064   0.00220   0.00000   0.01169   0.01169   2.09233
   A16        2.10011   0.00025   0.00000   0.00158   0.00158   2.10169
   A17        2.07114   0.00307   0.00000   0.01666   0.01665   2.08778
   A18        2.11193  -0.00332   0.00000  -0.01827  -0.01829   2.09365
   A19        2.10523   0.00071   0.00000   0.00142   0.00140   2.10663
   A20        2.09967  -0.00127   0.00000  -0.00569  -0.00568   2.09399
   A21        2.07821   0.00056   0.00000   0.00428   0.00429   2.08251
   A22        2.06625   0.00172   0.00000   0.00430   0.00426   2.07051
   A23        2.12200   0.00549   0.00000   0.02099   0.02098   2.14298
   A24        2.09445  -0.00722   0.00000  -0.02560  -0.02560   2.06885
   A25        2.23441   0.00550   0.00000   0.02267   0.02267   2.25708
   A26        2.02416  -0.00285   0.00000  -0.01184  -0.01184   2.01232
   A27        2.02460  -0.00266   0.00000  -0.01082  -0.01082   2.01378
   A28        2.12236   0.00566   0.00000   0.02142   0.02140   2.14377
   A29        2.09418  -0.00767   0.00000  -0.02745  -0.02745   2.06673
   A30        2.06612   0.00200   0.00000   0.00567   0.00562   2.07174
   A31        2.10710  -0.00189   0.00000  -0.00816  -0.00817   2.09893
   A32        2.07881   0.00249   0.00000   0.01259   0.01259   2.09140
   A33        2.09662  -0.00060   0.00000  -0.00431  -0.00431   2.09231
   A34        2.09647   0.00239   0.00000   0.01129   0.01130   2.10777
   A35        2.09352  -0.00206   0.00000  -0.01040  -0.01041   2.08310
   A36        2.09318  -0.00033   0.00000  -0.00093  -0.00095   2.09224
   A37        2.09313  -0.00385   0.00000  -0.01387  -0.01386   2.07927
   A38        2.09493   0.00203   0.00000   0.00752   0.00751   2.10244
   A39        2.09511   0.00182   0.00000   0.00633   0.00633   2.10144
   A40        2.09675   0.00148   0.00000   0.00676   0.00675   2.10350
   A41        2.09309   0.00004   0.00000   0.00091   0.00091   2.09400
   A42        2.09335  -0.00153   0.00000  -0.00768  -0.00768   2.08566
   A43        2.10661  -0.00013   0.00000  -0.00173  -0.00176   2.10485
   A44        2.07589   0.00074   0.00000   0.00456   0.00457   2.08046
   A45        2.10062  -0.00060   0.00000  -0.00278  -0.00278   2.09784
    D1       -2.67405  -0.00077   0.00000  -0.00954  -0.00964  -2.68370
    D2        0.49893  -0.00032   0.00000   0.00115   0.00109   0.50002
    D3       -0.57596   0.00040   0.00000  -0.00115  -0.00106  -0.57702
    D4        2.59702   0.00084   0.00000   0.00954   0.00968   2.60670
    D5        1.51588  -0.00033   0.00000  -0.00640  -0.00646   1.50942
    D6       -1.59432   0.00011   0.00000   0.00429   0.00428  -1.59004
    D7       -3.12765   0.00068   0.00000   0.01553   0.01552  -3.11213
    D8        0.01133   0.00031   0.00000   0.00799   0.00788   0.01921
    D9       -0.01726   0.00031   0.00000   0.00512   0.00514  -0.01212
   D10        3.12172  -0.00006   0.00000  -0.00241  -0.00249   3.11923
   D11        3.12532  -0.00022   0.00000  -0.00624  -0.00621   3.11910
   D12       -0.02044  -0.00060   0.00000  -0.01393  -0.01400  -0.03444
   D13        0.01500   0.00015   0.00000   0.00420   0.00419   0.01919
   D14       -3.13076  -0.00023   0.00000  -0.00350  -0.00359  -3.13435
   D15       -0.00128  -0.00049   0.00000  -0.01027  -0.01028  -0.01156
   D16        3.09982  -0.00019   0.00000  -0.00383  -0.00389   3.09593
   D17       -3.14020  -0.00013   0.00000  -0.00261  -0.00268   3.14030
   D18       -0.03910   0.00018   0.00000   0.00383   0.00371  -0.03539
   D19        0.02162   0.00028   0.00000   0.00617   0.00616   0.02779
   D20        3.12948  -0.00031   0.00000  -0.00499  -0.00514   3.12434
   D21       -3.07983   0.00006   0.00000   0.00020   0.00018  -3.07966
   D22        0.02803  -0.00054   0.00000  -0.01097  -0.01113   0.01690
   D23        0.00581  -0.00042   0.00000  -0.00843  -0.00844  -0.00263
   D24        3.13452  -0.00037   0.00000  -0.00730  -0.00733   3.12718
   D25       -3.13152  -0.00004   0.00000  -0.00064  -0.00071  -3.13223
   D26       -0.00281   0.00001   0.00000   0.00049   0.00040  -0.00242
   D27       -0.02388   0.00016   0.00000   0.00311   0.00310  -0.02078
   D28       -3.13229   0.00049   0.00000   0.01317   0.01301  -3.11927
   D29        3.13045   0.00012   0.00000   0.00206   0.00207   3.13252
   D30        0.02204   0.00046   0.00000   0.01212   0.01199   0.03402
   D31        0.45037   0.00111   0.00000   0.02877   0.02876   0.47913
   D32       -2.69700   0.00114   0.00000   0.02956   0.02955  -2.66745
   D33       -2.72549   0.00068   0.00000   0.01802   0.01803  -2.70746
   D34        0.41033   0.00071   0.00000   0.01881   0.01882   0.42914
   D35        0.43747   0.00163   0.00000   0.04237   0.04236   0.47983
   D36       -2.73940   0.00114   0.00000   0.03027   0.03029  -2.70911
   D37       -2.69835   0.00160   0.00000   0.04158   0.04157  -2.65677
   D38        0.40798   0.00111   0.00000   0.02949   0.02950   0.43747
   D39        3.12590  -0.00035   0.00000  -0.00559  -0.00579   3.12011
   D40        0.02326  -0.00045   0.00000  -0.00884  -0.00900   0.01427
   D41        0.01903   0.00032   0.00000   0.00698   0.00697   0.02599
   D42       -3.08361   0.00023   0.00000   0.00373   0.00375  -3.07985
   D43       -3.12830   0.00054   0.00000   0.01421   0.01401  -3.11428
   D44        0.02592   0.00036   0.00000   0.01016   0.00999   0.03591
   D45       -0.02085   0.00014   0.00000   0.00284   0.00280  -0.01805
   D46        3.13337  -0.00003   0.00000  -0.00121  -0.00122   3.13215
   D47       -0.00523  -0.00038   0.00000  -0.00829  -0.00830  -0.01354
   D48       -3.14012  -0.00005   0.00000  -0.00130  -0.00129  -3.14141
   D49        3.09700  -0.00022   0.00000  -0.00464  -0.00471   3.09229
   D50       -0.03789   0.00011   0.00000   0.00236   0.00230  -0.03559
   D51       -0.00721   0.00002   0.00000  -0.00015  -0.00011  -0.00732
   D52        3.14070   0.00015   0.00000   0.00294   0.00296  -3.13952
   D53        3.12769  -0.00032   0.00000  -0.00718  -0.00720   3.12049
   D54       -0.00759  -0.00019   0.00000  -0.00409  -0.00412  -0.01172
   D55        0.00539   0.00046   0.00000   0.00997   0.00998   0.01537
   D56       -3.13607   0.00008   0.00000   0.00221   0.00215  -3.13392
   D57        3.14066   0.00033   0.00000   0.00688   0.00691  -3.13561
   D58       -0.00079  -0.00005   0.00000  -0.00088  -0.00093  -0.00172
   D59        0.00889  -0.00057   0.00000  -0.01141  -0.01147  -0.00258
   D60        3.13767  -0.00038   0.00000  -0.00725  -0.00735   3.13032
   D61       -3.13284  -0.00018   0.00000  -0.00364  -0.00367  -3.13652
   D62       -0.00406   0.00000   0.00000   0.00052   0.00044  -0.00361
         Item               Value     Threshold  Converged?
 Maximum Force            0.024308     0.000450     NO 
 RMS     Force            0.007682     0.000300     NO 
 Maximum Displacement     0.385885     0.001800     NO 
 RMS     Displacement     0.088877     0.001200     NO 
 Predicted change in Energy=-1.231384D-02
 GradGradGradGradGradGradGradGradGradGradGradGradGradGradGradGradGradGrad

                          Input orientation:                          
 ---------------------------------------------------------------------
 Center     Atomic      Atomic             Coordinates (Angstroms)
 Number     Number       Type             X           Y           Z
 ---------------------------------------------------------------------
      1          9           0        4.461462    0.338417    0.897491
      2          6           0        3.738854   -0.263903   -0.050789
      3          6           0        2.266225    0.100842   -0.017399
      4          6           0        1.309812   -0.785049   -0.520795
      5          6           0       -0.037362   -0.445530   -0.526510
      6          6           0        1.854507    1.343349    0.469183
      7          6           0        0.508364    1.685740    0.474177
      8          6           0       -0.460356    0.792670   -0.011466
      9          7           0       -1.794332    1.192854   -0.010229
     10          6           0       -2.954355    0.411316    0.021927
     11          6           0       -2.995463   -0.867602    0.602830
     12          6           0       -4.186797   -1.589353    0.627800
     13          6           0       -5.358470   -1.051656    0.093684
     14          6           0       -5.327134    0.227661   -0.461354
     15          6           0       -4.139156    0.953017   -0.499608
     16          9           0        3.966841   -1.571455    0.099404
     17          9           0        4.335870    0.061449   -1.201961
     18          1           0        1.627542   -1.748955   -0.921771
     19          1           0       -0.765255   -1.129721   -0.961544
     20          1           0        2.596084    2.043074    0.857525
     21          1           0        0.192930    2.654383    0.868983
     22          1           0       -1.945494    2.191681   -0.031768
     23          1           0       -2.099440   -1.282236    1.065191
     24          1           0       -4.201959   -2.581693    1.083068
     25          1           0       -6.289903   -1.620966    0.117644
     26          1           0       -6.237536    0.664637   -0.876673
     27          1           0       -4.118360    1.951029   -0.945369
 ---------------------------------------------------------------------
                    Distance matrix (angstroms):
                    1          2          3          4          5
     1  F    0.000000
     2  C    1.335735   0.000000
     3  C    2.390091   1.517495   0.000000
     4  C    3.634089   2.528387   1.397475   0.000000
     5  C    4.783489   3.810394   2.421617   1.389310   0.000000
     6  C    2.826579   2.530690   1.396458   2.409736   2.787591
     7  C    4.197792   3.809563   2.417359   2.781562   2.416920
     8  C    5.025618   4.330272   2.812988   2.425306   1.406177
     9  N    6.378791   5.721882   4.204838   3.715977   2.457192
    10  C    7.467681   6.727574   5.229951   4.461946   3.089307
    11  C    7.559566   6.792842   5.385901   4.450252   3.194357
    12  C    8.864616   8.064319   6.701831   5.672644   4.456297
    13  C    9.950350   9.132509   7.712105   6.701839   5.391310
    14  C    9.883083   9.088583   7.607383   6.714028   5.332834
    15  C    8.735001   7.984070   6.479786   5.719491   4.333748
    16  F    2.128193   1.335750   2.387953   2.839522   4.206319
    17  F    2.121363   1.336966   2.384988   3.215209   4.454033
    18  H    3.962063   2.724266   2.155819   1.091261   2.151059
    19  H    5.738467   4.676121   3.405226   2.149177   1.089587
    20  H    2.527268   2.730037   2.155588   3.398902   3.878626
    21  H    4.856426   4.683583   3.406581   3.874094   3.407330
    22  H    6.734032   6.192097   4.702168   4.438141   3.292510
    23  H    6.760183   6.030596   4.705734   3.792829   2.736011
    24  H    9.144197   8.349509   7.088330   6.014976   4.949526
    25  H   10.956240  10.121559   8.728699   7.672160   6.394596
    26  H   10.850006  10.053489   8.565638   7.693550   6.308506
    27  H    8.922444   8.212309   6.711724   6.093558   4.751157
                    6          7          8          9         10
     6  C    0.000000
     7  C    1.389014   0.000000
     8  C    2.427522   1.404222   0.000000
     9  N    3.683275   2.404161   1.392710   0.000000
    10  C    4.918728   3.717406   2.523208   1.399103   0.000000
    11  C    5.331827   4.337385   3.092027   2.462526   1.405264
    12  C    6.717385   5.726637   4.468676   3.724466   2.426659
    13  C    7.609473   6.485202   5.234894   4.213277   2.815174
    14  C    7.327116   6.087220   4.920078   3.689959   2.428450
    15  C    6.083988   4.804641   3.714507   2.407325   1.403279
    16  F    3.618670   4.765589   5.020105   6.390973   7.200024
    17  F    3.254711   4.483030   4.995572   6.346626   7.400519
    18  H    3.398325   3.872772   3.412892   4.603734   5.152778
    19  H    3.876365   3.407377   2.165917   2.712628   2.852046
    20  H    1.091036   2.152491   3.414744   4.555395   5.845360
    21  H    2.153947   1.092538   2.160544   2.618834   3.956546
    22  H    3.925637   2.556046   2.040412   1.010431   2.047043
    23  H    4.783579   3.994849   2.855000   2.715822   2.165040
    24  H    7.243176   6.385051   5.155960   4.608598   3.411838
    25  H    8.674224   7.568213   6.310779   5.305101   3.907072
    26  H    8.231230   6.955186   5.843012   4.557609   3.413346
    27  H    6.168094   4.846861   3.949047   2.617332   2.159002
                   11         12         13         14         15
    11  C    0.000000
    12  C    1.393135   0.000000
    13  C    2.424233   1.395426   0.000000
    14  C    2.787252   2.405861   1.394884   0.000000
    15  C    2.416207   2.781541   2.420215   1.392443   0.000000
    16  F    7.015877   8.170762   9.339789   9.483103   8.511108
    17  F    7.607158   8.871811   9.843674   9.692768   8.550687
    18  H    4.947057   6.019401   7.093782   7.244758   6.382294
    19  H    2.736750   3.800557   4.713515   4.785751   3.991790
    20  H    6.308906   7.697712   8.569465   8.234837   6.956543
    21  H    4.758263   6.103235   6.719662   6.174940   4.851253
    22  H    3.296113   4.444625   4.709924   3.934134   2.562287
    23  H    1.090209   2.154690   3.408558   3.876614   3.406669
    24  H    2.150435   1.091896   2.158103   3.397606   3.873369
    25  H    3.414132   2.164328   1.091905   2.163235   3.410588
    26  H    3.879139   3.398447   2.158706   1.091911   2.151405
    27  H    3.406244   3.874771   3.410810   2.159954   1.093235
                   16         17         18         19         20
    16  F    0.000000
    17  F    2.120402   0.000000
    18  H    2.558638   3.269726   0.000000
    19  H    4.869648   5.243868   2.471945   0.000000
    20  H    3.939358   3.345918   4.299238   4.967316   0.000000
    21  H    5.717723   5.308112   4.965310   4.311425   2.479713
    22  H    7.009573   6.735189   5.393265   3.645430   4.630211
    23  H    6.149485   6.954040   4.249264   2.431247   5.757496
    24  H    8.289601   9.225079   6.220604   4.254362   8.225128
    25  H   10.256880  10.838770   7.986408   5.650461   9.640196
    26  H   10.492004  10.595591   8.227206   5.759582   9.107160
    27  H    8.880874   8.666623   6.834167   4.553526   6.952889
                   21         22         23         24         25
    21  H    0.000000
    22  H    2.366073   0.000000
    23  H    4.559653   3.646248   0.000000
    24  H    6.839399   5.396258   2.471739   0.000000
    25  H    7.801939   5.782084   4.309590   2.492900   0.000000
    26  H    6.953942   4.633288   4.968399   4.303814   2.493068
    27  H    4.730096   2.369373   4.309570   4.966600   4.313322
                   26         27
    26  H    0.000000
    27  H    2.480006   0.000000
 Stoichiometry    C13H10F3N
 Framework group  C1[X(C13H10F3N)]
 Deg. of freedom    75
 Full point group                 C1      NOp   1
 Largest Abelian subgroup         C1      NOp   1
 Largest concise Abelian subgroup C1      NOp   1
                         Standard orientation:                         
 ---------------------------------------------------------------------
 Center     Atomic      Atomic             Coordinates (Angstroms)
 Number     Number       Type             X           Y           Z
 ---------------------------------------------------------------------
      1          9           0       -4.572972    0.269410   -0.918571
      2          6           0       -3.847203   -0.323392    0.033286
      3          6           0       -2.378628    0.057747    0.004783
      4          6           0       -1.414250   -0.816651    0.513053
      5          6           0       -0.070985   -0.462082    0.523230
      6          6           0       -1.979019    1.304059   -0.482160
      7          6           0       -0.636777    1.661473   -0.482702
      8          6           0        0.340054    0.780008    0.007873
      9          7           0        1.669470    1.195080    0.010957
     10          6           0        2.838266    0.426514   -0.015728
     11          6           0        2.895820   -0.852720   -0.594532
     12          6           0        4.095230   -1.561142   -0.614005
     13          6           0        5.258830   -1.009590   -0.076381
     14          6           0        5.211139    0.270116    0.476595
     15          6           0        4.014995    0.982199    0.509359
     16          9           0       -4.060004   -1.633632   -0.115763
     17          9           0       -4.452085   -0.003036    1.181748
     18          1           0       -1.722673   -1.783457    0.914316
     19          1           0        0.662890   -1.137448    0.961988
     20          1           0       -2.726923    1.994874   -0.874301
     21          1           0       -0.330725    2.632998   -0.877810
     22          1           0        1.809379    2.195566    0.031537
     23          1           0        2.006209   -1.278029   -1.059570
     24          1           0        4.123171   -2.553921   -1.067706
     25          1           0        6.196650   -1.568484   -0.096035
     26          1           0        6.115054    0.717857    0.894610
     27          1           0        3.981394    1.980573    0.953524
 ---------------------------------------------------------------------
 Rotational constants (GHZ):           1.5700044           0.1743371           0.1647784
 Standard basis: def2SVP (5D, 7F)
 There are   305 symmetry adapted cartesian basis functions of A   symmetry.
 There are   288 symmetry adapted basis functions of A   symmetry.
   288 basis functions,   495 primitive gaussians,   305 cartesian basis functions
    61 alpha electrons       61 beta electrons
       nuclear repulsion energy      1117.6068539641 Hartrees.
 NAtoms=   27 NActive=   27 NUniq=   27 SFac= 1.00D+00 NAtFMM=   60 NAOKFM=F Big=F
 Integral buffers will be    131072 words long.
 Raffenetti 2 integral format.
 Two-electron integral symmetry is turned on.
 Nuclear repulsion after empirical dispersion term =     1117.5905041216 Hartrees.
 One-electron integrals computed using PRISM.
   1 Symmetry operations used in ECPInt.
 ECPInt:  NShTT=    8778 NPrTT=   32636 LenC2=    7748 LenP2D=   20509.
 LDataN:  DoStor=T MaxTD1= 4 Len=   56
 NBasis=   288 RedAO= T EigKep=  2.58D-04  NBF=   288
 NBsUse=   288 1.00D-06 EigRej= -1.00D+00 NBFU=   288
 Initial guess from the checkpoint file:  "prod_3k_1.chk"
 B after Tr=     0.000000    0.000000    0.000000
         Rot=    0.999994    0.003070    0.001275    0.000344 Ang=   0.38 deg.
 ExpMin= 1.22D-01 ExpMax= 2.89D+03 ExpMxC= 4.35D+02 IAcc=3 IRadAn=         5 AccDes= 0.00D+00
 Harris functional with IExCor= 4639 and IRadAn=       5 diagonalized for initial guess.
 HarFok:  IExCor= 4639 AccDes= 0.00D+00 IRadAn=         5 IDoV= 1 UseB2=F ITyADJ=14
 ICtDFT=  3500011 ScaDFX=  1.000000  1.000000  1.000000  1.000000
 FoFCou: FMM=F IPFlag=           0 FMFlag=      100000 FMFlg1=           0
         NFxFlg=           0 DoJE=T BraDBF=F KetDBF=T FulRan=T
         wScrn=  0.000000 ICntrl=       500 IOpCl=  0 I1Cent=   200000004 NGrid=           0
         NMat0=    1 NMatS0=      1 NMatT0=    0 NMatD0=    1 NMtDS0=    0 NMtDT0=    0
 Petite list used in FoFCou.
 Requested convergence on RMS density matrix=1.00D-08 within 128 cycles.
 Requested convergence on MAX density matrix=1.00D-06.
 Requested convergence on             energy=1.00D-06.
 No special actions if energy rises.
 Integral accuracy reduced to 1.0D-05 until final iterations.
 Initial convergence to 1.0D-05 achieved.  Increase integral accuracy.
 SCF Done:  E(RwB97XD) =  -854.813393483     A.U. after   13 cycles
            NFock= 13  Conv=0.70D-08     -V/T= 2.0091
   1 Symmetry operations used in ECPInt.
 ECPInt:  NShTT=    8778 NPrTT=   32636 LenC2=    7748 LenP2D=   20509.
 LDataN:  DoStor=T MaxTD1= 5 Len=  102
 Calling FoFJK, ICntrl=      2127 FMM=F ISym2X=0 I1Cent= 0 IOpClX= 0 NMat=1 NMatS=1 NMatT=0.
 ***** Axes restored to original set *****
 -------------------------------------------------------------------
 Center     Atomic                   Forces (Hartrees/Bohr)
 Number     Number              X              Y              Z
 -------------------------------------------------------------------
      1        9          -0.006450862    0.007593240    0.007283265
      2        6           0.009863402   -0.002477532   -0.000519265
      3        6           0.007981013   -0.002658052    0.000579002
      4        6           0.001411411    0.000930249    0.001088093
      5        6           0.000347290    0.000422260    0.000138089
      6        6           0.000826758   -0.000317510   -0.000817996
      7        6           0.002536185   -0.000515893    0.000175112
      8        6          -0.005202598    0.000606984   -0.000736249
      9        7           0.002972518   -0.002190116    0.000158908
     10        6           0.000753380   -0.000552553   -0.000154408
     11        6           0.000426670    0.001637476   -0.000077119
     12        6          -0.000662704    0.001650007   -0.001397156
     13        6           0.000523875   -0.000133558    0.000178264
     14        6           0.000923463   -0.000051840    0.000943789
     15        6          -0.000850587   -0.001160043   -0.000650721
     16        9          -0.009958448   -0.006966649    0.001320862
     17        9          -0.005473054    0.005257153   -0.009026798
     18        1          -0.000562176   -0.000469705   -0.000146817
     19        1          -0.000675933   -0.000857245    0.000674534
     20        1          -0.000153168    0.000482594    0.000493892
     21        1           0.000385231   -0.000119197    0.000485454
     22        1          -0.000174836    0.000391615    0.000747069
     23        1           0.000846998   -0.000639849   -0.000468679
     24        1           0.000402841   -0.000145632    0.000284871
     25        1           0.000326876    0.000093165   -0.000064990
     26        1          -0.000049340    0.000405786   -0.000086140
     27        1          -0.000314206   -0.000215156   -0.000404865
 -------------------------------------------------------------------
 Cartesian Forces:  Max     0.009958448 RMS     0.002917196

 GradGradGradGradGradGradGradGradGradGradGradGradGradGradGradGradGradGrad
 Berny optimization.
 Using GEDIIS/GDIIS optimizer.
 FormGI is forming the generalized inverse of G from B-inverse, IUseBI=4.
 Internal  Forces:  Max     0.014171867 RMS     0.003147420
 Search for a local minimum.
[...]
 Alpha virt. eigenvalues --   23.30705  23.42096  32.84204  57.30757  57.33270
 Alpha virt. eigenvalues --   57.40039
          Condensed to atoms (all electrons):
               1          2          3          4          5          6
     1  F    9.005358   0.347423  -0.097985   0.005412  -0.000310   0.015407
     2  C    0.347423   4.111462   0.427805  -0.060795   0.011658  -0.052719
     3  C   -0.097985   0.427805   5.297479   0.331784   0.038844   0.338464
     4  C    0.005412  -0.060795   0.331784   5.125477   0.368776  -0.021036
     5  C   -0.000310   0.011658   0.038844   0.368776   5.279396  -0.069965
     6  C    0.015407  -0.052719   0.338464  -0.021036  -0.069965   5.099367
     7  C    0.001717   0.010881   0.026198  -0.066312  -0.014214   0.407100
     8  C    0.000073  -0.004334  -0.104291   0.027197   0.364417   0.002850
     9  N   -0.000000  -0.000003   0.002059  -0.001058  -0.038848   0.007348
    10  C   -0.000000  -0.000013  -0.000769   0.000981  -0.005267   0.001818
    11  C   -0.000000  -0.000012  -0.000833   0.005351  -0.019327   0.000796
    12  C   -0.000000  -0.000000   0.000015   0.000109   0.003083  -0.000022
    13  C    0.000000  -0.000000  -0.000005   0.000034  -0.000527   0.000007
    14  C    0.000000   0.000000   0.000014  -0.000069   0.001278  -0.000031
    15  C    0.000000   0.000001   0.000144  -0.000295   0.011407  -0.000324
    16  F   -0.046147   0.346666  -0.101829   0.019296   0.002039   0.005860
    17  F   -0.052998   0.352566  -0.084504   0.005682  -0.000718   0.004890
    18  H    0.000194  -0.009382  -0.052133   0.440486  -0.053090   0.010586
    19  H    0.000001  -0.000007   0.007648  -0.029805   0.429937  -0.000840
    20  H    0.007604  -0.006247  -0.055966   0.012346  -0.003502   0.442093
    21  H   -0.000026  -0.000013   0.010262  -0.001392   0.004083  -0.024187
    22  H    0.000000   0.000000   0.000027  -0.000264   0.010771   0.001387
    23  H    0.000000  -0.000001  -0.000161   0.000569  -0.007988   0.000157
    24  H   -0.000000   0.000000   0.000002  -0.000010   0.000084  -0.000001
    25  H    0.000000  -0.000000  -0.000000  -0.000000  -0.000005   0.000000
    26  H   -0.000000  -0.000000  -0.000000   0.000000  -0.000011   0.000000
    27  H    0.000000   0.000000   0.000001   0.000007   0.000330   0.000000
               7          8          9         10         11         12
     1  F    0.001717   0.000073  -0.000000  -0.000000  -0.000000  -0.000000
     2  C    0.010881  -0.004334  -0.000003  -0.000013  -0.000012  -0.000000
     3  C    0.026198  -0.104291   0.002059  -0.000769  -0.000833   0.000015
     4  C   -0.066312   0.027197  -0.001058   0.000981   0.005351   0.000109
     5  C   -0.014214   0.364417  -0.038848  -0.005267  -0.019327   0.003083
     6  C    0.407100   0.002850   0.007348   0.001818   0.000796  -0.000022
     7  C    5.197709   0.356310  -0.032600   0.013734   0.010024  -0.000244
     8  C    0.356310   4.929426   0.293034  -0.089256  -0.001840   0.000584
     9  N   -0.032600   0.293034   6.512240   0.224842  -0.034643   0.002282
    10  C    0.013734  -0.089256   0.224842   4.968477   0.380140  -0.012260
    11  C    0.010024  -0.001840  -0.034643   0.380140   5.226889   0.430142
    12  C   -0.000244   0.000584   0.002282  -0.012260   0.430142   4.893505
    13  C    0.000064  -0.000447   0.000839  -0.075948   0.028266   0.451540
    14  C   -0.000412   0.001069   0.014240  -0.037799  -0.089120   0.008731
    15  C   -0.008181   0.006456  -0.018444   0.397374   0.016590  -0.070552
    16  F   -0.000562   0.000331   0.000000  -0.000000   0.000000   0.000000
    17  F   -0.000820   0.000159  -0.000000   0.000000  -0.000000  -0.000000
    18  H   -0.002485   0.012345  -0.000177   0.000058   0.000117  -0.000008
    19  H    0.002646  -0.044862   0.000734   0.002613  -0.007529   0.000552
    20  H   -0.055064   0.013653  -0.000151   0.000017  -0.000005   0.000000
    21  H    0.442776  -0.085447   0.004269   0.001087   0.000169   0.000005
    22  H   -0.004113  -0.059008   0.400587  -0.060686   0.006500  -0.000433
    23  H    0.000128   0.001636   0.002505  -0.049121   0.433363  -0.029778
    24  H    0.000001   0.000019  -0.000202   0.014309  -0.057763   0.441024
    25  H    0.000000   0.000001  -0.000004  -0.004053   0.012899  -0.057834
    26  H    0.000003   0.000013  -0.000317   0.014387  -0.002768   0.009885
    27  H   -0.000364   0.000409   0.004271  -0.076342   0.004963  -0.001664
              13         14         15         16         17         18
     1  F    0.000000   0.000000   0.000000  -0.046147  -0.052998   0.000194
     2  C   -0.000000   0.000000   0.000001   0.346666   0.352566  -0.009382
     3  C   -0.000005   0.000014   0.000144  -0.101829  -0.084504  -0.052133
     4  C    0.000034  -0.000069  -0.000295   0.019296   0.005682   0.440486
     5  C   -0.000527   0.001278   0.011407   0.002039  -0.000718  -0.053090
     6  C    0.000007  -0.000031  -0.000324   0.005860   0.004890   0.010586
     7  C    0.000064  -0.000412  -0.008181  -0.000562  -0.000820  -0.002485
     8  C   -0.000447   0.001069   0.006456   0.000331   0.000159   0.012345
     9  N    0.000839   0.014240  -0.018444   0.000000  -0.000000  -0.000177
    10  C   -0.075948  -0.037799   0.397374  -0.000000   0.000000   0.000058
    11  C    0.028266  -0.089120   0.016590   0.000000  -0.000000   0.000117
    12  C    0.451540   0.008731  -0.070552   0.000000  -0.000000  -0.000008
    13  C    4.941716   0.457758   0.012591  -0.000000   0.000000   0.000001
    14  C    0.457758   4.915378   0.437473   0.000000  -0.000000  -0.000002
    15  C    0.012591   0.437473   5.129984   0.000000  -0.000000  -0.000001
    16  F   -0.000000   0.000000   0.000000   9.003252  -0.051957   0.008179
    17  F    0.000000  -0.000000  -0.000000  -0.051957   9.007936   0.000174
    18  H    0.000001  -0.000002  -0.000001   0.008179   0.000174   0.506931
    19  H   -0.000207   0.000294  -0.000214  -0.000061   0.000000  -0.005553
    20  H   -0.000000   0.000000   0.000001   0.000235   0.000254  -0.000076
    21  H   -0.000001  -0.000001  -0.000348   0.000001  -0.000005   0.000035
    22  H    0.000122   0.001130   0.003066   0.000000  -0.000000   0.000012
    23  H    0.006347  -0.001778   0.003783  -0.000000   0.000000   0.000057
    24  H   -0.054965   0.010040  -0.003001  -0.000000  -0.000000  -0.000001
    25  H    0.443513  -0.055834   0.012345  -0.000000   0.000000   0.000000
    26  H   -0.055563   0.436800  -0.053482  -0.000000   0.000000   0.000000
    27  H    0.007905  -0.025277   0.437591   0.000000  -0.000000  -0.000000
              19         20         21         22         23         24
     1  F    0.000001   0.007604  -0.000026   0.000000   0.000000  -0.000000
     2  C   -0.000007  -0.006247  -0.000013   0.000000  -0.000001   0.000000
     3  C    0.007648  -0.055966   0.010262   0.000027  -0.000161   0.000002
     4  C   -0.029805   0.012346  -0.001392  -0.000264   0.000569  -0.000010
     5  C    0.429937  -0.003502   0.004083   0.010771  -0.007988   0.000084
     6  C   -0.000840   0.442093  -0.024187   0.001387   0.000157  -0.000001
     7  C    0.002646  -0.055064   0.442776  -0.004113   0.000128   0.000001
     8  C   -0.044862   0.013653  -0.085447  -0.059008   0.001636   0.000019
     9  N    0.000734  -0.000151   0.004269   0.400587   0.002505  -0.000202
    10  C    0.002613   0.000017   0.001087  -0.060686  -0.049121   0.014309
    11  C   -0.007529  -0.000005   0.000169   0.006500   0.433363  -0.057763
    12  C    0.000552   0.000000   0.000005  -0.000433  -0.029778   0.441024
    13  C   -0.000207  -0.000000  -0.000001   0.000122   0.006347  -0.054965
    14  C    0.000294   0.000000  -0.000001   0.001130  -0.001778   0.010040
    15  C   -0.000214   0.000001  -0.000348   0.003066   0.003783  -0.003001
    16  F   -0.000061   0.000235   0.000001   0.000000  -0.000000  -0.000000
    17  F    0.000000   0.000254  -0.000005  -0.000000   0.000000  -0.000000
    18  H   -0.005553  -0.000076   0.000035   0.000012   0.000057  -0.000001
    19  H    0.476603   0.000024  -0.000181  -0.000220  -0.005607   0.000077
    20  H    0.000024   0.511722  -0.007529  -0.000038  -0.000001   0.000000
    21  H   -0.000181  -0.007529   0.534979   0.003738   0.000015   0.000000
    22  H   -0.000220  -0.000038   0.003738   0.460469  -0.000173   0.000016
    23  H   -0.005607  -0.000001   0.000015  -0.000173   0.482108  -0.006153
    24  H    0.000077   0.000000   0.000000   0.000016  -0.006153   0.538620
    25  H   -0.000001   0.000000   0.000000  -0.000002  -0.000064  -0.006812
    26  H   -0.000001  -0.000000   0.000000  -0.000036   0.000034  -0.000163
    27  H    0.000002   0.000000  -0.000022   0.003474  -0.000189   0.000037
              25         26         27
     1  F    0.000000  -0.000000   0.000000
     2  C   -0.000000  -0.000000   0.000000
     3  C   -0.000000  -0.000000   0.000001
     4  C   -0.000000   0.000000   0.000007
     5  C   -0.000005  -0.000011   0.000330
     6  C    0.000000   0.000000   0.000000
     7  C    0.000000   0.000003  -0.000364
     8  C    0.000001   0.000013   0.000409
     9  N   -0.000004  -0.000317   0.004271
    10  C   -0.004053   0.014387  -0.076342
    11  C    0.012899  -0.002768   0.004963
    12  C   -0.057834   0.009885  -0.001664
    13  C    0.443513  -0.055563   0.007905
    14  C   -0.055834   0.436800  -0.025277
    15  C    0.012345  -0.053482   0.437591
    16  F   -0.000000  -0.000000   0.000000
    17  F    0.000000   0.000000  -0.000000
    18  H    0.000000   0.000000  -0.000000
    19  H   -0.000001  -0.000001   0.000002
    20  H    0.000000  -0.000000   0.000000
    21  H    0.000000   0.000000  -0.000022
    22  H   -0.000002  -0.000036   0.003474
    23  H   -0.000064   0.000034  -0.000189
    24  H   -0.006812  -0.000163   0.000037
    25  H    0.540255  -0.006462  -0.000122
    26  H   -0.006462   0.542665  -0.007684
    27  H   -0.000122  -0.007684   0.532264
 Mulliken charges:
               1
     1  F   -0.185723
     2  C    0.525064
     3  C    0.017730
     4  C   -0.162470
     5  C   -0.312331
     6  C   -0.169005
     7  C   -0.283919
     8  C    0.379504
     9  N   -0.342800
    10  C    0.391676
    11  C   -0.342370
    12  C   -0.068663
    13  C   -0.163042
    14  C   -0.073882
    15  C   -0.313966
    16  F   -0.185304
    17  F   -0.180658
    18  H    0.143730
    19  H    0.173958
    20  H    0.140628
    21  H    0.117732
    22  H    0.233673
    23  H    0.170313
    24  H    0.124841
    25  H    0.122177
    26  H    0.122699
    27  H    0.120410
 Sum of Mulliken charges =  -0.00000
 Mulliken charges with hydrogens summed into heavy atoms:
               1
     1  F   -0.185723
     2  C    0.525064
     3  C    0.017730
     4  C   -0.018740
     5  C   -0.138373
     6  C   -0.028378
     7  C   -0.166187
     8  C    0.379504
     9  N   -0.109127
    10  C    0.391676
    11  C   -0.172057
    12  C    0.056178
    13  C   -0.040865
    14  C    0.048817
    15  C   -0.193557
    16  F   -0.185304
    17  F   -0.180658
 Electronic spatial extent (au):  <R**2>=           5963.4116
 Charge=              0.0000 electrons
 Dipole moment (field-independent basis, Debye):
    X=              3.7555    Y=              1.4495    Z=             -0.1298  Tot=              4.0276
 Quadrupole moment (field-independent basis, Debye-Ang):
   XX=           -102.9597   YY=            -85.8712   ZZ=           -100.3917
   XY=             -1.2176   XZ=              2.8886   YZ=              0.2465
 Traceless Quadrupole moment (field-independent basis, Debye-Ang):
   XX=             -6.5521   YY=             10.5363   ZZ=             -3.9842
   XY=             -1.2176   XZ=              2.8886   YZ=              0.2465
 Octapole moment (field-independent basis, Debye-Ang**2):
  XXX=             18.9266  YYY=              7.6500  ZZZ=              1.8574  XYY=            -13.9240
  XXY=              2.5267  XXZ=             13.0030  XZZ=            -32.2028  YZZ=             -4.1672
  YYZ=             -3.9248  XYZ=             15.0964
 Hexadecapole moment (field-independent basis, Debye-Ang**3):
 XXXX=          -6404.5209 YYYY=           -660.9189 ZZZZ=           -283.4409 XXXY=            -41.2229
 XXXZ=            116.1211 YYYX=             36.9265 YYYZ=             -3.6848 ZZZX=             -5.5304
 ZZZY=              2.5898 XXYY=          -1133.2176 XXZZ=          -1179.7459 YYZZ=           -161.6192
 XXYZ=             42.6937 YYXZ=             -7.4570 ZZXY=             21.8234
 N-N= 1.120333632832D+03 E-N=-4.246441233390D+03  KE= 8.517835293731D+02
 Breneman (CHELPG) radii used.
 Read replacement radii for each type of atom:
 Atom Element Radius
    1     9    1.70
    2     6    1.50
    3     6    1.50
    4     6    1.50
    5     6    1.50
    6     6    1.50
    7     6    1.50
    8     6    1.50
    9     7    1.70
   10     6    1.50
   11     6    1.50
   12     6    1.50
   13     6    1.50
   14     6    1.50
   15     6    1.50
   16     9    1.70
   17     9    1.70
   18     1    1.45
   19     1    1.45
   20     1    1.45
   21     1    1.45
   22     1    1.45
   23     1    1.45
   24     1    1.45
   25     1    1.45
   26     1    1.45
   27     1    1.45
 Generate Potential Derived Charges using the Breneman model, NDens= 1.
 Grid spacing= 0.300 Box extension= 2.800
 NStep X,Y,Z=   56     36     28   Total possible points=       56448
 Number of Points to Fit=   17135

 **********************************************************************

            Electrostatic Properties Using The SCF Density.

 **********************************************************************

       Atomic Center    1 is at  -4.551422  0.228382 -0.901295
       Atomic Center    2 is at  -3.833571 -0.339512  0.076060
       Atomic Center    3 is at  -2.381822  0.037515 -0.006808
       Atomic Center    4 is at  -1.388979 -0.857380  0.391310
       Atomic Center    5 is at  -0.048182 -0.494436  0.363746
       Atomic Center    6 is at  -2.011955  1.314969 -0.433635
       Atomic Center    7 is at  -0.675851  1.681748 -0.475012
       Atomic Center    8 is at   0.333638  0.783962 -0.078994
       Atomic Center    9 is at   1.650755  1.210214 -0.107180
       Atomic Center   10 is at   2.820572  0.442857 -0.056302
       Atomic Center   11 is at   2.917317 -0.814524 -0.670820
       Atomic Center   12 is at   4.111900 -1.528077 -0.619752
       Atomic Center   13 is at   5.233625 -0.998869  0.017146
       Atomic Center   14 is at   5.147477  0.260761  0.608348
       Atomic Center   15 is at   3.951645  0.972104  0.582189
       Atomic Center   16 is at  -4.013147 -1.662486 -0.010587
       Atomic Center   17 is at  -4.386570  0.051198  1.233918
       Atomic Center   18 is at  -1.665170 -1.854999  0.737106
       Atomic Center   19 is at   0.705448 -1.202592  0.707700
       Atomic Center   20 is at  -2.776470  2.025885 -0.752451
       Atomic Center   21 is at  -0.398794  2.677897 -0.828791
       Atomic Center   22 is at   1.785594  2.212019 -0.109195
       Atomic Center   23 is at   2.060921 -1.224702 -1.208031
       Atomic Center   24 is at   4.168416 -2.506306 -1.102502
       Atomic Center   25 is at   6.168541 -1.561267  0.047674
       Atomic Center   26 is at   6.017135  0.692610  1.108530
       Atomic Center   27 is at   3.884464  1.949410  1.067048
   17135 points will be used for fitting atomic charges
 Fitting point charges to electrostatic potential
 Charges from ESP fit, RMS=   0.00375 RRMS=   0.29739:
 ESP charges:
               1
     1  F   -0.223859
     2  C    0.646956
     3  C   -0.152370
     4  C   -0.062197
     5  C   -0.244234
     6  C   -0.012327
     7  C   -0.342099
     8  C    0.527401
     9  N   -0.783675
    10  C    0.456501
    11  C   -0.198416
    12  C   -0.066326
    13  C   -0.168756
    14  C   -0.036733
    15  C   -0.293069
    16  F   -0.219628
    17  F   -0.232046
    18  H    0.122354
    19  H    0.110478
    20  H    0.110451
    21  H    0.143708
    22  H    0.373823
    23  H    0.103155
    24  H    0.102071
    25  H    0.107764
    26  H    0.097249
    27  H    0.133824
 Sum of ESP charges =  -0.00000
 ESP charges with hydrogens summed into heavy atoms:
               1
     1  F   -0.223859
     2  C    0.646956
     3  C   -0.152370
     4  C    0.060157
     5  C   -0.133757
     6  C    0.098124
     7  C   -0.198391
     8  C    0.527401
     9  N   -0.409851
    10  C    0.456501
    11  C   -0.095261
    12  C    0.035744
    13  C   -0.060992
    14  C    0.060516
    15  C   -0.159245
    16  F   -0.219628
    17  F   -0.232046
 Charge=  -0.00000 Dipole=     3.9798     1.5230    -0.1845 Tot=     4.2652
 -----------------------------------------------------------------

              Electrostatic Properties (Atomic Units)

 -----------------------------------------------------------------
    Center     Electric         -------- Electric Field --------
               Potential          X             Y             Z
 -----------------------------------------------------------------
    1 Atom    -26.572102
    2 Atom    -14.519832
    3 Atom    -14.749798
    4 Atom    -14.749865
    5 Atom    -14.758583
    6 Atom    -14.748967
    7 Atom    -14.755675
    8 Atom    -14.702943
    9 Atom    -18.344417
   10 Atom    -14.710633
   11 Atom    -14.761160
   12 Atom    -14.758826
   13 Atom    -14.765313
   14 Atom    -14.758302
   15 Atom    -14.759711
   16 Atom    -26.571023
   17 Atom    -26.576387
   18 Atom     -1.092051
   19 Atom     -1.093394
   20 Atom     -1.089936
   21 Atom     -1.087069
   22 Atom     -1.008961
   23 Atom     -1.095290
   24 Atom     -1.099349
   25 Atom     -1.101861
   26 Atom     -1.098113
   27 Atom     -1.090987
 -----------------------------------------------------------------
 Unable to Open any file for archive entry.
 1\1\GINC-NOTCH105\SP\RwB97XD\def2TZVP\C13H10F3N1\U1366379\17-Feb-2026\
 0\\#N Guess=Read Geom=Check Integral(Ultrafine) Density Pop=(ChelpG,Re
 adRadii) NMR wB97XD def2TZVP\\prod_3k_1\\0,1\F,0,4.4382977369,0.305341
 6238,0.8371960467\C,0,3.7185229424,-0.2523268989,-0.1446223229\C,0,2.2
 618226856,0.0983631073,-0.0367708406\C,0,1.2792834666,-0.8038393025,-0
 .4438564537\C,0,-0.0669025875,-0.4641215213,-0.3928675343\C,0,1.875957
 4745,1.3594965963,0.4231433443\C,0,0.53456241,1.702815151,0.4879752646
 \C,0,-0.4645474628,0.7973969902,0.0831107594\N,0,-1.7880951705,1.20078
 07696,0.1358926701\C,0,-2.9456127635,0.4152749158,0.0808378339\C,0,-3.
 0144113351,-0.8570810646,0.6676732802\C,0,-4.197579211,-1.5892136663,0
 .6139318297\C,0,-5.3352549947,-1.064652247,0.0019712119\C,0,-5.2768169
 762,0.2092488165,-0.5613854056\C,0,-4.0926540264,0.939754923,-0.532608
 462\F,0,3.9208952177,-1.5737236577,-0.090107418\F,0,4.2514170928,0.173
 5888573,-1.2994888082\H,0,1.5678238173,-1.7886437295,-0.815345025\H,0,
 -0.8127243508,-1.1768715356,-0.7442715829\H,0,2.6323223019,2.075754609
 8,0.7493572521\H,0,0.2452730164,2.6859567591,0.8674196086\H,0,-1.93940
 56735,2.1998856836,0.1622051797\H,0,-2.1451392436,-1.2648576276,1.1856
 894911\H,0,-4.2323021936,-2.5788847136,1.0749309368\H,0,-6.261062477,-
 1.6418030983,-0.0307418103\H,0,-6.1592714525,0.6376313306,-1.041740575
 6\H,0,-4.0472782435,1.9287289287,-0.9958584701\\Version=ES64L-G16RevC.
 01\State=1-A\HF=-855.7625007\RMSD=2.709e-09\Dipole=-1.4860325,0.544155
 4,0.080741\Quadrupole=-4.8471724,7.8614058,-3.0142334,0.6443342,2.1874
 712,0.0892184\PG=C01 [X(C13H10F3N1)]\\@
 The archive entry for this job was punched.


 THERE'S NOTHING SO GREAT AS THE GREAT OUTDOORS.

                                       -- ZIGGY
 Job cpu time:       0 days  1 hours 20 minutes  1.5 seconds.
 Elapsed time:       0 days  0 hours 10 minutes 18.9 seconds.
 File lengths (MBytes):  RWF=    210 Int=      0 D2E=      0 Chk=     33 Scr=      2
 Normal termination of Gaussian 16 at Tue Feb 17 16:44:12 2026.
