 Entering Gaussian System, Link 0=g16
 Input=prod_3j_1.com
 Output=prod_3j_1.log
 Initial command:
 /uufs/chpc.utah.edu/sys/installdir/gaussian16/C01/AVX/g16/l1.exe "/scratch/general/vast/u1366379/GAUSSSCRDIR/11028621-notchpeak.peaks/Gau-1704062.inp" -scrdir="/scratch/general/vast/u1366379/GAUSSSCRDIR/11028621-notchpeak.peaks/"
 Entering Link 1 = /uufs/chpc.utah.edu/sys/installdir/gaussian16/C01/AVX/g16/l1.exe PID=   1704069.
  
 Copyright (c) 1988-2019, Gaussian, Inc.  All Rights Reserved.
  
 This is part of the Gaussian(R) 16 program.  It is based on
 the Gaussian(R) 09 system (copyright 2009, Gaussian, Inc.),
 the Gaussian(R) 03 system (copyright 2003, Gaussian, Inc.),
 the Gaussian(R) 98 system (copyright 1998, Gaussian, Inc.),
 the Gaussian(R) 94 system (copyright 1995, Gaussian, Inc.),
 the Gaussian 92(TM) system (copyright 1992, Gaussian, Inc.),
 the Gaussian 90(TM) system (copyright 1990, Gaussian, Inc.),
 the Gaussian 88(TM) system (copyright 1988, Gaussian, Inc.),
 the Gaussian 86(TM) system (copyright 1986, Carnegie Mellon
 University), and the Gaussian 82(TM) system (copyright 1983,
 Carnegie Mellon University). Gaussian is a federally registered
 trademark of Gaussian, Inc.
  
 This software contains proprietary and confidential information,
 including trade secrets, belonging to Gaussian, Inc.
  
 This software is provided under written license and may be
 used, copied, transmitted, or stored only in accord with that
 written license.
  
 The following legend is applicable only to US Government
 contracts under FAR:
  
                    RESTRICTED RIGHTS LEGEND
  
 Use, reproduction and disclosure by the US Government is
 subject to restrictions as set forth in subparagraphs (a)
 and (c) of the Commercial Computer Software - Restricted
 Rights clause in FAR 52.227-19.
  
 Gaussian, Inc.
 340 Quinnipiac St., Bldg. 40, Wallingford CT 06492
  
  
 ---------------------------------------------------------------
 Warning -- This program may not be used in any manner that
 competes with the business of Gaussian, Inc. or will provide
 assistance to any competitor of Gaussian, Inc.  The licensee
 of this program is prohibited from giving any competitor of
 Gaussian, Inc. access to this program.  By using this program,
 the user acknowledges that Gaussian, Inc. is engaged in the
 business of creating and licensing software in the field of
 computational chemistry and represents and warrants to the
 licensee that it is not a competitor of Gaussian, Inc. and that
 it will not use this program in any manner prohibited above.
 ---------------------------------------------------------------
  

 Cite this work as:
 Gaussian 16, Revision C.01,
 M. J. Frisch, G. W. Trucks, H. B. Schlegel, G. E. Scuseria, 
 M. A. Robb, J. R. Cheeseman, G. Scalmani, V. Barone, 
 G. A. Petersson, H. Nakatsuji, X. Li, M. Caricato, A. V. Marenich, 
 J. Bloino, B. G. Janesko, R. Gomperts, B. Mennucci, H. P. Hratchian, 
 J. V. Ortiz, A. F. Izmaylov, J. L. Sonnenberg, D. Williams-Young, 
 F. Ding, F. Lipparini, F. Egidi, J. Goings, B. Peng, A. Petrone, 
 T. Henderson, D. Ranasinghe, V. G. Zakrzewski, J. Gao, N. Rega, 
 G. Zheng, W. Liang, M. Hada, M. Ehara, K. Toyota, R. Fukuda, 
 J. Hasegawa, M. Ishida, T. Nakajima, Y. Honda, O. Kitao, H. Nakai, 
 T. Vreven, K. Throssell, J. A. Montgomery, Jr., J. E. Peralta, 
 F. Ogliaro, M. J. Bearpark, J. J. Heyd, E. N. Brothers, K. N. Kudin, 
 V. N. Staroverov, T. A. Keith, R. Kobayashi, J. Normand, 
 K. Raghavachari, A. P. Rendell, J. C. Burant, S. S. Iyengar, 
 J. Tomasi, M. Cossi, J. M. Millam, M. Klene, C. Adamo, R. Cammi, 
 J. W. Ochterski, R. L. Martin, K. Morokuma, O. Farkas, 
 J. B. Foresman, and D. J. Fox, Gaussian, Inc., Wallingford CT, 2019.
 
 ******************************************
 Gaussian 16:  ES64L-G16RevC.01  3-Jul-2019
                17-Feb-2026 
 ******************************************
 %NProcShared=8
 Will use up to    8 processors via shared memory.
 %Mem=8GB
 %chk=prod_3j_1.chk
 ------------------------------------------------------
 #N OPT FREQ=NORAMAN Integral(Ultrafine) wB97XD def2SVP
 ------------------------------------------------------
 1/18=20,19=15,26=4,38=1/1,3;
 2/9=110,12=2,17=6,18=5,40=1/2;
 3/5=43,7=101,11=2,25=1,30=1,71=1,74=-58,75=-5/1,2,3;
 4//1;
 5/5=2,38=5/2;
 6/7=2,8=2,9=2,10=2,28=1/1;
 7//1,2,3,16;
 1/18=20,19=15,26=4/3(2);
 2/9=110/2;
 99//99;
 2/9=110/2;
 3/5=43,7=101,11=2,25=1,30=1,71=1,74=-58,75=-5/1,2,3;
 4/5=5,16=3,69=1/1;
 5/5=2,38=5/2;
 7//1,2,3,16;
 1/18=20,19=15,26=4/3(-5);
 2/9=110/2;
 6/7=2,8=2,9=2,10=2,19=2,28=1/1;
 99/9=1/99;
 ---------
 prod_3j_1
 ---------
 Symbolic Z-matrix:
 Charge =  0 Multiplicity = 1
 C                    -2.26571  -2.29178  -0.55017 
 C                    -2.29504  -0.84614  -0.20035 
 C                    -3.48317  -0.13648  -0.24939 
 C                    -3.52542   1.2065    0.07013 
 C                    -2.37159   1.859     0.45365 
 C                    -1.18208   1.17112   0.5143 
 C                    -1.11693  -0.1833    0.1865 
 N                     0.10629  -0.89065   0.27817 
 C                     1.41434  -0.38544   0.10688 
 C                     2.503    -1.07052   0.64613 
 C                     3.78569  -0.60078   0.47255 
 C                     4.00903   0.55589  -0.24943 
 C                     2.94309   1.23872  -0.80298 
 C                     1.6591    0.77254  -0.6302 
 H                    -2.17416  -2.90728   0.34579 
 H                    -1.42313  -2.51648  -1.20563 
 H                    -3.17605  -2.59316  -1.07038 
 H                    -4.3852   -0.6456   -0.54364 
 H                    -4.45914   1.74299   0.02428 
 H                    -2.40403   2.90493   0.71233 
 H                    -0.28882   1.66766   0.84999 
 H                     0.0423   -1.87324   0.53332 
 H                     2.32505  -1.97025   1.20911 
 H                     4.61737  -1.13676   0.90022 
 H                     5.01368   0.92194  -0.38514 
 H                     3.11755   2.13491  -1.37593 
 H                     0.83207   1.28309  -1.09087 
 

 GradGradGradGradGradGradGradGradGradGradGradGradGradGradGradGradGradGrad
 Berny optimization.
 Initialization pass.
                           ----------------------------
                           !    Initial Parameters    !
                           ! (Angstroms and Degrees)  !
 --------------------------                            --------------------------
 ! Name  Definition              Value          Derivative Info.                !
 --------------------------------------------------------------------------------
 ! R1    R(1,2)                  1.4877         estimate D2E/DX2                !
 ! R2    R(1,15)                 1.0909         estimate D2E/DX2                !
 ! R3    R(1,16)                 1.0909         estimate D2E/DX2                !
 ! R4    R(1,17)                 1.0909         estimate D2E/DX2                !
 ! R5    R(2,3)                  1.3848         estimate D2E/DX2                !
 ! R6    R(2,7)                  1.406          estimate D2E/DX2                !
 ! R7    R(3,4)                  1.3811         estimate D2E/DX2                !
 ! R8    R(3,18)                 1.0768         estimate D2E/DX2                !
 ! R9    R(4,5)                  1.3799         estimate D2E/DX2                !
 ! R10   R(4,19)                 1.0778         estimate D2E/DX2                !
 ! R11   R(5,6)                  1.3754         estimate D2E/DX2                !
 ! R12   R(5,20)                 1.0779         estimate D2E/DX2                !
 ! R13   R(6,7)                  1.395          estimate D2E/DX2                !
 ! R14   R(6,21)                 1.0757         estimate D2E/DX2                !
 ! R15   R(7,8)                  1.416          estimate D2E/DX2                !
 ! R16   R(8,9)                  1.4126         estimate D2E/DX2                !
 ! R17   R(8,22)                 1.0172         estimate D2E/DX2                !
 ! R18   R(9,10)                 1.3947         estimate D2E/DX2                !
 ! R19   R(9,14)                 1.3943         estimate D2E/DX2                !
 ! R20   R(10,11)                1.377          estimate D2E/DX2                !
 ! R21   R(10,23)                1.0762         estimate D2E/DX2                !
 ! R22   R(11,12)                1.3817         estimate D2E/DX2                !
 ! R23   R(11,24)                1.0779         estimate D2E/DX2                !
 ! R24   R(12,13)                1.3816         estimate D2E/DX2                !
 ! R25   R(12,25)                1.0778         estimate D2E/DX2                !
 ! R26   R(13,14)                1.3769         estimate D2E/DX2                !
 ! R27   R(13,26)                1.0779         estimate D2E/DX2                !
 ! R28   R(14,27)                1.0756         estimate D2E/DX2                !
 ! A1    A(2,1,15)             110.905          estimate D2E/DX2                !
 ! A2    A(2,1,16)             110.8962         estimate D2E/DX2                !
 ! A3    A(2,1,17)             111.3541         estimate D2E/DX2                !
 ! A4    A(15,1,16)            108.2072         estimate D2E/DX2                !
 ! A5    A(15,1,17)            107.8067         estimate D2E/DX2                !
 ! A6    A(16,1,17)            107.5234         estimate D2E/DX2                !
 ! A7    A(1,2,3)              120.4362         estimate D2E/DX2                !
 ! A8    A(1,2,7)              120.4169         estimate D2E/DX2                !
 ! A9    A(3,2,7)              119.1468         estimate D2E/DX2                !
 ! A10   A(2,3,4)              121.0889         estimate D2E/DX2                !
 ! A11   A(2,3,18)             119.0856         estimate D2E/DX2                !
 ! A12   A(4,3,18)             119.8254         estimate D2E/DX2                !
 ! A13   A(3,4,5)              119.9021         estimate D2E/DX2                !
 ! A14   A(3,4,19)             120.0436         estimate D2E/DX2                !
 ! A15   A(5,4,19)             120.0538         estimate D2E/DX2                !
 ! A16   A(4,5,6)              119.9277         estimate D2E/DX2                !
 ! A17   A(4,5,20)             120.0231         estimate D2E/DX2                !
 ! A18   A(6,5,20)             120.0476         estimate D2E/DX2                !
 ! A19   A(5,6,7)              121.0366         estimate D2E/DX2                !
 ! A20   A(5,6,21)             120.0699         estimate D2E/DX2                !
 ! A21   A(7,6,21)             118.8617         estimate D2E/DX2                !
 ! A22   A(2,7,6)              118.8955         estimate D2E/DX2                !
 ! A23   A(2,7,8)              120.407          estimate D2E/DX2                !
 ! A24   A(6,7,8)              120.6725         estimate D2E/DX2                !
 ! A25   A(7,8,9)              127.8355         estimate D2E/DX2                !
 ! A26   A(7,8,22)             116.388          estimate D2E/DX2                !
 ! A27   A(9,8,22)             115.7302         estimate D2E/DX2                !
 ! A28   A(8,9,10)             120.0136         estimate D2E/DX2                !
 ! A29   A(8,9,14)             121.578          estimate D2E/DX2                !
 ! A30   A(10,9,14)            118.3788         estimate D2E/DX2                !
 ! A31   A(9,10,11)            120.7168         estimate D2E/DX2                !
 ! A32   A(9,10,23)            118.9373         estimate D2E/DX2                !
 ! A33   A(11,10,23)           120.3438         estimate D2E/DX2                !
 ! A34   A(10,11,12)           120.1344         estimate D2E/DX2                !
 ! A35   A(10,11,24)           119.9402         estimate D2E/DX2                !
 ! A36   A(12,11,24)           119.9254         estimate D2E/DX2                !
 ! A37   A(11,12,13)           119.8931         estimate D2E/DX2                !
 ! A38   A(11,12,25)           120.051          estimate D2E/DX2                !
 ! A39   A(13,12,25)           120.055          estimate D2E/DX2                !
 ! A40   A(12,13,14)           120.1225         estimate D2E/DX2                !
 ! A41   A(12,13,26)           119.9338         estimate D2E/DX2                !
 ! A42   A(14,13,26)           119.9427         estimate D2E/DX2                !
 ! A43   A(9,14,13)            120.7453         estimate D2E/DX2                !
 ! A44   A(9,14,27)            119.0555         estimate D2E/DX2                !
 ! A45   A(13,14,27)           120.1711         estimate D2E/DX2                !
 ! D1    D(15,1,2,3)          -105.0753         estimate D2E/DX2                !
 ! D2    D(15,1,2,7)            74.8193         estimate D2E/DX2                !
 ! D3    D(16,1,2,3)           134.6698         estimate D2E/DX2                !
 ! D4    D(16,1,2,7)           -45.4356         estimate D2E/DX2                !
 ! D5    D(17,1,2,3)            14.9791         estimate D2E/DX2                !
 ! D6    D(17,1,2,7)          -165.1263         estimate D2E/DX2                !
 ! D7    D(1,2,3,4)           -179.878          estimate D2E/DX2                !
 ! D8    D(1,2,3,18)             0.0321         estimate D2E/DX2                !
 ! D9    D(7,2,3,4)              0.2261         estimate D2E/DX2                !
 ! D10   D(7,2,3,18)          -179.8637         estimate D2E/DX2                !
 ! D11   D(1,2,7,6)           -179.6769         estimate D2E/DX2                !
 ! D12   D(1,2,7,8)             -1.4828         estimate D2E/DX2                !
 ! D13   D(3,2,7,6)              0.219          estimate D2E/DX2                !
 ! D14   D(3,2,7,8)            178.4131         estimate D2E/DX2                !
 ! D15   D(2,3,4,5)             -0.4028         estimate D2E/DX2                !
 ! D16   D(2,3,4,19)           179.8744         estimate D2E/DX2                !
 ! D17   D(18,3,4,5)           179.6877         estimate D2E/DX2                !
 ! D18   D(18,3,4,19)           -0.0351         estimate D2E/DX2                !
 ! D19   D(3,4,5,6)              0.1242         estimate D2E/DX2                !
 ! D20   D(3,4,5,20)          -179.429          estimate D2E/DX2                !
 ! D21   D(19,4,5,6)           179.8469         estimate D2E/DX2                !
 ! D22   D(19,4,5,20)            0.2937         estimate D2E/DX2                !
 ! D23   D(4,5,6,7)              0.3281         estimate D2E/DX2                !
 ! D24   D(4,5,6,21)          -177.597          estimate D2E/DX2                !
 ! D25   D(20,5,6,7)           179.8812         estimate D2E/DX2                !
 ! D26   D(20,5,6,21)            1.9561         estimate D2E/DX2                !
 ! D27   D(5,6,7,2)             -0.4978         estimate D2E/DX2                !
 ! D28   D(5,6,7,8)           -178.6869         estimate D2E/DX2                !
 ! D29   D(21,6,7,2)           177.4518         estimate D2E/DX2                !
 ! D30   D(21,6,7,8)            -0.7373         estimate D2E/DX2                !
 ! D31   D(2,7,8,9)            151.8585         estimate D2E/DX2                !
 ! D32   D(2,7,8,22)           -30.7401         estimate D2E/DX2                !
 ! D33   D(6,7,8,9)            -29.9798         estimate D2E/DX2                !
 ! D34   D(6,7,8,22)           147.4215         estimate D2E/DX2                !
 ! D35   D(7,8,9,10)           158.8633         estimate D2E/DX2                !
 ! D36   D(7,8,9,14)           -23.1481         estimate D2E/DX2                !
 ! D37   D(22,8,9,10)          -18.5525         estimate D2E/DX2                !
 ! D38   D(22,8,9,14)          159.4361         estimate D2E/DX2                !
 ! D39   D(8,9,10,11)          179.1202         estimate D2E/DX2                !
 ! D40   D(8,9,10,23)           -1.4021         estimate D2E/DX2                !
 ! D41   D(14,9,10,11)           1.0678         estimate D2E/DX2                !
 ! D42   D(14,9,10,23)        -179.4545         estimate D2E/DX2                !
 ! D43   D(8,9,14,13)         -179.0224         estimate D2E/DX2                !
 ! D44   D(8,9,14,27)           -0.946          estimate D2E/DX2                !
 ! D45   D(10,9,14,13)          -1.002          estimate D2E/DX2                !
 ! D46   D(10,9,14,27)         177.0744         estimate D2E/DX2                !
 ! D47   D(9,10,11,12)          -0.4365         estimate D2E/DX2                !
 ! D48   D(9,10,11,24)         179.6013         estimate D2E/DX2                !
 ! D49   D(23,10,11,12)       -179.9068         estimate D2E/DX2                !
 ! D50   D(23,10,11,24)          0.131          estimate D2E/DX2                !
 ! D51   D(10,11,12,13)         -0.2857         estimate D2E/DX2                !
 ! D52   D(10,11,12,25)       -179.9507         estimate D2E/DX2                !
 ! D53   D(24,11,12,13)        179.6766         estimate D2E/DX2                !
 ! D54   D(24,11,12,25)          0.0115         estimate D2E/DX2                !
 ! D55   D(11,12,13,14)          0.3514         estimate D2E/DX2                !
 ! D56   D(11,12,13,26)       -179.2961         estimate D2E/DX2                !
 ! D57   D(25,12,13,14)       -179.9835         estimate D2E/DX2                !
 ! D58   D(25,12,13,26)          0.369          estimate D2E/DX2                !
 ! D59   D(12,13,14,9)           0.3045         estimate D2E/DX2                !
 ! D60   D(12,13,14,27)       -177.7505         estimate D2E/DX2                !
 ! D61   D(26,13,14,9)         179.952          estimate D2E/DX2                !
 ! D62   D(26,13,14,27)          1.897          estimate D2E/DX2                !
 --------------------------------------------------------------------------------
 Trust Radius=3.00D-01 FncErr=1.00D-07 GrdErr=1.00D-06 EigMax=2.50D+02 EigMin=1.00D-04
 Number of steps in this run=    145 maximum allowed number of steps=    162.
 GradGradGradGradGradGradGradGradGradGradGradGradGradGradGradGradGradGrad

                          Input orientation:                          
 ---------------------------------------------------------------------
 Center     Atomic      Atomic             Coordinates (Angstroms)
 Number     Number       Type             X           Y           Z
 ---------------------------------------------------------------------
      1          6           0       -2.265710   -2.291780   -0.550170
      2          6           0       -2.295040   -0.846140   -0.200350
      3          6           0       -3.483170   -0.136480   -0.249390
      4          6           0       -3.525420    1.206500    0.070130
      5          6           0       -2.371590    1.859000    0.453650
      6          6           0       -1.182080    1.171120    0.514300
      7          6           0       -1.116930   -0.183300    0.186500
      8          7           0        0.106290   -0.890650    0.278170
      9          6           0        1.414340   -0.385440    0.106880
     10          6           0        2.503000   -1.070520    0.646130
     11          6           0        3.785690   -0.600780    0.472550
     12          6           0        4.009030    0.555890   -0.249430
     13          6           0        2.943090    1.238720   -0.802980
     14          6           0        1.659100    0.772540   -0.630200
     15          1           0       -2.174160   -2.907280    0.345790
     16          1           0       -1.423130   -2.516480   -1.205630
     17          1           0       -3.176050   -2.593160   -1.070380
     18          1           0       -4.385200   -0.645600   -0.543640
     19          1           0       -4.459140    1.742990    0.024280
     20          1           0       -2.404030    2.904930    0.712330
     21          1           0       -0.288820    1.667660    0.849990
     22          1           0        0.042300   -1.873240    0.533320
     23          1           0        2.325050   -1.970250    1.209110
     24          1           0        4.617370   -1.136760    0.900220
     25          1           0        5.013680    0.921940   -0.385140
     26          1           0        3.117550    2.134910   -1.375930
     27          1           0        0.832070    1.283090   -1.090870
 ---------------------------------------------------------------------
                    Distance matrix (angstroms):
                    1          2          3          4          5
     1  C    0.000000
     2  C    1.487652   0.000000
     3  C    2.493591   1.384801   0.000000
     4  C    3.769563   2.408386   1.381113   0.000000
     5  C    4.271749   2.784126   2.389941   1.379916   0.000000
     6  C    3.781405   2.412207   2.754643   2.385326   1.375424
     7  C    2.511586   1.406042   2.406509   2.783148   2.411748
     8  N    2.876751   2.448948   3.705579   4.198885   3.705571
     9  C    4.196262   3.750485   4.916758   5.190072   4.414864
    10  C    5.065886   4.877301   6.124428   6.469810   5.690410
    11  C    6.365915   6.122767   7.319365   7.541918   6.630458
    12  C    6.897248   6.458281   7.524124   7.569237   6.550170
    13  C    6.297614   5.669904   6.595033   6.527249   5.496334
    14  C    4.980020   4.294196   5.235864   5.249574   4.312956
    15  H    1.090856   2.135692   3.121711   4.338788   4.771586
    16  H    1.090898   2.135615   3.289766   4.461812   4.774684
    17  H    1.090948   2.141310   2.608376   3.982492   4.774050
    18  H    2.683689   2.127636   1.076775   2.132184   3.364853
    19  H    4.628228   3.381920   2.135374   1.077848   2.134404
    20  H    5.349657   3.862045   3.367436   2.134151   1.077932
    21  H    4.641735   3.383389   3.829808   3.361016   2.128762
    22  H    2.583803   2.656382   4.007232   4.735818   4.445540
    23  H    4.926817   4.959378   6.263015   6.754037   6.106742
    24  H    7.128428   7.005507   8.242628   8.513809   7.617057
    25  H    7.958942   7.521811   8.563594   8.555961   7.491586
    26  H    7.018330   6.290054   7.070913   6.861639   5.792594
    27  H    4.761123   3.886575   4.620018   4.510156   3.602867
                    6          7          8          9         10
     6  C    0.000000
     7  C    1.395045   0.000000
     8  N    2.442652   1.415985   0.000000
     9  C    3.054549   2.540576   1.412647   0.000000
    10  C    4.315338   3.755305   2.431454   1.394742   0.000000
    11  C    5.274477   4.928671   3.695916   2.409022   1.376982
    12  C    5.282936   5.197298   4.195500   2.783069   2.390683
    13  C    4.330915   4.414179   3.708172   2.408904   2.761555
    14  C    3.088859   3.047453   2.450011   1.394314   2.395424
    15  H    4.200710   2.926290   3.044967   4.392504   5.033857
    16  H    4.076108   2.734138   2.680319   3.783550   4.575403
    17  H    4.544990   3.409860   3.935846   5.227968   6.125067
    18  H    3.831408   3.380594   4.572625   5.841706   7.003100
    19  H    3.362481   3.860994   5.276710   6.247784   7.534848
    20  H    2.130370   3.386781   4.571283   5.076717   6.315657
    21  H    1.075711   2.133551   2.651045   2.769149   3.915795
    22  H    3.281402   2.078460   1.017192   2.068307   2.590778
    23  H    4.759299   4.010754   2.637249   2.134462   1.076163
    24  H    6.253708   5.856678   4.560412   3.384268   2.130613
    25  H    6.265662   6.255614   5.273323   3.860903   3.367036
    26  H    4.794651   5.074062   4.577963   3.384053   3.839424
    27  H    2.577966   2.753284   2.669489   2.134862   3.368777
                   11         12         13         14         15
    11  C    0.000000
    12  C    1.381673   0.000000
    13  C    2.391801   1.381630   0.000000
    14  C    2.761241   2.390417   1.376883   0.000000
    15  H    6.391856   7.111939   6.685450   5.402547   0.000000
    16  H    5.798103   6.313647   5.773000   4.544108   1.767392
    17  H    7.403785   7.887702   7.224865   5.907654   1.762950
    18  H    8.233960   8.484883   7.571113   6.209040   3.285571
    19  H    8.583206   8.555351   7.465364   6.229204   5.191292
    20  H    7.117593   6.897123   5.802078   4.781056   5.828291
    21  H    4.678666   4.573431   3.655344   2.605109   4.973811
    22  H    3.954215   4.716812   4.459212   3.311793   2.452978
    23  H    2.133410   3.368161   3.837703   3.368894   4.676135
    24  H    1.077900   2.134675   3.368532   3.839137   7.040384
    25  H    2.135947   1.077836   2.135950   3.366836   8.176933
    26  H    3.368574   2.134723   1.077898   2.130550   7.509340
    27  H    3.836290   3.365994   2.131022   1.075573   5.353561
                   16         17         18         19         20
    16  H    0.000000
    17  H    1.759801   0.000000
    18  H    3.565429   2.352124   0.000000
    19  H    5.373371   4.652612   2.456290   0.000000
    20  H    5.833731   5.831215   4.255439   2.459064   0.000000
    21  H    4.797839   5.493497   4.906496   4.251945   2.454364
    22  H    2.363301   3.667140   4.719078   5.796482   5.370985
    23  H    4.492014   5.987169   7.060757   7.824143   6.810167
    24  H    6.544148   8.169563   9.130840   9.562597   8.103741
    25  H    7.343600   8.938521   9.530018   9.517146   7.756230
    26  H    6.502477   7.877652   8.044576   7.714948   5.953285
    27  H    4.419935   5.575909   5.589205   5.426967   4.044037
                   21         22         23         24         25
    21  H    0.000000
    22  H    3.570419   0.000000
    23  H    4.493960   2.382656   0.000000
    24  H    5.651371   4.648471   2.458628   0.000000
    25  H    5.495284   5.776783   4.258536   2.459158   0.000000
    26  H    4.095900   5.400710   4.915570   4.258420   2.459323
    27  H    2.274033   3.636502   4.254776   4.914123   4.256095
                   26         27
    26  H    0.000000
    27  H    2.455662   0.000000
 Stoichiometry    C13H13N
 Framework group  C1[X(C13H13N)]
 Deg. of freedom    75
 Full point group                 C1      NOp   1
 Largest Abelian subgroup         C1      NOp   1
 Largest concise Abelian subgroup C1      NOp   1
                         Standard orientation:                         
 ---------------------------------------------------------------------
 Center     Atomic      Atomic             Coordinates (Angstroms)
 Number     Number       Type             X           Y           Z
 ---------------------------------------------------------------------
      1          6           0       -2.272925    2.258366    0.540894
      2          6           0       -2.290011    0.813172    0.188429
      3          6           0       -3.472844    0.094374    0.232141
      4          6           0       -3.503737   -1.248317   -0.089887
      5          6           0       -2.343650   -1.891300   -0.470594
      6          6           0       -1.159231   -1.194250   -0.525949
      7          6           0       -1.105554    0.160039   -0.195542
      8          7           0        0.112531    0.876872   -0.281767
      9          6           0        1.423810    0.381359   -0.106879
     10          6           0        2.509040    1.075695   -0.641182
     11          6           0        3.794682    0.615453   -0.464028
     12          6           0        4.024385   -0.540766    0.256675
     13          6           0        2.961808   -1.232704    0.805360
     14          6           0        1.674891   -0.776034    0.628996
     15          1           0       -2.183019    2.876148   -0.353661
     16          1           0       -1.434332    2.488321    1.199637
     17          1           0       -3.187315    2.551855    1.058506
     18          1           0       -4.379738    0.596064    0.524190
     19          1           0       -4.433481   -1.792002   -0.048187
     20          1           0       -2.367212   -2.936984   -0.731226
     21          1           0       -0.261060   -1.683354   -0.859445
     22          1           0        0.041907    1.859399   -0.535404
     23          1           0        2.326145    1.975045   -1.203184
     24          1           0        4.623699    1.158532   -0.887897
     25          1           0        5.031333   -0.899376    0.395188
     26          1           0        3.141152   -2.128559    1.377326
     27          1           0        0.850217   -1.293707    1.085925
 ---------------------------------------------------------------------
 Rotational constants (GHZ):           1.6652886           0.3922996           0.3357504
 Standard basis: def2SVP (5D, 7F)
 There are   275 symmetry adapted cartesian basis functions of A   symmetry.
 There are   261 symmetry adapted basis functions of A   symmetry.
   261 basis functions,   441 primitive gaussians,   275 cartesian basis functions
    49 alpha electrons       49 beta electrons
       nuclear repulsion energy       805.1070077272 Hartrees.
 NAtoms=   27 NActive=   27 NUniq=   27 SFac= 1.00D+00 NAtFMM=   60 NAOKFM=F Big=F
 Integral buffers will be    131072 words long.
 Raffenetti 2 integral format.
 Two-electron integral symmetry is turned on.
 Nuclear repulsion after empirical dispersion term =      805.0903073782 Hartrees.
 One-electron integrals computed using PRISM.
   1 Symmetry operations used in ECPInt.
 ECPInt:  NShTT=    7626 NPrTT=   27482 LenC2=    7220 LenP2D=   19194.
 LDataN:  DoStor=T MaxTD1= 4 Len=   56
 NBasis=   261 RedAO= T EigKep=  2.19D-04  NBF=   261
 NBsUse=   261 1.00D-06 EigRej= -1.00D+00 NBFU=   261
 ExpMin= 1.22D-01 ExpMax= 1.71D+03 ExpMxC= 2.58D+02 IAcc=3 IRadAn=         5 AccDes= 0.00D+00
 Harris functional with IExCor= 4639 and IRadAn=       5 diagonalized for initial guess.
 HarFok:  IExCor= 4639 AccDes= 0.00D+00 IRadAn=         5 IDoV= 1 UseB2=F ITyADJ=14
 ICtDFT=  3500011 ScaDFX=  1.000000  1.000000  1.000000  1.000000
 FoFCou: FMM=F IPFlag=           0 FMFlag=      100000 FMFlg1=           0
         NFxFlg=           0 DoJE=T BraDBF=F KetDBF=T FulRan=T
         wScrn=  0.000000 ICntrl=       500 IOpCl=  0 I1Cent=   200000004 NGrid=           0
         NMat0=    1 NMatS0=      1 NMatT0=    0 NMatD0=    1 NMtDS0=    0 NMtDT0=    0
 Petite list used in FoFCou.
 Requested convergence on RMS density matrix=1.00D-08 within 128 cycles.
 Requested convergence on MAX density matrix=1.00D-06.
 Requested convergence on             energy=1.00D-06.
 No special actions if energy rises.
 Integral accuracy reduced to 1.0D-05 until final iterations.
 Initial convergence to 1.0D-05 achieved.  Increase integral accuracy.
 SCF Done:  E(RwB97XD) =  -557.386496174     A.U. after   15 cycles
            NFock= 15  Conv=0.51D-08     -V/T= 2.0106

 **********************************************************************

            Population analysis using the SCF Density.

 **********************************************************************

 Orbital symmetries:
       Occupied  (A) (A) (A) (A) (A) (A) (A) (A) (A) (A) (A) (A)
                 (A) (A) (A) (A) (A) (A) (A) (A) (A) (A) (A) (A)
                 (A) (A) (A) (A) (A) (A) (A) (A) (A) (A) (A) (A)
                 (A) (A) (A) (A) (A) (A) (A) (A) (A) (A) (A) (A)
                 (A)
       Virtual   (A) (A) (A) (A) (A) (A) (A) (A) (A) (A) (A) (A)
                 (A) (A) (A) (A) (A) (A) (A) (A) (A) (A) (A) (A)
                 (A) (A) (A) (A) (A) (A) (A) (A) (A) (A) (A) (A)
                 (A) (A) (A) (A) (A) (A) (A) (A) (A) (A) (A) (A)
                 (A) (A) (A) (A) (A) (A) (A) (A) (A) (A) (A) (A)
                 (A) (A) (A) (A) (A) (A) (A) (A) (A) (A) (A) (A)
                 (A) (A) (A) (A) (A) (A) (A) (A) (A) (A) (A) (A)
                 (A) (A) (A) (A) (A) (A) (A) (A) (A) (A) (A) (A)
                 (A) (A) (A) (A) (A) (A) (A) (A) (A) (A) (A) (A)
                 (A) (A) (A) (A) (A) (A) (A) (A) (A) (A) (A) (A)
                 (A) (A) (A) (A) (A) (A) (A) (A) (A) (A) (A) (A)
                 (A) (A) (A) (A) (A) (A) (A) (A) (A) (A) (A) (A)
                 (A) (A) (A) (A) (A) (A) (A) (A) (A) (A) (A) (A)
                 (A) (A) (A) (A) (A) (A) (A) (A) (A) (A) (A) (A)
                 (A) (A) (A) (A) (A) (A) (A) (A) (A) (A) (A) (A)
                 (A) (A) (A) (A) (A) (A) (A) (A) (A) (A) (A) (A)
                 (A) (A) (A) (A) (A) (A) (A) (A) (A) (A) (A) (A)
                 (A) (A) (A) (A) (A) (A) (A) (A)
 The electronic state is 1-A.
 Alpha  occ. eigenvalues --  -14.46783 -10.34409 -10.33996 -10.30187 -10.29786
 Alpha  occ. eigenvalues --  -10.29762 -10.29648 -10.29464 -10.29355 -10.29301
 Alpha  occ. eigenvalues --  -10.29083 -10.29077 -10.28791 -10.28765  -1.03803
 Alpha  occ. eigenvalues --   -0.95852  -0.93623  -0.87227  -0.84831  -0.83992
 Alpha  occ. eigenvalues --   -0.81203  -0.77893  -0.71328  -0.70920  -0.68004
 Alpha  occ. eigenvalues --   -0.66895  -0.62477  -0.61413  -0.58284  -0.55820
 Alpha  occ. eigenvalues --   -0.55072  -0.53348  -0.52447  -0.51641  -0.51307
 Alpha  occ. eigenvalues --   -0.50760  -0.49740  -0.47793  -0.47460  -0.45226
 Alpha  occ. eigenvalues --   -0.44496  -0.43371  -0.42486  -0.42273  -0.40342
 Alpha  occ. eigenvalues --   -0.33407  -0.33325  -0.32292  -0.26498
 Alpha virt. eigenvalues --    0.05513   0.06367   0.06981   0.09628   0.13205
 Alpha virt. eigenvalues --    0.15047   0.15423   0.17967   0.18444   0.20309
 Alpha virt. eigenvalues --    0.20505   0.20982   0.21739   0.22763   0.23857
 Alpha virt. eigenvalues --    0.24443   0.24796   0.25693   0.26698   0.29767
 Alpha virt. eigenvalues --    0.31987   0.34583   0.36144   0.37756   0.38424
 Alpha virt. eigenvalues --    0.38729   0.39415   0.39985   0.41137   0.41934
 Alpha virt. eigenvalues --    0.44584   0.45145   0.47288   0.48783   0.49430
 Alpha virt. eigenvalues --    0.50242   0.51301   0.52348   0.53433   0.53782
 Alpha virt. eigenvalues --    0.54439   0.56415   0.57424   0.57853   0.58326
 Alpha virt. eigenvalues --    0.59213   0.59364   0.60667   0.61438   0.62993
 Alpha virt. eigenvalues --    0.64749   0.65555   0.66489   0.67707   0.69276
 Alpha virt. eigenvalues --    0.69589   0.71238   0.71596   0.72157   0.73660
 Alpha virt. eigenvalues --    0.73948   0.74995   0.75488   0.75977   0.76283
 Alpha virt. eigenvalues --    0.76975   0.77594   0.78532   0.79165   0.80256
 Alpha virt. eigenvalues --    0.80509   0.81551   0.82155   0.83875   0.84107
 Alpha virt. eigenvalues --    0.84890   0.85511   0.85729   0.87395   0.88726
 Alpha virt. eigenvalues --    0.91094   0.92130   0.93667   0.93935   0.95306
 Alpha virt. eigenvalues --    0.97536   1.02399   1.03326   1.03533   1.05771
 Alpha virt. eigenvalues --    1.12561   1.15501   1.17704   1.19299   1.21660
 Alpha virt. eigenvalues --    1.25473   1.27856   1.29650   1.30304   1.31535
 Alpha virt. eigenvalues --    1.32376   1.33579   1.34719   1.35182   1.37214
 Alpha virt. eigenvalues --    1.38233   1.38910   1.40904   1.42391   1.42664
 Alpha virt. eigenvalues --    1.45865   1.53893   1.58049   1.59249   1.61217
 Alpha virt. eigenvalues --    1.62952   1.64216   1.70866   1.74179   1.76317
 Alpha virt. eigenvalues --    1.77120   1.77391   1.79830   1.80404   1.81760
 Alpha virt. eigenvalues --    1.82751   1.83105   1.83581   1.84191   1.84989
 Alpha virt. eigenvalues --    1.86166   1.86446   1.87020   1.88560   1.89415
 Alpha virt. eigenvalues --    1.90108   1.90467   1.91239   1.92032   1.93258
 Alpha virt. eigenvalues --    1.96026   1.98083   1.99882   2.01110   2.02505
 Alpha virt. eigenvalues --    2.04422   2.05228   2.05561   2.08581   2.10133
 Alpha virt. eigenvalues --    2.11595   2.12083   2.14078   2.15788   2.17867
 Alpha virt. eigenvalues --    2.20266   2.21098   2.21733   2.23661   2.24116
 Alpha virt. eigenvalues --    2.24478   2.26886   2.28136   2.29663   2.31819
 Alpha virt. eigenvalues --    2.35441   2.36935   2.38812   2.39435   2.41239
 Alpha virt. eigenvalues --    2.41603   2.42565   2.43314   2.45780   2.46989
 Alpha virt. eigenvalues --    2.48348   2.55702   2.56214   2.60047   2.60641
 Alpha virt. eigenvalues --    2.64070   2.68810   2.70149   2.71017   2.72358
 Alpha virt. eigenvalues --    2.74659   2.74967   2.78528   2.79690   2.84798
 Alpha virt. eigenvalues --    2.84997   2.85092   2.85496   2.87057   2.92301
 Alpha virt. eigenvalues --    2.96995   2.99316   3.00728   3.01303   3.03699
 Alpha virt. eigenvalues --    3.07672   3.08734   3.09785   3.19591   3.22324
 Alpha virt. eigenvalues --    3.24163   3.28627   3.31379   3.41827   3.57152
 Alpha virt. eigenvalues --    3.77371   3.80500
          Condensed to atoms (all electrons):
               1          2          3          4          5          6
     1  C    4.561954   0.407723  -0.070704   0.012029  -0.000610   0.012367
     2  C    0.407723   5.302193   0.356952   0.072596  -0.149650   0.043478
     3  C   -0.070704   0.356952   5.029518   0.309906   0.086863  -0.129913
     4  C    0.012029   0.072596   0.309906   5.070760   0.282067   0.075977
     5  C   -0.000610  -0.149650   0.086863   0.282067   5.057671   0.295276
     6  C    0.012367   0.043478  -0.129913   0.075977   0.295276   5.137043
     7  C   -0.085766   0.278043   0.076491  -0.146861   0.104025   0.309641
     8  N   -0.006164  -0.092735   0.006156  -0.000142   0.007188  -0.073867
     9  C   -0.000284   0.008260  -0.000101   0.000006   0.000280  -0.013475
    10  C   -0.000106  -0.000015  -0.000003   0.000000   0.000001  -0.000124
    11  C   -0.000001  -0.000005  -0.000000  -0.000000   0.000000   0.000067
    12  C    0.000000   0.000000   0.000000  -0.000000   0.000000  -0.000047
    13  C   -0.000001   0.000001   0.000000   0.000000  -0.000005  -0.000268
    14  C    0.000086  -0.000231   0.000009  -0.000015  -0.000576  -0.003037
    15  H    0.385845  -0.016749  -0.002044  -0.000408   0.000120  -0.000248
    16  H    0.385968  -0.021567   0.006360  -0.000402   0.000068  -0.000047
    17  H    0.380611  -0.012617  -0.009767   0.000676   0.000022  -0.000401
    18  H   -0.018974  -0.070529   0.454114  -0.069453   0.014820  -0.002186
    19  H   -0.000303   0.016109  -0.070315   0.453887  -0.073744   0.015176
    20  H    0.000028  -0.001717   0.014236  -0.072795   0.454111  -0.068704
    21  H   -0.000187   0.017747  -0.002512   0.015251  -0.070338   0.463611
    22  H    0.013459  -0.025625  -0.000081  -0.000044  -0.000128   0.008303
    23  H   -0.000032   0.000020  -0.000001   0.000000  -0.000001  -0.000016
    24  H    0.000000  -0.000000   0.000000   0.000000  -0.000000   0.000000
    25  H    0.000000   0.000000  -0.000000   0.000000  -0.000000   0.000000
    26  H    0.000000   0.000000  -0.000000   0.000000  -0.000002   0.000033
    27  H    0.000020  -0.000758   0.000001  -0.000106   0.000899   0.003478
               7          8          9         10         11         12
     1  C   -0.085766  -0.006164  -0.000284  -0.000106  -0.000001   0.000000
     2  C    0.278043  -0.092735   0.008260  -0.000015  -0.000005   0.000000
     3  C    0.076491   0.006156  -0.000101  -0.000003  -0.000000   0.000000
     4  C   -0.146861  -0.000142   0.000006   0.000000  -0.000000  -0.000000
     5  C    0.104025   0.007188   0.000280   0.000001   0.000000   0.000000
     6  C    0.309641  -0.073867  -0.013475  -0.000124   0.000067  -0.000047
     7  C    5.084677   0.357869  -0.038236   0.007324  -0.000292   0.000051
     8  N    0.357869   6.451949   0.362331  -0.086792   0.007508  -0.000327
     9  C   -0.038236   0.362331   5.070802   0.271563   0.115205  -0.160908
    10  C    0.007324  -0.086792   0.271563   5.184765   0.299106   0.080113
    11  C   -0.000292   0.007508   0.115205   0.299106   5.013436   0.290109
    12  C    0.000051  -0.000327  -0.160908   0.080113   0.290109   5.102054
    13  C    0.000197   0.007265   0.117871  -0.146293   0.094803   0.286297
    14  C   -0.009310  -0.081138   0.249763   0.055546  -0.144584   0.080080
    15  H   -0.002789  -0.001416  -0.000192   0.000034   0.000000  -0.000000
    16  H   -0.014240   0.013864   0.000651  -0.000214  -0.000010   0.000001
    17  H    0.009603   0.000635   0.000008  -0.000002   0.000000   0.000000
    18  H    0.017265  -0.000108   0.000005  -0.000000   0.000000   0.000000
    19  H   -0.001687   0.000009   0.000000   0.000000  -0.000000   0.000000
    20  H    0.015366  -0.000130  -0.000019   0.000000  -0.000000   0.000000
    21  H   -0.074808  -0.011922   0.003764  -0.000792   0.000036  -0.000113
    22  H   -0.013226   0.355816  -0.020335  -0.016525   0.000495  -0.000042
    23  H   -0.000054  -0.010872  -0.078613   0.449911  -0.062016   0.015100
    24  H    0.000005  -0.000113   0.015137  -0.067393   0.451030  -0.069328
    25  H    0.000000   0.000009  -0.001625   0.014662  -0.070427   0.452895
    26  H   -0.000017  -0.000109   0.015250  -0.001947   0.014217  -0.071622
    27  H    0.004235  -0.011807  -0.072287   0.015277  -0.002343   0.014653
              13         14         15         16         17         18
     1  C   -0.000001   0.000086   0.385845   0.385968   0.380611  -0.018974
     2  C    0.000001  -0.000231  -0.016749  -0.021567  -0.012617  -0.070529
     3  C    0.000000   0.000009  -0.002044   0.006360  -0.009767   0.454114
     4  C    0.000000  -0.000015  -0.000408  -0.000402   0.000676  -0.069453
     5  C   -0.000005  -0.000576   0.000120   0.000068   0.000022   0.014820
     6  C   -0.000268  -0.003037  -0.000248  -0.000047  -0.000401  -0.002186
     7  C    0.000197  -0.009310  -0.002789  -0.014240   0.009603   0.017265
     8  N    0.007265  -0.081138  -0.001416   0.013864   0.000635  -0.000108
     9  C    0.117871   0.249763  -0.000192   0.000651   0.000008   0.000005
    10  C   -0.146293   0.055546   0.000034  -0.000214  -0.000002  -0.000000
    11  C    0.094803  -0.144584   0.000000  -0.000010   0.000000   0.000000
    12  C    0.286297   0.080080  -0.000000   0.000001   0.000000   0.000000
    13  C    5.022983   0.293330  -0.000000   0.000008   0.000000  -0.000000
    14  C    0.293330   5.203308  -0.000002  -0.000126   0.000002  -0.000000
    15  H   -0.000000  -0.000002   0.631654  -0.029333  -0.017088   0.000753
    16  H    0.000008  -0.000126  -0.029333   0.631058  -0.016017   0.000110
    17  H    0.000000   0.000002  -0.017088  -0.016017   0.625821   0.006052
    18  H   -0.000000  -0.000000   0.000753   0.000110   0.006052   0.688384
    19  H   -0.000000   0.000000   0.000008   0.000008  -0.000009  -0.012698
    20  H   -0.000002   0.000042  -0.000002   0.000000  -0.000000  -0.000292
    21  H    0.000909   0.002512   0.000002  -0.000010   0.000007   0.000013
    22  H   -0.000168   0.008946   0.004178  -0.001079  -0.000393  -0.000006
    23  H   -0.002495   0.017066  -0.000004  -0.000056   0.000000   0.000000
    24  H    0.013970  -0.001879  -0.000000   0.000000   0.000000  -0.000000
    25  H   -0.069712   0.014977  -0.000000  -0.000000  -0.000000   0.000000
    26  H    0.453930  -0.068467   0.000000  -0.000000   0.000000   0.000000
    27  H   -0.065085   0.460062  -0.000001   0.000016  -0.000000  -0.000002
              19         20         21         22         23         24
     1  C   -0.000303   0.000028  -0.000187   0.013459  -0.000032   0.000000
     2  C    0.016109  -0.001717   0.017747  -0.025625   0.000020  -0.000000
     3  C   -0.070315   0.014236  -0.002512  -0.000081  -0.000001   0.000000
     4  C    0.453887  -0.072795   0.015251  -0.000044   0.000000   0.000000
     5  C   -0.073744   0.454111  -0.070338  -0.000128  -0.000001  -0.000000
     6  C    0.015176  -0.068704   0.463611   0.008303  -0.000016   0.000000
     7  C   -0.001687   0.015366  -0.074808  -0.013226  -0.000054   0.000005
     8  N    0.000009  -0.000130  -0.011922   0.355816  -0.010872  -0.000113
     9  C    0.000000  -0.000019   0.003764  -0.020335  -0.078613   0.015137
    10  C    0.000000   0.000000  -0.000792  -0.016525   0.449911  -0.067393
    11  C   -0.000000  -0.000000   0.000036   0.000495  -0.062016   0.451030
    12  C    0.000000   0.000000  -0.000113  -0.000042   0.015100  -0.069328
    13  C   -0.000000  -0.000002   0.000909  -0.000168  -0.002495   0.013970
    14  C    0.000000   0.000042   0.002512   0.008946   0.017066  -0.001879
    15  H    0.000008  -0.000002   0.000002   0.004178  -0.000004  -0.000000
    16  H    0.000008   0.000000  -0.000010  -0.001079  -0.000056   0.000000
    17  H   -0.000009  -0.000000   0.000007  -0.000393   0.000000   0.000000
    18  H   -0.012698  -0.000292   0.000013  -0.000006   0.000000  -0.000000
    19  H    0.681583  -0.012533  -0.000249  -0.000001  -0.000000   0.000000
    20  H   -0.012533   0.676192  -0.012918   0.000008  -0.000000   0.000000
    21  H   -0.000249  -0.012918   0.663449  -0.000101  -0.000015  -0.000002
    22  H   -0.000001   0.000008  -0.000101   0.543540   0.006420  -0.000020
    23  H   -0.000000  -0.000000  -0.000015   0.006420   0.693355  -0.013205
    24  H    0.000000   0.000000  -0.000002  -0.000020  -0.013205   0.673244
    25  H   -0.000000   0.000000  -0.000001  -0.000001  -0.000243  -0.012432
    26  H    0.000000  -0.000000   0.000053   0.000011   0.000024  -0.000265
    27  H   -0.000001   0.000062  -0.004126  -0.000208  -0.000200   0.000020
              25         26         27
     1  C    0.000000   0.000000   0.000020
     2  C    0.000000   0.000000  -0.000758
     3  C   -0.000000  -0.000000   0.000001
     4  C    0.000000   0.000000  -0.000106
     5  C   -0.000000  -0.000002   0.000899
     6  C    0.000000   0.000033   0.003478
     7  C    0.000000  -0.000017   0.004235
     8  N    0.000009  -0.000109  -0.011807
     9  C   -0.001625   0.015250  -0.072287
    10  C    0.014662  -0.001947   0.015277
    11  C   -0.070427   0.014217  -0.002343
    12  C    0.452895  -0.071622   0.014653
    13  C   -0.069712   0.453930  -0.065085
    14  C    0.014977  -0.068467   0.460062
    15  H   -0.000000   0.000000  -0.000001
    16  H   -0.000000  -0.000000   0.000016
    17  H   -0.000000   0.000000  -0.000000
    18  H    0.000000   0.000000  -0.000002
    19  H   -0.000000   0.000000  -0.000001
    20  H    0.000000  -0.000000   0.000062
    21  H   -0.000001   0.000053  -0.004126
    22  H   -0.000001   0.000011  -0.000208
    23  H   -0.000243   0.000024  -0.000200
    24  H   -0.012432  -0.000265   0.000020
    25  H    0.677779  -0.012384  -0.000231
    26  H   -0.012384   0.672739  -0.012908
    27  H   -0.000231  -0.012908   0.657285
 Mulliken charges:
               1
     1  C    0.023041
     2  C   -0.110924
     3  C   -0.055167
     4  C   -0.002930
     5  C   -0.008359
     6  C   -0.072116
     7  C    0.122494
     8  N   -0.192957
     9  C    0.155178
    10  C   -0.058098
    11  C   -0.006333
    12  C   -0.018965
    13  C   -0.007537
    14  C   -0.076362
    15  H    0.047682
    16  H    0.044985
    17  H    0.032856
    18  H   -0.007267
    19  H    0.004758
    20  H    0.009067
    21  H    0.010741
    22  H    0.136807
    23  H   -0.014075
    24  H    0.011230
    25  H    0.006732
    26  H    0.011463
    27  H    0.014054
 Sum of Mulliken charges =  -0.00000
 Mulliken charges with hydrogens summed into heavy atoms:
               1
     1  C    0.148565
     2  C   -0.110924
     3  C   -0.062434
     4  C    0.001829
     5  C    0.000708
     6  C   -0.061375
     7  C    0.122494
     8  N   -0.056150
     9  C    0.155178
    10  C   -0.072173
    11  C    0.004897
    12  C   -0.012233
    13  C    0.003927
    14  C   -0.062309
 Electronic spatial extent (au):  <R**2>=           3271.3175
 Charge=             -0.0000 electrons
 Dipole moment (field-independent basis, Debye):
    X=             -0.2438    Y=              1.0894    Z=             -0.1434  Tot=              1.1255
 Quadrupole moment (field-independent basis, Debye-Ang):
   XX=            -77.5590   YY=            -74.6009   ZZ=            -85.9372
   XY=             -1.0948   XZ=             -1.7523   YZ=             -2.4109
 Traceless Quadrupole moment (field-independent basis, Debye-Ang):
   XX=              1.8067   YY=              4.7648   ZZ=             -6.5715
   XY=             -1.0948   XZ=             -1.7523   YZ=             -2.4109
 Octapole moment (field-independent basis, Debye-Ang**2):
  XXX=              1.2740  YYY=              4.2563  ZZZ=              1.2370  XYY=             -4.5968
  XXY=              1.0159  XXZ=              3.5327  XZZ=              2.0230  YZZ=              3.0046
  YYZ=             -4.0983  XYZ=            -12.4457
 Hexadecapole moment (field-independent basis, Debye-Ang**3):
 XXXX=          -3247.3196 YYYY=           -799.5018 ZZZZ=           -228.0741 XXXY=             -3.9893
 XXXZ=            -44.8897 YYYX=              7.3128 YYYZ=             -9.0641 ZZZX=             -4.9929
 ZZZY=             -5.3252 XXYY=           -683.0722 XXZZ=           -655.4025 YYZZ=           -169.0675
 XXYZ=            -21.2279 YYXZ=              5.9204 ZZXY=             -8.8471
 N-N= 8.050903073782D+02 E-N=-2.900113841251D+03  KE= 5.515151686244D+02
   1 Symmetry operations used in ECPInt.
 ECPInt:  NShTT=    7626 NPrTT=   27482 LenC2=    7220 LenP2D=   19194.
 LDataN:  DoStor=T MaxTD1= 5 Len=  102
 Calling FoFJK, ICntrl=      2127 FMM=F ISym2X=0 I1Cent= 0 IOpClX= 0 NMat=1 NMatS=1 NMatT=0.
 ***** Axes restored to original set *****
 -------------------------------------------------------------------
 Center     Atomic                   Forces (Hartrees/Bohr)
 Number     Number              X              Y              Z
 -------------------------------------------------------------------
      1        6          -0.000128652   -0.001783030   -0.003357008
      2        6           0.006720554   -0.003672849   -0.001154027
      3        6           0.003214287    0.003837337    0.002555754
      4        6          -0.006531577    0.002250917   -0.000766934
      5        6          -0.002240640    0.002072408   -0.001052284
      6        6           0.005176615   -0.004817255    0.002051525
      7        6           0.014023115   -0.004942107    0.002044709
      8        7           0.000725973    0.000987519   -0.001886348
      9        6          -0.020863949   -0.005340047    0.001325470
     10        6          -0.007957794   -0.001491496    0.001563490
     11        6           0.001649453    0.000566124   -0.001959175
     12        6           0.007703831    0.002910210   -0.000465077
     13        6           0.002142551   -0.000728722    0.001371375
     14        6          -0.006143930   -0.001652347   -0.001525308
     15        1           0.001164117   -0.006893614    0.005886460
     16        1           0.005873730   -0.002705353   -0.003531027
     17        1          -0.004618830   -0.001821692   -0.001184816
     18        1          -0.009492408   -0.005727149   -0.003530360
     19        1          -0.009083793    0.004935270   -0.000685037
     20        1           0.000464144    0.009850683    0.002836412
     21        1           0.008482022    0.005842441    0.003513270
     22        1           0.000664081    0.006318659   -0.001513790
     23        1          -0.001445077   -0.010357686    0.007079348
     24        1           0.007454772   -0.005680326    0.004297974
     25        1           0.009615285    0.003525780   -0.001059464
     26        1           0.000859233    0.008435719   -0.005854608
     27        1          -0.007427113    0.006080604   -0.005000526
 -------------------------------------------------------------------
 Cartesian Forces:  Max     0.020863949 RMS     0.005415664

 GradGradGradGradGradGradGradGradGradGradGradGradGradGradGradGradGradGrad
 Berny optimization.
 FormGI is forming the generalized inverse of G from B-inverse, IUseBI=4.
 Internal  Forces:  Max     0.015724025 RMS     0.005498068
 Search for a local minimum.
 Step number   1 out of a maximum of  145
 All quantities printed in internal units (Hartrees-Bohrs-Radians)
 Mixed Optimization -- RFO/linear search
 Second derivative matrix not updated -- first step.
 ITU=  0
     Eigenvalues ---    0.00929   0.01480   0.01506   0.01524   0.01661
     Eigenvalues ---    0.01912   0.01974   0.02102   0.02188   0.02266
     Eigenvalues ---    0.02275   0.02287   0.02298   0.02313   0.02332
     Eigenvalues ---    0.02332   0.02347   0.02349   0.02358   0.02364
     Eigenvalues ---    0.02368   0.02387   0.07306   0.07335   0.15990
     Eigenvalues ---    0.15991   0.15993   0.15999   0.16000   0.16000
     Eigenvalues ---    0.16000   0.16000   0.16000   0.16000   0.16000
     Eigenvalues ---    0.16000   0.16000   0.21999   0.22000   0.22000
     Eigenvalues ---    0.22003   0.22485   0.23465   0.24468   0.24984
     Eigenvalues ---    0.24987   0.25000   0.33708   0.34703   0.34709
     Eigenvalues ---    0.34714   0.36245   0.36249   0.36249   0.36256
     Eigenvalues ---    0.36257   0.36387   0.36462   0.36518   0.36535
     Eigenvalues ---    0.42250   0.43071   0.43073   0.43421   0.43587
     Eigenvalues ---    0.43760   0.44789   0.46587   0.47333   0.47858
     Eigenvalues ---    0.47891   0.48740   0.49015   0.49532   0.49667
 RFO step:  Lambda=-1.06722642D-02 EMin= 9.29284257D-03
 Linear search not attempted -- first point.
 Iteration  1 RMS(Cart)=  0.08968187 RMS(Int)=  0.00124336
 Iteration  2 RMS(Cart)=  0.00392463 RMS(Int)=  0.00006778
 Iteration  3 RMS(Cart)=  0.00000733 RMS(Int)=  0.00006773
 Iteration  4 RMS(Cart)=  0.00000000 RMS(Int)=  0.00006773
 Variable       Old X    -DE/DX   Delta X   Delta X   Delta X     New X
                                 (Linear)    (Quad)   (Total)
    R1        2.81126   0.01339   0.00000   0.03851   0.03851   2.84976
    R2        2.06142   0.00882   0.00000   0.02466   0.02466   2.08607
    R3        2.06150   0.00722   0.00000   0.02017   0.02017   2.08167
    R4        2.06159   0.00492   0.00000   0.01376   0.01376   2.07535
    R5        2.61690   0.01357   0.00000   0.02707   0.02707   2.64397
    R6        2.65703   0.00459   0.00000   0.00911   0.00910   2.66613
    R7        2.60993   0.01216   0.00000   0.02473   0.02473   2.63466
    R8        2.03481   0.01162   0.00000   0.03104   0.03104   2.06585
    R9        2.60766   0.01325   0.00000   0.02725   0.02725   2.63492
   R10        2.03684   0.01035   0.00000   0.02774   0.02774   2.06458
   R11        2.59917   0.01560   0.00000   0.03104   0.03103   2.63021
   R12        2.03700   0.01022   0.00000   0.02740   0.02740   2.06440
   R13        2.63625   0.00890   0.00000   0.01833   0.01833   2.65458
   R14        2.03280   0.01084   0.00000   0.02883   0.02883   2.06163
   R15        2.67582  -0.01327   0.00000  -0.03007  -0.03007   2.64575
   R16        2.66952  -0.01465   0.00000  -0.03281  -0.03281   2.63671
   R17        1.92221  -0.00653   0.00000  -0.01423  -0.01423   1.90798
   R18        2.63568   0.00871   0.00000   0.01788   0.01787   2.65355
   R19        2.63487   0.01063   0.00000   0.02201   0.02201   2.65688
   R20        2.60212   0.01524   0.00000   0.02991   0.02991   2.63202
   R21        2.03365   0.01260   0.00000   0.03358   0.03358   2.06723
   R22        2.61098   0.01258   0.00000   0.02552   0.02552   2.63651
   R23        2.03694   0.01028   0.00000   0.02755   0.02755   2.06449
   R24        2.61090   0.01335   0.00000   0.02719   0.02720   2.63810
   R25        2.03682   0.01029   0.00000   0.02758   0.02758   2.06439
   R26        2.60193   0.01572   0.00000   0.03111   0.03112   2.63305
   R27        2.03693   0.01027   0.00000   0.02751   0.02751   2.06444
   R28        2.03254   0.01074   0.00000   0.02856   0.02856   2.06110
    A1        1.93566   0.00280   0.00000   0.01510   0.01508   1.95074
    A2        1.93550   0.00110   0.00000   0.00729   0.00726   1.94277
    A3        1.94350  -0.00040   0.00000  -0.00191  -0.00191   1.94158
    A4        1.88857  -0.00224   0.00000  -0.01400  -0.01404   1.87453
    A5        1.88158  -0.00160   0.00000  -0.01096  -0.01095   1.87063
    A6        1.87664   0.00014   0.00000   0.00327   0.00326   1.87990
    A7        2.10201   0.00320   0.00000   0.01352   0.01353   2.11554
    A8        2.10167  -0.00106   0.00000  -0.00280  -0.00279   2.09888
    A9        2.07950  -0.00214   0.00000  -0.01073  -0.01074   2.06876
   A10        2.11340   0.00288   0.00000   0.01237   0.01235   2.12575
   A11        2.07844  -0.00181   0.00000  -0.00835  -0.00837   2.07007
   A12        2.09135  -0.00107   0.00000  -0.00403  -0.00404   2.08730
   A13        2.09269  -0.00335   0.00000  -0.01177  -0.01176   2.08092
   A14        2.09516   0.00136   0.00000   0.00404   0.00404   2.09919
   A15        2.09533   0.00199   0.00000   0.00772   0.00772   2.10305
   A16        2.09313   0.00016   0.00000   0.00359   0.00358   2.09671
   A17        2.09480   0.00077   0.00000   0.00313   0.00312   2.09792
   A18        2.09523  -0.00092   0.00000  -0.00677  -0.00678   2.08845
   A19        2.11249  -0.00159   0.00000  -0.00661  -0.00663   2.10586
   A20        2.09561  -0.00021   0.00000  -0.00251  -0.00252   2.09310
   A21        2.07453   0.00181   0.00000   0.00935   0.00935   2.08388
   A22        2.07512   0.00404   0.00000   0.01302   0.01297   2.08808
   A23        2.10150  -0.00979   0.00000  -0.03652  -0.03653   2.06497
   A24        2.10613   0.00574   0.00000   0.02307   0.02303   2.12917
   A25        2.23115   0.00476   0.00000   0.02059   0.02059   2.25174
   A26        2.03135  -0.00220   0.00000  -0.00929  -0.00929   2.02206
   A27        2.01987  -0.00256   0.00000  -0.01143  -0.01143   2.00844
   A28        2.09463  -0.00715   0.00000  -0.02692  -0.02693   2.06770
   A29        2.12194   0.00561   0.00000   0.02202   0.02198   2.14392
   A30        2.06610   0.00153   0.00000   0.00444   0.00439   2.07049
   A31        2.10691  -0.00007   0.00000  -0.00137  -0.00140   2.10551
   A32        2.07585   0.00074   0.00000   0.00479   0.00480   2.08065
   A33        2.10040  -0.00066   0.00000  -0.00339  -0.00338   2.09701
   A34        2.09674   0.00167   0.00000   0.00773   0.00770   2.10444
   A35        2.09335  -0.00162   0.00000  -0.00845  -0.00846   2.08489
   A36        2.09309  -0.00005   0.00000   0.00072   0.00071   2.09381
   A37        2.09253  -0.00391   0.00000  -0.01530  -0.01530   2.07723
   A38        2.09529   0.00184   0.00000   0.00699   0.00699   2.10227
   A39        2.09536   0.00207   0.00000   0.00829   0.00829   2.10365
   A40        2.09653   0.00273   0.00000   0.01315   0.01315   2.10968
   A41        2.09324  -0.00051   0.00000  -0.00156  -0.00157   2.09167
   A42        2.09340  -0.00223   0.00000  -0.01162  -0.01163   2.08176
   A43        2.10740  -0.00195   0.00000  -0.00868  -0.00868   2.09872
   A44        2.07791   0.00234   0.00000   0.01240   0.01240   2.09031
   A45        2.09738  -0.00039   0.00000  -0.00361  -0.00362   2.09376
    D1       -1.83391  -0.00016   0.00000  -0.01064  -0.01063  -1.84454
    D2        1.30584  -0.00020   0.00000  -0.01201  -0.01198   1.29387
    D3        2.35043   0.00007   0.00000  -0.00788  -0.00791   2.34252
    D4       -0.79300   0.00004   0.00000  -0.00925  -0.00925  -0.80225
    D5        0.26143  -0.00058   0.00000  -0.01561  -0.01563   0.24580
    D6       -2.88200  -0.00061   0.00000  -0.01698  -0.01697  -2.89897
    D7       -3.13946   0.00021   0.00000   0.00453   0.00465  -3.13481
    D8        0.00056  -0.00019   0.00000  -0.00635  -0.00629  -0.00573
    D9        0.00395   0.00024   0.00000   0.00587   0.00597   0.00991
   D10       -3.13921  -0.00016   0.00000  -0.00501  -0.00497   3.13900
   D11       -3.13595   0.00021   0.00000   0.00735   0.00736  -3.12859
   D12       -0.02588  -0.00015   0.00000  -0.00769  -0.00748  -0.03336
   D13        0.00382   0.00018   0.00000   0.00603   0.00608   0.00990
   D14        3.11390  -0.00017   0.00000  -0.00901  -0.00876   3.10513
   D15       -0.00703  -0.00029   0.00000  -0.00869  -0.00871  -0.01575
   D16        3.13940  -0.00027   0.00000  -0.00740  -0.00746   3.13194
   D17        3.13614   0.00010   0.00000   0.00228   0.00234   3.13848
   D18       -0.00061   0.00013   0.00000   0.00356   0.00359   0.00298
   D19        0.00217  -0.00005   0.00000  -0.00060  -0.00067   0.00150
   D20       -3.13163   0.00025   0.00000   0.00751   0.00750  -3.12412
   D21        3.13892  -0.00008   0.00000  -0.00189  -0.00194   3.13698
   D22        0.00513   0.00022   0.00000   0.00621   0.00624   0.01136
   D23        0.00573   0.00043   0.00000   0.01258   0.01256   0.01829
   D24       -3.09965   0.00019   0.00000   0.00493   0.00501  -3.09464
   D25        3.13952   0.00014   0.00000   0.00452   0.00448  -3.13919
   D26        0.03414  -0.00010   0.00000  -0.00313  -0.00307   0.03107
   D27       -0.00869  -0.00051   0.00000  -0.01528  -0.01532  -0.02401
   D28       -3.11867   0.00014   0.00000   0.00091   0.00120  -3.11748
   D29        3.09712  -0.00031   0.00000  -0.00796  -0.00805   3.08907
   D30       -0.01287   0.00034   0.00000   0.00823   0.00847  -0.00440
   D31        2.65043  -0.00101   0.00000  -0.03963  -0.03967   2.61076
   D32       -0.53652  -0.00110   0.00000  -0.04359  -0.04364  -0.58015
   D33       -0.52325  -0.00141   0.00000  -0.05515  -0.05510  -0.57835
   D34        2.57299  -0.00151   0.00000  -0.05911  -0.05907   2.51392
   D35        2.77269  -0.00110   0.00000  -0.04359  -0.04360   2.72909
   D36       -0.40401  -0.00155   0.00000  -0.05913  -0.05912  -0.46313
   D37       -0.32380  -0.00101   0.00000  -0.03969  -0.03970  -0.36350
   D38        2.78268  -0.00146   0.00000  -0.05523  -0.05522   2.72746
   D39        3.12624  -0.00049   0.00000  -0.01823  -0.01798   3.10826
   D40       -0.02447  -0.00038   0.00000  -0.01466  -0.01445  -0.03892
   D41        0.01864  -0.00014   0.00000  -0.00356  -0.00351   0.01513
   D42       -3.13207  -0.00003   0.00000   0.00001   0.00002  -3.13205
   D43       -3.12453   0.00037   0.00000   0.00864   0.00889  -3.11564
   D44       -0.01651   0.00044   0.00000   0.01214   0.01234  -0.00417
   D45       -0.01749  -0.00024   0.00000  -0.00728  -0.00726  -0.02475
   D46        3.09053  -0.00017   0.00000  -0.00378  -0.00382   3.08671
   D47       -0.00762   0.00050   0.00000   0.01342   0.01350   0.00588
   D48        3.13463   0.00013   0.00000   0.00342   0.00346   3.13810
   D49       -3.13997   0.00038   0.00000   0.00976   0.00989  -3.13008
   D50        0.00229   0.00001   0.00000  -0.00024  -0.00014   0.00214
   D51       -0.00499  -0.00042   0.00000  -0.01226  -0.01227  -0.01726
   D52       -3.14073  -0.00031   0.00000  -0.00876  -0.00880   3.13365
   D53        3.13595  -0.00005   0.00000  -0.00227  -0.00219   3.13376
   D54        0.00020   0.00005   0.00000   0.00123   0.00128   0.00148
   D55        0.00613   0.00003   0.00000   0.00143   0.00139   0.00752
   D56       -3.12931   0.00029   0.00000   0.00888   0.00890  -3.12041
   D57       -3.14131  -0.00008   0.00000  -0.00207  -0.00209   3.13979
   D58        0.00644   0.00019   0.00000   0.00538   0.00542   0.01186
   D59        0.00532   0.00028   0.00000   0.00832   0.00834   0.01365
   D60       -3.10233   0.00016   0.00000   0.00448   0.00458  -3.09775
   D61        3.14076   0.00002   0.00000   0.00091   0.00090  -3.14153
   D62        0.03311  -0.00010   0.00000  -0.00293  -0.00286   0.03025
         Item               Value     Threshold  Converged?
 Maximum Force            0.015724     0.000450     NO 
 RMS     Force            0.005498     0.000300     NO 
 Maximum Displacement     0.264389     0.001800     NO 
 RMS     Displacement     0.092394     0.001200     NO 
 Predicted change in Energy=-5.604206D-03
 GradGradGradGradGradGradGradGradGradGradGradGradGradGradGradGradGradGrad

                          Input orientation:                          
 ---------------------------------------------------------------------
 Center     Atomic      Atomic             Coordinates (Angstroms)
 Number     Number       Type             X           Y           Z
 ---------------------------------------------------------------------
      1          6           0       -2.175089   -2.281835   -0.597370
      2          6           0       -2.273170   -0.829165   -0.204577
      3          6           0       -3.495932   -0.149989   -0.238152
      4          6           0       -3.599195    1.194863    0.114704
      5          6           0       -2.457729    1.879248    0.530452
      6          6           0       -1.231845    1.222711    0.588805
      7          6           0       -1.122826   -0.125813    0.210782
      8          7           0        0.089975   -0.821342    0.285297
      9          6           0        1.388133   -0.346124    0.096148
     10          6           0        2.450577   -1.046900    0.689360
     11          6           0        3.767286   -0.635435    0.497302
     12          6           0        4.054022    0.485229   -0.282712
     13          6           0        3.002458    1.177349   -0.886088
     14          6           0        1.682432    0.767523   -0.710016
     15          1           0       -2.048773   -2.936257    0.282618
     16          1           0       -1.317328   -2.458898   -1.265468
     17          1           0       -3.081050   -2.614376   -1.121545
     18          1           0       -4.387619   -0.693127   -0.562159
     19          1           0       -4.565252    1.703218    0.070786
     20          1           0       -2.523457    2.928830    0.826202
     21          1           0       -0.349604    1.748872    0.956251
     22          1           0        0.024491   -1.793524    0.549852
     23          1           0        2.232990   -1.920256    1.311124
     24          1           0        4.578832   -1.192967    0.970655
     25          1           0        5.087020    0.810505   -0.425941
     26          1           0        3.213039    2.044832   -1.515838
     27          1           0        0.875705    1.294257   -1.221229
 ---------------------------------------------------------------------
                    Distance matrix (angstroms):
                    1          2          3          4          5
     1  C    0.000000
     2  C    1.508031   0.000000
     3  C    2.533463   1.399127   0.000000
     4  C    3.823945   2.440691   1.394201   0.000000
     5  C    4.320473   2.812443   2.405499   1.394337   0.000000
     6  C    3.818189   2.433929   2.773853   2.414518   1.391847
     7  C    2.531561   1.410858   2.415318   2.808170   2.429902
     8  N    2.835958   2.413399   3.685573   4.207631   3.720764
     9  C    4.113939   3.705253   4.899420   5.220002   4.464477
    10  C    4.957572   4.812517   6.084875   6.477304   5.716560
    11  C    6.262648   6.084182   7.316481   7.600093   6.713832
    12  C    6.823304   6.462747   7.576760   7.696314   6.708757
    13  C    6.233482   5.685314   6.664137   6.677103   5.684442
    14  C    4.918510   4.295541   5.280147   5.362683   4.462693
    15  H    1.103903   2.174293   3.182571   4.415671   4.839190
    16  H    1.101572   2.166830   3.336579   4.523468   4.831704
    17  H    1.098230   2.163441   2.650606   4.038203   4.828072
    18  H    2.724064   2.148783   1.093199   2.155055   3.396379
    19  H    4.694674   3.426723   2.161774   1.092529   2.164240
    20  H    5.412850   3.904827   3.399659   2.161038   1.092433
    21  H    4.689641   3.419635   3.864150   3.402201   2.154644
    22  H    2.528382   2.603535   3.964283   4.717087   4.432950
    23  H    4.817079   4.877838   6.193113   6.719358   6.086750
    24  H    7.018531   6.961569   8.231090   8.562389   7.690609
    25  H    7.894946   7.543866   8.638570   8.711507   7.679852
    26  H    6.971052   6.330700   7.173565   7.056037   6.030948
    27  H    4.741832   3.931655   4.707813   4.671116   3.810824
                    6          7          8          9         10
     6  C    0.000000
     7  C    1.404743   0.000000
     8  N    2.453055   1.400071   0.000000
     9  C    3.093256   2.523210   1.395286   0.000000
    10  C    4.326832   3.721108   2.405532   1.404200   0.000000
    11  C    5.334078   4.924937   3.688105   2.430020   1.392807
    12  C    5.407754   5.236092   4.212295   2.818093   2.421442
    13  C    4.484047   4.463106   3.721486   2.427303   2.780987
    14  C    3.222909   3.084703   2.459890   1.405959   2.416698
    15  H    4.249487   2.959921   3.007843   4.307654   4.896862
    16  H    4.123092   2.767749   2.658377   3.692876   4.473500
    17  H    4.589999   3.435503   3.905071   5.157648   6.027873
    18  H    3.867049   3.402670   4.558890   5.823495   6.960775
    19  H    3.407468   3.900673   5.300053   6.296287   7.560929
    20  H    2.153012   3.416336   4.602868   5.153526   6.369158
    21  H    1.090968   2.160564   2.692472   2.854560   3.965928
    22  H    3.267656   2.052453   1.009662   2.039690   2.542205
    23  H    4.733399   3.961348   2.617718   2.160520   1.093931
    24  H    6.304385   5.850224   4.556057   3.415035   2.151727
    25  H    6.413086   6.312233   5.304643   3.910516   3.412431
    26  H    4.986221   5.147101   4.605711   3.412544   3.873378
    27  H    2.779048   2.839257   2.713438   2.165390   3.407578
                   11         12         13         14         15
    11  C    0.000000
    12  C    1.395180   0.000000
    13  C    2.405185   1.396023   0.000000
    14  C    2.787924   2.426255   1.393350   0.000000
    15  H    6.258307   7.019278   6.618350   5.350252   0.000000
    16  H    5.682049   6.203635   5.659220   4.440370   1.777485
    17  H    7.310033   7.824349   7.172286   5.856395   1.772252
    18  H    8.223641   8.528067   7.629996   6.245069   3.348952
    19  H    8.665010   8.712080   7.646069   6.365433   5.282260
    20  H    7.237790   7.103809   6.044448   4.971994   5.909319
    21  H    4.779575   4.745919   3.867450   2.805114   5.029054
    22  H    3.918220   4.703510   4.444806   3.300758   2.382367
    23  H    2.160356   3.412159   3.874917   3.407680   4.519245
    24  H    1.092479   2.159327   3.398653   3.880374   6.887496
    25  H    2.164444   1.092430   2.166035   3.416689   8.090724
    26  H    3.397610   2.158753   1.092455   2.150262   7.465411
    27  H    3.877925   3.411311   2.156169   1.090686   5.358299
                   16         17         18         19         20
    16  H    0.000000
    17  H    1.776402   0.000000
    18  H    3.610994   2.389818   0.000000
    19  H    5.445898   4.718700   2.484883   0.000000
    20  H    5.904019   5.901843   4.303628   2.498340   0.000000
    21  H    4.855704   5.551213   4.957267   4.307879   2.476863
    22  H    2.353420   3.621015   4.681256   5.789858   5.372991
    23  H    4.419697   5.885465   6.989099   7.802826   6.809741
    24  H    6.431759   8.066690   9.110247   9.633894   8.212952
    25  H    7.239439   8.884314   9.594178   9.706185   7.998408
    26  H    6.393004   7.840870   8.134859   7.945810   6.258913
    27  H    4.347128   5.562666   5.664508   5.607189   4.291632
                   21         22         23         24         25
    21  H    0.000000
    22  H    3.585203   0.000000
    23  H    4.500914   2.339458   0.000000
    24  H    5.739695   4.613000   2.479485   0.000000
    25  H    5.687519   5.776015   4.315083   2.494521   0.000000
    26  H    4.346406   5.400639   4.967307   4.304809   2.494643
    27  H    2.539583   3.660012   4.311396   4.970290   4.312966
                   26         27
    26  H    0.000000
    27  H    2.472507   0.000000
 Stoichiometry    C13H13N
 Framework group  C1[X(C13H13N)]
 Deg. of freedom    75
 Full point group                 C1      NOp   1
 Largest Abelian subgroup         C1      NOp   1
 Largest concise Abelian subgroup C1      NOp   1
                         Standard orientation:                         
 ---------------------------------------------------------------------
 Center     Atomic      Atomic             Coordinates (Angstroms)
 Number     Number       Type             X           Y           Z
 ---------------------------------------------------------------------
      1          6           0       -2.139609    2.295198    0.570650
      2          6           0       -2.249332    0.836742    0.203196
      3          6           0       -3.475968    0.165877    0.256691
      4          6           0       -3.589932   -1.184072   -0.072622
      5          6           0       -2.455616   -1.882495   -0.484578
      6          6           0       -1.226171   -1.234703   -0.562486
      7          6           0       -1.106252    0.119306   -0.208111
      8          7           0        0.110236    0.805892   -0.302748
      9          6           0        1.406749    0.325841   -0.114529
     10          6           0        2.469291    1.009852   -0.726830
     11          6           0        3.784766    0.593476   -0.536910
     12          6           0        4.070081   -0.515621    0.259974
     13          6           0        3.018543   -1.190873    0.882214
     14          6           0        1.699854   -0.775846    0.708329
     15          1           0       -2.015445    2.933862   -0.321143
     16          1           0       -1.276127    2.478161    1.229727
     17          1           0       -3.039827    2.642194    1.095349
     18          1           0       -4.362022    0.719966    0.577592
     19          1           0       -4.558755   -1.685572   -0.013447
     20          1           0       -2.529840   -2.936491   -0.762054
     21          1           0       -0.349763   -1.772493   -0.927041
     22          1           0        0.048859    1.773858   -0.583270
     23          1           0        2.252713    1.873923   -1.361779
     24          1           0        4.596381    1.137856   -1.025216
     25          1           0        5.102044   -0.844875    0.401569
     26          1           0        3.228207   -2.048894    1.525098
     27          1           0        0.893510   -1.288824    1.233935
 ---------------------------------------------------------------------
 Rotational constants (GHZ):           1.6438841           0.3859005           0.3338913
 Standard basis: def2SVP (5D, 7F)
 There are   275 symmetry adapted cartesian basis functions of A   symmetry.
 There are   261 symmetry adapted basis functions of A   symmetry.
   261 basis functions,   441 primitive gaussians,   275 cartesian basis functions
    49 alpha electrons       49 beta electrons
       nuclear repulsion energy       799.8432917349 Hartrees.
 NAtoms=   27 NActive=   27 NUniq=   27 SFac= 1.00D+00 NAtFMM=   60 NAOKFM=F Big=F
 Integral buffers will be    131072 words long.
 Raffenetti 2 integral format.
 Two-electron integral symmetry is turned on.
 Nuclear repulsion after empirical dispersion term =      799.8266660384 Hartrees.
 One-electron integrals computed using PRISM.
   1 Symmetry operations used in ECPInt.
 ECPInt:  NShTT=    7626 NPrTT=   27482 LenC2=    7212 LenP2D=   19138.
 LDataN:  DoStor=T MaxTD1= 4 Len=   56
 NBasis=   261 RedAO= T EigKep=  2.43D-04  NBF=   261
 NBsUse=   261 1.00D-06 EigRej= -1.00D+00 NBFU=   261
 Initial guess from the checkpoint file:  "prod_3j_1.chk"
 B after Tr=     0.000000    0.000000    0.000000
         Rot=    0.999933    0.009259   -0.003585    0.006010 Ang=   1.33 deg.
 ExpMin= 1.22D-01 ExpMax= 1.71D+03 ExpMxC= 2.58D+02 IAcc=3 IRadAn=         5 AccDes= 0.00D+00
 Harris functional with IExCor= 4639 and IRadAn=       5 diagonalized for initial guess.
 HarFok:  IExCor= 4639 AccDes= 0.00D+00 IRadAn=         5 IDoV= 1 UseB2=F ITyADJ=14
 ICtDFT=  3500011 ScaDFX=  1.000000  1.000000  1.000000  1.000000
 FoFCou: FMM=F IPFlag=           0 FMFlag=      100000 FMFlg1=           0
         NFxFlg=           0 DoJE=T BraDBF=F KetDBF=T FulRan=T
         wScrn=  0.000000 ICntrl=       500 IOpCl=  0 I1Cent=   200000004 NGrid=           0
         NMat0=    1 NMatS0=      1 NMatT0=    0 NMatD0=    1 NMtDS0=    0 NMtDT0=    0
 Petite list used in FoFCou.
 Requested convergence on RMS density matrix=1.00D-08 within 128 cycles.
 Requested convergence on MAX density matrix=1.00D-06.
 Requested convergence on             energy=1.00D-06.
 No special actions if energy rises.
 Integral accuracy reduced to 1.0D-05 until final iterations.
 Initial convergence to 1.0D-05 achieved.  Increase integral accuracy.
 SCF Done:  E(RwB97XD) =  -557.391140622     A.U. after   13 cycles
            NFock= 13  Conv=0.57D-08     -V/T= 2.0117
   1 Symmetry operations used in ECPInt.
 ECPInt:  NShTT=    7626 NPrTT=   27482 LenC2=    7212 LenP2D=   19138.
 LDataN:  DoStor=T MaxTD1= 5 Len=  102
 Calling FoFJK, ICntrl=      2127 FMM=F ISym2X=0 I1Cent= 0 IOpClX= 0 NMat=1 NMatS=1 NMatT=0.
 ***** Axes restored to original set *****
 -------------------------------------------------------------------
 Center     Atomic                   Forces (Hartrees/Bohr)
 Number     Number              X              Y              Z
 -------------------------------------------------------------------
      1        6          -0.000387351    0.001456384   -0.000859183
      2        6          -0.002317340   -0.000044901   -0.000987334
      3        6           0.001312013    0.000003086    0.000296892
      4        6           0.000453644   -0.000524916    0.000076758
      5        6          -0.000135829   -0.001237315   -0.000823230
      6        6           0.000408873   -0.001208492   -0.000341182
      7        6           0.001278356    0.000366268    0.000947677
      8        7           0.001501324    0.002265518   -0.001014846
      9        6          -0.002476173   -0.000542606    0.000062183
     10        6           0.002228446    0.000963039    0.000174529
     11        6          -0.001046809    0.000188557   -0.000613205
     12        6          -0.000311677    0.000124557   -0.000297003
     13        6          -0.000016131   -0.001480291    0.001534792
     14        6          -0.000144015   -0.000576576    0.000527580
     15        1           0.000199961   -0.000262170    0.000130550
     16        1          -0.000064285    0.000339239    0.000197677
     17        1          -0.000577929    0.000157064    0.000663673
     18        1          -0.000164483   -0.000036969   -0.000098360
     19        1           0.000485057   -0.000414165   -0.000102681
     20        1           0.000356372   -0.000167854    0.000089117
     21        1           0.000916908    0.000123941   -0.000860910
     22        1           0.000023242   -0.000374776    0.000416189
     23        1           0.000371201    0.000512604    0.000135437
     24        1          -0.000205977   -0.000223279    0.000055999
     25        1          -0.000649701   -0.000106921    0.000094767
     26        1          -0.000374707    0.000012605   -0.000114957
     27        1          -0.000662988    0.000688368    0.000709071
 -------------------------------------------------------------------
 Cartesian Forces:  Max     0.002476173 RMS     0.000801907

 GradGradGradGradGradGradGradGradGradGradGradGradGradGradGradGradGradGrad
 Berny optimization.
 Using GEDIIS/GDIIS optimizer.
 FormGI is forming the generalized inverse of G from B-inverse, IUseBI=4.
 Internal  Forces:  Max     0.005363118 RMS     0.001150746
 Search for a local minimum.
 Step number   2 out of a maximum of  145
 All quantities printed in internal units (Hartrees-Bohrs-Radians)
 Mixed Optimization -- RFO/linear search
 Update second derivatives using D2CorX and points    1    2
 DE= -4.64D-03 DEPred=-5.60D-03 R= 8.29D-01
 TightC=F SS=  1.41D+00  RLast= 2.24D-01 DXNew= 5.0454D-01 6.7222D-01
 Trust test= 8.29D-01 RLast= 2.24D-01 DXMaxT set to 5.05D-01
 ITU=  1  0
 Use linear search instead of GDIIS.
     Eigenvalues ---    0.00927   0.01499   0.01505   0.01631   0.01657
     Eigenvalues ---    0.01929   0.01994   0.02105   0.02184   0.02265
     Eigenvalues ---    0.02277   0.02286   0.02297   0.02314   0.02332
[...]
 Alpha virt. eigenvalues --   22.26948  22.51868  22.68774  22.69628  22.72390
 Alpha virt. eigenvalues --   22.78097  22.82689  22.92209  22.99289  22.99542
 Alpha virt. eigenvalues --   23.32450  23.48327  32.86916
          Condensed to atoms (all electrons):
               1          2          3          4          5          6
     1  C    5.048181   0.292383  -0.059823   0.011312  -0.002838   0.004691
     2  C    0.292383   5.277008   0.401373   0.058746  -0.113697   0.080494
     3  C   -0.059823   0.401373   5.053123   0.409373   0.046701  -0.136002
     4  C    0.011312   0.058746   0.409373   4.977796   0.414259   0.071903
     5  C   -0.002838  -0.113697   0.046701   0.414259   4.952181   0.361334
     6  C    0.004691   0.080494  -0.136002   0.071903   0.361334   5.351675
     7  C   -0.117706   0.284431   0.027155  -0.132672   0.063226   0.243791
     8  N    0.015842  -0.049134   0.008417   0.001388  -0.001062  -0.027938
     9  C    0.000355  -0.000460   0.001306  -0.000737   0.000633  -0.003209
    10  C   -0.001493  -0.004103  -0.000022   0.000031  -0.000059   0.007665
    11  C   -0.000061   0.000003  -0.000021   0.000010  -0.000069   0.001026
    12  C    0.000013  -0.000022   0.000007  -0.000004   0.000042  -0.000452
    13  C   -0.000035  -0.000013  -0.000029   0.000019   0.000046   0.004019
    14  C    0.001248   0.003952   0.000640  -0.000650   0.005302  -0.016766
    15  H    0.415077  -0.048045  -0.004806   0.000020  -0.000352   0.002623
    16  H    0.439634  -0.047571  -0.002174   0.000167   0.000349  -0.002263
    17  H    0.401148  -0.049920   0.003014   0.000103   0.000604  -0.001509
    18  H   -0.013370  -0.072065   0.440116  -0.056030   0.011390  -0.004359
    19  H   -0.000053   0.016661  -0.066269   0.454518  -0.064411   0.015791
    20  H    0.000071  -0.003496   0.012184  -0.060786   0.447130  -0.064061
    21  H   -0.000232   0.007021  -0.002022   0.007594  -0.034856   0.439984
    22  H    0.004059  -0.012843   0.000431   0.000176  -0.000527   0.010639
    23  H   -0.000096  -0.000277   0.000015  -0.000003   0.000016   0.000220
    24  H    0.000001   0.000000   0.000000  -0.000000   0.000000  -0.000007
    25  H    0.000000   0.000000  -0.000000  -0.000000  -0.000000  -0.000003
    26  H   -0.000000   0.000009  -0.000001   0.000001  -0.000016   0.000053
    27  H    0.000094  -0.001047   0.000292  -0.000213   0.001222  -0.008283
               7          8          9         10         11         12
     1  C   -0.117706   0.015842   0.000355  -0.001493  -0.000061   0.000013
     2  C    0.284431  -0.049134  -0.000460  -0.004103   0.000003  -0.000022
     3  C    0.027155   0.008417   0.001306  -0.000022  -0.000021   0.000007
     4  C   -0.132672   0.001388  -0.000737   0.000031   0.000010  -0.000004
     5  C    0.063226  -0.001062   0.000633  -0.000059  -0.000069   0.000042
     6  C    0.243791  -0.027938  -0.003209   0.007665   0.001026  -0.000452
     7  C    5.224770   0.234491  -0.080881   0.001652   0.001111  -0.000610
     8  N    0.234491   6.512815   0.298535  -0.049470   0.007200   0.001575
     9  C   -0.080881   0.298535   4.888996   0.413110  -0.016029  -0.078545
    10  C    0.001652  -0.049470   0.413110   5.123186   0.449474   0.015079
    11  C    0.001111   0.007200  -0.016029   0.449474   4.878120   0.456192
    12  C   -0.000610   0.001575  -0.078545   0.015079   0.456192   4.958355
    13  C    0.000142   0.000821  -0.009476  -0.069854   0.005509   0.449020
    14  C    0.005656  -0.033553   0.376797   0.030368  -0.080983   0.027666
    15  H    0.002040  -0.009523  -0.001638   0.000644   0.000044  -0.000006
    16  H   -0.025546   0.012944   0.001817  -0.000688  -0.000075   0.000024
    17  H    0.012052   0.001748   0.000131  -0.000036  -0.000002   0.000000
    18  H    0.027055  -0.000342   0.000030   0.000003   0.000000  -0.000000
    19  H   -0.006312   0.000012  -0.000004   0.000000   0.000000  -0.000000
    20  H    0.016511  -0.000271   0.000029   0.000005  -0.000001   0.000001
    21  H   -0.055827   0.002208   0.002400  -0.000611   0.000435  -0.000264
    22  H   -0.046712   0.395829  -0.071616   0.005372   0.002358  -0.000102
    23  H    0.000006   0.002913  -0.076748   0.437553  -0.027902   0.008177
    24  H    0.000019  -0.000223   0.014418  -0.057709   0.440547  -0.056723
    25  H   -0.000000   0.000004  -0.004011   0.012371  -0.057256   0.444991
    26  H    0.000029  -0.000209   0.014098  -0.003005   0.010355  -0.056521
    27  H    0.002699   0.001645  -0.045582   0.004446  -0.001588   0.006430
              13         14         15         16         17         18
     1  C   -0.000035   0.001248   0.415077   0.439634   0.401148  -0.013370
     2  C   -0.000013   0.003952  -0.048045  -0.047571  -0.049920  -0.072065
     3  C   -0.000029   0.000640  -0.004806  -0.002174   0.003014   0.440116
     4  C    0.000019  -0.000650   0.000020   0.000167   0.000103  -0.056030
     5  C    0.000046   0.005302  -0.000352   0.000349   0.000604   0.011390
     6  C    0.004019  -0.016766   0.002623  -0.002263  -0.001509  -0.004359
     7  C    0.000142   0.005656   0.002040  -0.025546   0.012052   0.027055
     8  N    0.000821  -0.033553  -0.009523   0.012944   0.001748  -0.000342
     9  C   -0.009476   0.376797  -0.001638   0.001817   0.000131   0.000030
    10  C   -0.069854   0.030368   0.000644  -0.000688  -0.000036   0.000003
    11  C    0.005509  -0.080983   0.000044  -0.000075  -0.000002   0.000000
    12  C    0.449020   0.027666  -0.000006   0.000024   0.000000  -0.000000
    13  C    4.894712   0.430582   0.000016  -0.000064  -0.000001  -0.000000
    14  C    0.430582   5.208380  -0.000327   0.000675   0.000027  -0.000012
    15  H    0.000016  -0.000327   0.577894  -0.044320  -0.021153   0.000463
    16  H   -0.000064   0.000675  -0.044320   0.537633  -0.013163  -0.000434
    17  H   -0.000001   0.000027  -0.021153  -0.013163   0.536086   0.004469
    18  H   -0.000000  -0.000012   0.000463  -0.000434   0.004469   0.566205
    19  H    0.000000  -0.000002   0.000012   0.000005  -0.000071  -0.007363
    20  H   -0.000010   0.000126  -0.000005   0.000002   0.000002  -0.000202
    21  H    0.000845  -0.010125   0.000054  -0.000038  -0.000001   0.000021
    22  H   -0.000056   0.005228   0.004658  -0.006447   0.000068   0.000006
    23  H   -0.001926   0.006239   0.000007   0.000002  -0.000001   0.000000
    24  H    0.010715  -0.003395  -0.000000   0.000000   0.000000  -0.000000
    25  H   -0.058843   0.012866  -0.000000   0.000000   0.000000  -0.000000
    26  H    0.441153  -0.058569   0.000000  -0.000001  -0.000000   0.000000
    27  H   -0.031719   0.431516  -0.000014   0.000083   0.000002  -0.000002
              19         20         21         22         23         24
     1  C   -0.000053   0.000071  -0.000232   0.004059  -0.000096   0.000001
     2  C    0.016661  -0.003496   0.007021  -0.012843  -0.000277   0.000000
     3  C   -0.066269   0.012184  -0.002022   0.000431   0.000015   0.000000
     4  C    0.454518  -0.060786   0.007594   0.000176  -0.000003  -0.000000
     5  C   -0.064411   0.447130  -0.034856  -0.000527   0.000016   0.000000
     6  C    0.015791  -0.064061   0.439984   0.010639   0.000220  -0.000007
     7  C   -0.006312   0.016511  -0.055827  -0.046712   0.000006   0.000019
     8  N    0.000012  -0.000271   0.002208   0.395829   0.002913  -0.000223
     9  C   -0.000004   0.000029   0.002400  -0.071616  -0.076748   0.014418
    10  C    0.000000   0.000005  -0.000611   0.005372   0.437553  -0.057709
    11  C    0.000000  -0.000001   0.000435   0.002358  -0.027902   0.440547
    12  C   -0.000000   0.000001  -0.000264  -0.000102   0.008177  -0.056723
    13  C    0.000000  -0.000010   0.000845  -0.000056  -0.001926   0.010715
    14  C   -0.000002   0.000126  -0.010125   0.005228   0.006239  -0.003395
    15  H    0.000012  -0.000005   0.000054   0.004658   0.000007  -0.000000
    16  H    0.000005   0.000002  -0.000038  -0.006447   0.000002   0.000000
    17  H   -0.000071   0.000002  -0.000001   0.000068  -0.000001   0.000000
    18  H   -0.007363  -0.000202   0.000021   0.000006   0.000000  -0.000000
    19  H    0.550860  -0.007478  -0.000067  -0.000001   0.000000   0.000000
    20  H   -0.007478   0.549252  -0.006545   0.000009  -0.000000   0.000000
    21  H   -0.000067  -0.006545   0.492018  -0.000078  -0.000010  -0.000002
    22  H   -0.000001   0.000009  -0.000078   0.475712   0.004590  -0.000067
    23  H    0.000000  -0.000000  -0.000010   0.004590   0.544547  -0.007969
    24  H    0.000000   0.000000  -0.000002  -0.000067  -0.007969   0.549750
    25  H   -0.000000   0.000000  -0.000001  -0.000003  -0.000132  -0.006750
    26  H    0.000000  -0.000001   0.000091   0.000021   0.000040  -0.000171
    27  H   -0.000001   0.000085  -0.005311  -0.000378  -0.000190   0.000033
              25         26         27
     1  C    0.000000  -0.000000   0.000094
     2  C    0.000000   0.000009  -0.001047
     3  C   -0.000000  -0.000001   0.000292
     4  C   -0.000000   0.000001  -0.000213
     5  C   -0.000000  -0.000016   0.001222
     6  C   -0.000003   0.000053  -0.008283
     7  C   -0.000000   0.000029   0.002699
     8  N    0.000004  -0.000209   0.001645
     9  C   -0.004011   0.014098  -0.045582
    10  C    0.012371  -0.003005   0.004446
    11  C   -0.057256   0.010355  -0.001588
    12  C    0.444991  -0.056521   0.006430
    13  C   -0.058843   0.441153  -0.031719
    14  C    0.012866  -0.058569   0.431516
    15  H   -0.000000   0.000000  -0.000014
    16  H    0.000000  -0.000001   0.000083
    17  H    0.000000  -0.000000   0.000002
    18  H   -0.000000   0.000000  -0.000002
    19  H   -0.000000   0.000000  -0.000001
    20  H    0.000000  -0.000001   0.000085
    21  H   -0.000001   0.000091  -0.005311
    22  H   -0.000003   0.000021  -0.000378
    23  H   -0.000132   0.000040  -0.000190
    24  H   -0.006750  -0.000171   0.000033
    25  H    0.547042  -0.006982  -0.000076
    26  H   -0.006982   0.546519  -0.006459
    27  H   -0.000076  -0.006459   0.487914
 Mulliken charges:
               1
     1  C   -0.438402
     2  C   -0.019391
     3  C   -0.132980
     4  C   -0.156320
     5  C   -0.086550
     6  C   -0.331055
     7  C    0.319433
     8  N   -0.326661
     9  C    0.376280
    10  C   -0.313907
    11  C   -0.068398
    12  C   -0.174325
    13  C   -0.065576
    14  C   -0.342887
    15  H    0.126637
    16  H    0.149448
    17  H    0.126402
    18  H    0.104420
    19  H    0.114173
    20  H    0.117450
    21  H    0.163318
    22  H    0.229674
    23  H    0.110930
    24  H    0.117533
    25  H    0.116783
    26  H    0.119565
    27  H    0.164404
 Sum of Mulliken charges =  -0.00000
 Mulliken charges with hydrogens summed into heavy atoms:
               1
     1  C   -0.035914
     2  C   -0.019391
     3  C   -0.028559
     4  C   -0.042148
     5  C    0.030901
     6  C   -0.167737
     7  C    0.319433
     8  N   -0.096987
     9  C    0.376280
    10  C   -0.202977
    11  C    0.049135
    12  C   -0.057541
    13  C    0.053989
    14  C   -0.178483
 Electronic spatial extent (au):  <R**2>=           3296.2390
 Charge=              0.0000 electrons
 Dipole moment (field-independent basis, Debye):
    X=             -0.2127    Y=              1.0778    Z=             -0.1506  Tot=              1.1089
 Quadrupole moment (field-independent basis, Debye-Ang):
   XX=            -78.1074   YY=            -75.3557   ZZ=            -86.4696
   XY=             -1.3498   XZ=             -1.9661   YZ=             -2.6928
 Traceless Quadrupole moment (field-independent basis, Debye-Ang):
   XX=              1.8702   YY=              4.6219   ZZ=             -6.4920
   XY=             -1.3498   XZ=             -1.9661   YZ=             -2.6928
 Octapole moment (field-independent basis, Debye-Ang**2):
  XXX=              1.3687  YYY=              3.3587  ZZZ=              1.7724  XYY=             -6.0029
  XXY=             -0.1822  XXZ=              2.5639  XZZ=              3.8570  YZZ=              3.4151
  YYZ=             -4.2541  XYZ=            -14.4602
 Hexadecapole moment (field-independent basis, Debye-Ang**3):
 XXXX=          -3271.0875 YYYY=           -813.1577 ZZZZ=           -249.0143 XXXY=             -9.8707
 XXXZ=            -50.2208 YYYX=              8.2751 YYYZ=             -7.9864 ZZZX=             -5.7550
 ZZZY=             -7.9986 XXYY=           -693.9111 XXZZ=           -672.4637 YYZZ=           -173.0132
 XXYZ=            -24.3982 YYXZ=              6.3186 ZZXY=             -8.5131
 N-N= 8.010257783543D+02 E-N=-2.896524114827D+03  KE= 5.547923054322D+02
 Breneman (CHELPG) radii used.
 Read replacement radii for each type of atom:
 Atom Element Radius
    1     6    1.50
    2     6    1.50
    3     6    1.50
    4     6    1.50
    5     6    1.50
    6     6    1.50
    7     6    1.50
    8     7    1.70
    9     6    1.50
   10     6    1.50
   11     6    1.50
   12     6    1.50
   13     6    1.50
   14     6    1.50
   15     1    1.45
   16     1    1.45
   17     1    1.45
   18     1    1.45
   19     1    1.45
   20     1    1.45
   21     1    1.45
   22     1    1.45
   23     1    1.45
   24     1    1.45
   25     1    1.45
   26     1    1.45
   27     1    1.45
 Generate Potential Derived Charges using the Breneman model, NDens= 1.
 Grid spacing= 0.300 Box extension= 2.800
 NStep X,Y,Z=   52     40     29   Total possible points=       60320
 Number of Points to Fit=   17022

 **********************************************************************

            Electrostatic Properties Using The SCF Density.

 **********************************************************************

       Atomic Center    1 is at  -2.223268  2.282957  0.550281
       Atomic Center    2 is at  -2.278954  0.823800  0.185132
       Atomic Center    3 is at  -3.486017  0.122135  0.196450
       Atomic Center    4 is at  -3.550132 -1.233586 -0.119280
       Atomic Center    5 is at  -2.381546 -1.903704 -0.472305
       Atomic Center    6 is at  -1.167340 -1.225075 -0.509557
       Atomic Center    7 is at  -1.098598  0.134320 -0.171998
       Atomic Center    8 is at   0.104048  0.846124 -0.213032
       Atomic Center    9 is at   1.401060  0.357155 -0.078803
       Atomic Center   10 is at   2.456945  1.040092 -0.704429
       Atomic Center   11 is at   3.771833  0.612592 -0.548620
       Atomic Center   12 is at   4.065096 -0.514199  0.218096
       Atomic Center   13 is at   3.020417 -1.195721  0.841923
       Atomic Center   14 is at   1.703129 -0.766793  0.707941
       Atomic Center   15 is at  -1.969026  2.917127 -0.317573
       Atomic Center   16 is at  -1.462460  2.470324  1.324818
       Atomic Center   17 is at  -3.192603  2.632644  0.929855
       Atomic Center   18 is at  -4.399129  0.655438  0.474735
       Atomic Center   19 is at  -4.506011 -1.759968 -0.091255
       Atomic Center   20 is at  -2.411718 -2.963108 -0.736645
       Atomic Center   21 is at  -0.261320 -1.748748 -0.817793
       Atomic Center   22 is at   0.035152  1.813382 -0.497126
       Atomic Center   23 is at   2.236661  1.914132 -1.323383
       Atomic Center   24 is at   4.575007  1.163037 -1.043985
       Atomic Center   25 is at   5.095700 -0.855086  0.331617
       Atomic Center   26 is at   3.232341 -2.072201  1.458809
       Atomic Center   27 is at   0.903322 -1.293681  1.230163
   17022 points will be used for fitting atomic charges
 Fitting point charges to electrostatic potential
 Charges from ESP fit, RMS=   0.00395 RRMS=   0.37068:
 ESP charges:
               1
     1  C   -0.173441
     2  C    0.061741
     3  C   -0.198154
     4  C   -0.125360
     5  C   -0.114711
     6  C   -0.166340
     7  C    0.274916
     8  N   -0.657890
     9  C    0.425222
    10  C   -0.299531
    11  C   -0.026246
    12  C   -0.181705
    13  C   -0.053162
    14  C   -0.208215
    15  H    0.039858
    16  H    0.047805
    17  H    0.070714
    18  H    0.122611
    19  H    0.099294
    20  H    0.105964
    21  H    0.095526
    22  H    0.347062
    23  H    0.123331
    24  H    0.089912
    25  H    0.101753
    26  H    0.091835
    27  H    0.107209
 Sum of ESP charges =   0.00000
 ESP charges with hydrogens summed into heavy atoms:
               1
     1  C   -0.015064
     2  C    0.061741
     3  C   -0.075542
     4  C   -0.026066
     5  C   -0.008746
     6  C   -0.070814
     7  C    0.274916
     8  N   -0.310828
     9  C    0.425222
    10  C   -0.176200
    11  C    0.063667
    12  C   -0.079953
    13  C    0.038673
    14  C   -0.101006
 Charge=   0.00000 Dipole=    -0.2175     1.0941    -0.1763 Tot=     1.1293
 -----------------------------------------------------------------

              Electrostatic Properties (Atomic Units)

 -----------------------------------------------------------------
    Center     Electric         -------- Electric Field --------
               Potential          X             Y             Z
 -----------------------------------------------------------------
    1 Atom    -14.763997
    2 Atom    -14.761227
    3 Atom    -14.772763
    4 Atom    -14.778060
    5 Atom    -14.772807
    6 Atom    -14.775032
    7 Atom    -14.725338
    8 Atom    -18.359973
    9 Atom    -14.721560
   10 Atom    -14.771189
   11 Atom    -14.768629
   12 Atom    -14.777287
   13 Atom    -14.769473
   14 Atom    -14.773755
   15 Atom     -1.106495
   16 Atom     -1.110356
   17 Atom     -1.110790
   18 Atom     -1.109833
   19 Atom     -1.112947
   20 Atom     -1.111255
   21 Atom     -1.108636
   22 Atom     -1.023656
   23 Atom     -1.101350
   24 Atom     -1.107907
   25 Atom     -1.112268
   26 Atom     -1.109633
   27 Atom     -1.107672
 -----------------------------------------------------------------
 Unable to Open any file for archive entry.
 1\1\GINC-NOTCH296\SP\RwB97XD\def2TZVP\C13H13N1\U1366379\17-Feb-2026\0\
 \#N Guess=Read Geom=Check Integral(Ultrafine) Density Pop=(ChelpG,Read
 Radii) NMR wB97XD def2TZVP\\prod_3j_1\\0,1\C,0,-2.2264665364,-2.300436
 5749,-0.5845510286\C,0,-2.2896720416,-0.8463853412,-0.2007349149\C,0,-
 3.5005952205,-0.1513132117,-0.2014773682\C,0,-3.5717294708,1.199896473
 4,0.1316145955\C,0,-2.4063536026,1.8719029005,0.4915943973\C,0,-1.1883
 775383,1.1995717867,0.5185521453\C,0,-1.1126270059,-0.1550063203,0.163
 5802015\N,0,0.0939776997,-0.8606210826,0.1939121052\C,0,1.3880856448,-
 0.3628215151,0.0641932553\C,0,2.448598707,-1.0478391824,0.6796351466\C
 ,0,3.7608906678,-0.6111282271,0.5275298086\C,0,4.0468604784,0.52695250
 76,-0.225136937\C,0,2.9975645163,1.2105945544,-0.8388125642\C,0,1.6828
 487924,0.7727209288,-0.7085467263\H,0,-1.9675109354,-2.9442102144,0.27
 4797189\H,0,-1.4657338031,-2.4737033377,-1.3624366824\H,0,-3.194396450
 8,-2.6506040917,-0.9672551036\H,0,-4.4111490045,-0.6860591327,-0.48531
 95414\H,0,-4.5305313193,1.7213040859,0.1115929794\H,0,-2.4419855057,2.
 9276660805,0.7694730915\H,0,-0.2848204735,1.7242679931,0.8322305992\H,
 0,0.0308107242,-1.8317895401,0.4657308685\H,0,2.2340062019,-1.93090608
 73,1.2876787978\H,0,4.5677827812,-1.1634009794,1.0147509348\H,0,5.0754
 10726,0.8749484606,-0.3356809019\H,0,3.2037861634,2.0960283068,-1.4447
 460835\H,0,0.8794158051,1.3018007601,-1.2229282636\\Version=ES64L-G16R
 evC.01\State=1-A\HF=-557.9752219\RMSD=9.383e-10\Dipole=-0.0812619,-0.4
 252328,0.0539391\Quadrupole=1.3835844,3.4967876,-4.880372,0.9706444,1.
 4764652,-1.8891332\PG=C01 [X(C13H13N1)]\\@
 The archive entry for this job was punched.


 IF MATHEMATICALLY YOU END UP WITH THE INCORRECT ANSWER,
 TRY MULTIPLYING BY THE PAGE NUMBER.
 Job cpu time:       0 days  0 hours 49 minutes 42.7 seconds.
 Elapsed time:       0 days  0 hours  6 minutes 24.9 seconds.
 File lengths (MBytes):  RWF=    165 Int=      0 D2E=      0 Chk=     25 Scr=      2
 Normal termination of Gaussian 16 at Tue Feb 17 16:18:06 2026.
