 Entering Gaussian System, Link 0=g16
 Input=prod_5l_38.com
 Output=prod_5l_38.log
 Initial command:
 /uufs/chpc.utah.edu/sys/installdir/gaussian16/C01/AVX/g16/l1.exe "/scratch/general/vast/u1366379/GAUSSSCRDIR/11028714-notchpeak.peaks/Gau-2510820.inp" -scrdir="/scratch/general/vast/u1366379/GAUSSSCRDIR/11028714-notchpeak.peaks/"
 Entering Link 1 = /uufs/chpc.utah.edu/sys/installdir/gaussian16/C01/AVX/g16/l1.exe PID=   2510823.
  
 Copyright (c) 1988-2019, Gaussian, Inc.  All Rights Reserved.
  
 This is part of the Gaussian(R) 16 program.  It is based on
 the Gaussian(R) 09 system (copyright 2009, Gaussian, Inc.),
 the Gaussian(R) 03 system (copyright 2003, Gaussian, Inc.),
 the Gaussian(R) 98 system (copyright 1998, Gaussian, Inc.),
 the Gaussian(R) 94 system (copyright 1995, Gaussian, Inc.),
 the Gaussian 92(TM) system (copyright 1992, Gaussian, Inc.),
 the Gaussian 90(TM) system (copyright 1990, Gaussian, Inc.),
 the Gaussian 88(TM) system (copyright 1988, Gaussian, Inc.),
 the Gaussian 86(TM) system (copyright 1986, Carnegie Mellon
 University), and the Gaussian 82(TM) system (copyright 1983,
 Carnegie Mellon University). Gaussian is a federally registered
 trademark of Gaussian, Inc.
  
 This software contains proprietary and confidential information,
 including trade secrets, belonging to Gaussian, Inc.
  
 This software is provided under written license and may be
 used, copied, transmitted, or stored only in accord with that
 written license.
  
 The following legend is applicable only to US Government
 contracts under FAR:
  
                    RESTRICTED RIGHTS LEGEND
  
 Use, reproduction and disclosure by the US Government is
 subject to restrictions as set forth in subparagraphs (a)
 and (c) of the Commercial Computer Software - Restricted
 Rights clause in FAR 52.227-19.
  
 Gaussian, Inc.
 340 Quinnipiac St., Bldg. 40, Wallingford CT 06492
  
  
 ---------------------------------------------------------------
 Warning -- This program may not be used in any manner that
 competes with the business of Gaussian, Inc. or will provide
 assistance to any competitor of Gaussian, Inc.  The licensee
 of this program is prohibited from giving any competitor of
 Gaussian, Inc. access to this program.  By using this program,
 the user acknowledges that Gaussian, Inc. is engaged in the
 business of creating and licensing software in the field of
 computational chemistry and represents and warrants to the
 licensee that it is not a competitor of Gaussian, Inc. and that
 it will not use this program in any manner prohibited above.
 ---------------------------------------------------------------
  

 Cite this work as:
 Gaussian 16, Revision C.01,
 M. J. Frisch, G. W. Trucks, H. B. Schlegel, G. E. Scuseria, 
 M. A. Robb, J. R. Cheeseman, G. Scalmani, V. Barone, 
 G. A. Petersson, H. Nakatsuji, X. Li, M. Caricato, A. V. Marenich, 
 J. Bloino, B. G. Janesko, R. Gomperts, B. Mennucci, H. P. Hratchian, 
 J. V. Ortiz, A. F. Izmaylov, J. L. Sonnenberg, D. Williams-Young, 
 F. Ding, F. Lipparini, F. Egidi, J. Goings, B. Peng, A. Petrone, 
 T. Henderson, D. Ranasinghe, V. G. Zakrzewski, J. Gao, N. Rega, 
 G. Zheng, W. Liang, M. Hada, M. Ehara, K. Toyota, R. Fukuda, 
 J. Hasegawa, M. Ishida, T. Nakajima, Y. Honda, O. Kitao, H. Nakai, 
 T. Vreven, K. Throssell, J. A. Montgomery, Jr., J. E. Peralta, 
 F. Ogliaro, M. J. Bearpark, J. J. Heyd, E. N. Brothers, K. N. Kudin, 
 V. N. Staroverov, T. A. Keith, R. Kobayashi, J. Normand, 
 K. Raghavachari, A. P. Rendell, J. C. Burant, S. S. Iyengar, 
 J. Tomasi, M. Cossi, J. M. Millam, M. Klene, C. Adamo, R. Cammi, 
 J. W. Ochterski, R. L. Martin, K. Morokuma, O. Farkas, 
 J. B. Foresman, and D. J. Fox, Gaussian, Inc., Wallingford CT, 2019.
 
 ******************************************
 Gaussian 16:  ES64L-G16RevC.01  3-Jul-2019
                17-Feb-2026 
 ******************************************
 %NProcShared=8
 Will use up to    8 processors via shared memory.
 %Mem=8GB
 %chk=prod_5l_38.chk
 ------------------------------------------------------
 #N OPT FREQ=NORAMAN Integral(Ultrafine) wB97XD def2SVP
 ------------------------------------------------------
 1/18=20,19=15,26=4,38=1/1,3;
 2/9=110,12=2,17=6,18=5,40=1/2;
 3/5=43,7=101,11=2,25=1,30=1,71=1,74=-58,75=-5/1,2,3;
 4//1;
 5/5=2,38=5/2;
 6/7=2,8=2,9=2,10=2,28=1/1;
 7//1,2,3,16;
 1/18=20,19=15,26=4/3(2);
 2/9=110/2;
 99//99;
 2/9=110/2;
 3/5=43,7=101,11=2,25=1,30=1,71=1,74=-58,75=-5/1,2,3;
 4/5=5,16=3,69=1/1;
 5/5=2,38=5/2;
 7//1,2,3,16;
 1/18=20,19=15,26=4/3(-5);
 2/9=110/2;
 6/7=2,8=2,9=2,10=2,19=2,28=1/1;
 99/9=1/99;
 ----------
 prod_5l_38
 ----------
 Symbolic Z-matrix:
 Charge =  0 Multiplicity = 1
 O                     0.43653   1.86706   1.3501 
 S                     0.00834   1.67372  -0.07582 
 N                     1.09388   0.76108  -1.02754 
 C                     2.04803  -0.07358  -0.44843 
 C                     2.04716  -0.41128   0.90965 
 C                     2.98625  -1.26977   1.42884 
 C                     3.95507  -1.81439   0.60996 
 C                     3.98138  -1.49247  -0.73244 
 C                     3.04291  -0.635    -1.25679 
 C                    -1.34285   0.49198  -0.02672 
 C                    -2.12153   0.41231   1.10246 
 C                    -3.1673   -0.48673   1.15712 
 C                    -3.44665  -1.31057   0.07642 
 C                    -4.56049  -2.29479   0.1432 
 C                    -2.64382  -1.22388  -1.05191 
 C                    -1.59894  -0.32368  -1.10257 
 O                    -0.42519   2.83454  -0.92103 
 H                     1.41286   1.39941  -1.7285 
 H                     1.31662   0.04298   1.55345 
 H                     2.97172  -1.5107    2.4791 
 H                     4.69267  -2.48505   1.0188 
 H                     4.73939  -1.91503  -1.37126 
 H                     3.05537  -0.3889   -2.30393 
 H                    -1.90062   1.05681   1.93784 
 H                    -3.77575  -0.55379   2.04245 
 H                    -5.38657  -1.91201   0.74322 
 H                    -4.94961  -2.51719  -0.85076 
 H                    -4.22381  -3.23036   0.59056 
 H                    -2.8432   -1.86704  -1.89158 
 H                    -0.97483  -0.25294  -1.9774 
 

 GradGradGradGradGradGradGradGradGradGradGradGradGradGradGradGradGradGrad
 Berny optimization.
 Initialization pass.
                           ----------------------------
                           !    Initial Parameters    !
                           ! (Angstroms and Degrees)  !
 --------------------------                            --------------------------
 ! Name  Definition              Value          Derivative Info.                !
 --------------------------------------------------------------------------------
 ! R1    R(1,2)                  1.5013         estimate D2E/DX2                !
 ! R2    R(2,3)                  1.7079         estimate D2E/DX2                !
 ! R3    R(2,10)                 1.7957         estimate D2E/DX2                !
 ! R4    R(2,17)                 1.4999         estimate D2E/DX2                !
 ! R5    R(3,4)                  1.3937         estimate D2E/DX2                !
 ! R6    R(3,18)                 1.0003         estimate D2E/DX2                !
 ! R7    R(4,5)                  1.3994         estimate D2E/DX2                !
 ! R8    R(4,9)                  1.3994         estimate D2E/DX2                !
 ! R9    R(5,6)                  1.3742         estimate D2E/DX2                !
 ! R10   R(5,19)                 1.0745         estimate D2E/DX2                !
 ! R11   R(6,7)                  1.3805         estimate D2E/DX2                !
 ! R12   R(6,20)                 1.0776         estimate D2E/DX2                !
 ! R13   R(7,8)                  1.3807         estimate D2E/DX2                !
 ! R14   R(7,21)                 1.0775         estimate D2E/DX2                !
 ! R15   R(8,9)                  1.3751         estimate D2E/DX2                !
 ! R16   R(8,22)                 1.0776         estimate D2E/DX2                !
 ! R17   R(9,23)                 1.0757         estimate D2E/DX2                !
 ! R18   R(10,11)                1.3739         estimate D2E/DX2                !
 ! R19   R(10,16)                1.3742         estimate D2E/DX2                !
 ! R20   R(11,12)                1.3802         estimate D2E/DX2                !
 ! R21   R(11,24)                1.078          estimate D2E/DX2                !
 ! R22   R(12,13)                1.3873         estimate D2E/DX2                !
 ! R23   R(12,25)                1.0763         estimate D2E/DX2                !
 ! R24   R(13,14)                1.4879         estimate D2E/DX2                !
 ! R25   R(13,15)                1.3875         estimate D2E/DX2                !
 ! R26   R(14,26)                1.0904         estimate D2E/DX2                !
 ! R27   R(14,27)                1.0903         estimate D2E/DX2                !
 ! R28   R(14,28)                1.0903         estimate D2E/DX2                !
 ! R29   R(15,16)                1.3801         estimate D2E/DX2                !
 ! R30   R(15,29)                1.0763         estimate D2E/DX2                !
 ! R31   R(16,30)                1.077          estimate D2E/DX2                !
 ! A1    A(1,2,3)              114.6317         estimate D2E/DX2                !
 ! A2    A(1,2,10)             105.8657         estimate D2E/DX2                !
 ! A3    A(1,2,17)             121.1957         estimate D2E/DX2                !
 ! A4    A(3,2,10)              98.1538         estimate D2E/DX2                !
 ! A5    A(3,2,17)             106.4539         estimate D2E/DX2                !
 ! A6    A(10,2,17)            107.892          estimate D2E/DX2                !
 ! A7    A(2,3,4)              121.5739         estimate D2E/DX2                !
 ! A8    A(2,3,18)             104.6061         estimate D2E/DX2                !
 ! A9    A(4,3,18)             117.0673         estimate D2E/DX2                !
 ! A10   A(3,4,5)              123.1838         estimate D2E/DX2                !
 ! A11   A(3,4,9)              119.1396         estimate D2E/DX2                !
 ! A12   A(5,4,9)              117.6582         estimate D2E/DX2                !
 ! A13   A(4,5,6)              121.1293         estimate D2E/DX2                !
 ! A14   A(4,5,19)             118.6767         estimate D2E/DX2                !
 ! A15   A(6,5,19)             120.1561         estimate D2E/DX2                !
 ! A16   A(5,6,7)              120.1276         estimate D2E/DX2                !
 ! A17   A(5,6,20)             119.9118         estimate D2E/DX2                !
 ! A18   A(7,6,20)             119.9581         estimate D2E/DX2                !
 ! A19   A(6,7,8)              119.8749         estimate D2E/DX2                !
 ! A20   A(6,7,21)             120.059          estimate D2E/DX2                !
 ! A21   A(8,7,21)             120.0653         estimate D2E/DX2                !
 ! A22   A(7,8,9)              120.2065         estimate D2E/DX2                !
 ! A23   A(7,8,22)             119.8905         estimate D2E/DX2                !
 ! A24   A(9,8,22)             119.903          estimate D2E/DX2                !
 ! A25   A(4,9,8)              121.0026         estimate D2E/DX2                !
 ! A26   A(4,9,23)             118.6025         estimate D2E/DX2                !
 ! A27   A(8,9,23)             120.3928         estimate D2E/DX2                !
 ! A28   A(2,10,11)            119.1487         estimate D2E/DX2                !
 ! A29   A(2,10,16)            120.6263         estimate D2E/DX2                !
 ! A30   A(11,10,16)           120.225          estimate D2E/DX2                !
 ! A31   A(10,11,12)           119.9832         estimate D2E/DX2                !
 ! A32   A(10,11,24)           119.0833         estimate D2E/DX2                !
 ! A33   A(12,11,24)           120.9332         estimate D2E/DX2                !
 ! A34   A(11,12,13)           120.5667         estimate D2E/DX2                !
 ! A35   A(11,12,25)           120.0983         estimate D2E/DX2                !
 ! A36   A(13,12,25)           119.335          estimate D2E/DX2                !
 ! A37   A(12,13,14)           120.5702         estimate D2E/DX2                !
 ! A38   A(12,13,15)           118.6764         estimate D2E/DX2                !
 ! A39   A(14,13,15)           120.7293         estimate D2E/DX2                !
 ! A40   A(13,14,26)           111.0774         estimate D2E/DX2                !
 ! A41   A(13,14,27)           111.1724         estimate D2E/DX2                !
 ! A42   A(13,14,28)           110.7849         estimate D2E/DX2                !
 ! A43   A(26,14,27)           107.6302         estimate D2E/DX2                !
 ! A44   A(26,14,28)           108.0222         estimate D2E/DX2                !
 ! A45   A(27,14,28)           108.0119         estimate D2E/DX2                !
 ! A46   A(13,15,16)           120.5753         estimate D2E/DX2                !
 ! A47   A(13,15,29)           119.3334         estimate D2E/DX2                !
 ! A48   A(16,15,29)           120.0912         estimate D2E/DX2                !
 ! A49   A(10,16,15)           119.9682         estimate D2E/DX2                !
 ! A50   A(10,16,30)           119.2737         estimate D2E/DX2                !
 ! A51   A(15,16,30)           120.7577         estimate D2E/DX2                !
 ! D1    D(1,2,3,4)             19.2801         estimate D2E/DX2                !
 ! D2    D(1,2,3,18)          -116.1256         estimate D2E/DX2                !
 ! D3    D(10,2,3,4)           -92.4057         estimate D2E/DX2                !
 ! D4    D(10,2,3,18)          132.1887         estimate D2E/DX2                !
 ! D5    D(17,2,3,4)           156.1295         estimate D2E/DX2                !
 ! D6    D(17,2,3,18)           20.7239         estimate D2E/DX2                !
 ! D7    D(1,2,10,11)           27.5804         estimate D2E/DX2                !
 ! D8    D(1,2,10,16)         -152.4558         estimate D2E/DX2                !
 ! D9    D(3,2,10,11)          146.1637         estimate D2E/DX2                !
 ! D10   D(3,2,10,16)          -33.8725         estimate D2E/DX2                !
 ! D11   D(17,2,10,11)        -103.5364         estimate D2E/DX2                !
 ! D12   D(17,2,10,16)          76.4275         estimate D2E/DX2                !
 ! D13   D(2,3,4,5)             11.4673         estimate D2E/DX2                !
 ! D14   D(2,3,4,9)           -170.1314         estimate D2E/DX2                !
 ! D15   D(18,3,4,5)           141.7416         estimate D2E/DX2                !
 ! D16   D(18,3,4,9)           -39.8571         estimate D2E/DX2                !
 ! D17   D(3,4,5,6)            178.079          estimate D2E/DX2                !
 ! D18   D(3,4,5,19)            -4.1572         estimate D2E/DX2                !
 ! D19   D(9,4,5,6)             -0.3445         estimate D2E/DX2                !
 ! D20   D(9,4,5,19)           177.4193         estimate D2E/DX2                !
 ! D21   D(3,4,9,8)           -178.2148         estimate D2E/DX2                !
 ! D22   D(3,4,9,23)             1.263          estimate D2E/DX2                !
 ! D23   D(5,4,9,8)              0.2746         estimate D2E/DX2                !
 ! D24   D(5,4,9,23)           179.7524         estimate D2E/DX2                !
 ! D25   D(4,5,6,7)              0.1325         estimate D2E/DX2                !
 ! D26   D(4,5,6,20)           179.5499         estimate D2E/DX2                !
 ! D27   D(19,5,6,7)          -177.5985         estimate D2E/DX2                !
 ! D28   D(19,5,6,20)            1.8188         estimate D2E/DX2                !
 ! D29   D(5,6,7,8)              0.1599         estimate D2E/DX2                !
 ! D30   D(5,6,7,21)           179.8144         estimate D2E/DX2                !
 ! D31   D(20,6,7,8)          -179.2572         estimate D2E/DX2                !
 ! D32   D(20,6,7,21)            0.3973         estimate D2E/DX2                !
 ! D33   D(6,7,8,9)             -0.2291         estimate D2E/DX2                !
 ! D34   D(6,7,8,22)           179.8086         estimate D2E/DX2                !
 ! D35   D(21,7,8,9)          -179.8836         estimate D2E/DX2                !
 ! D36   D(21,7,8,22)            0.1541         estimate D2E/DX2                !
 ! D37   D(7,8,9,4)              0.0069         estimate D2E/DX2                !
 ! D38   D(7,8,9,23)          -179.4616         estimate D2E/DX2                !
 ! D39   D(22,8,9,4)           179.9691         estimate D2E/DX2                !
 ! D40   D(22,8,9,23)            0.5006         estimate D2E/DX2                !
 ! D41   D(2,10,11,12)         179.7855         estimate D2E/DX2                !
 ! D42   D(2,10,11,24)          -0.3954         estimate D2E/DX2                !
 ! D43   D(16,10,11,12)         -0.1785         estimate D2E/DX2                !
 ! D44   D(16,10,11,24)        179.6406         estimate D2E/DX2                !
 ! D45   D(2,10,16,15)        -179.7775         estimate D2E/DX2                !
 ! D46   D(2,10,16,30)           0.4406         estimate D2E/DX2                !
 ! D47   D(11,10,16,15)          0.186          estimate D2E/DX2                !
 ! D48   D(11,10,16,30)       -179.5959         estimate D2E/DX2                !
 ! D49   D(10,11,12,13)         -0.3246         estimate D2E/DX2                !
 ! D50   D(10,11,12,25)        179.7256         estimate D2E/DX2                !
 ! D51   D(24,11,12,13)        179.8597         estimate D2E/DX2                !
 ! D52   D(24,11,12,25)         -0.0901         estimate D2E/DX2                !
 ! D53   D(11,12,13,14)        179.0297         estimate D2E/DX2                !
 ! D54   D(11,12,13,15)          0.8035         estimate D2E/DX2                !
 ! D55   D(25,12,13,14)         -1.0201         estimate D2E/DX2                !
 ! D56   D(25,12,13,15)       -179.2463         estimate D2E/DX2                !
 ! D57   D(12,13,14,26)         33.8175         estimate D2E/DX2                !
 ! D58   D(12,13,14,27)        153.6432         estimate D2E/DX2                !
 ! D59   D(12,13,14,28)        -86.2446         estimate D2E/DX2                !
 ! D60   D(15,13,14,26)       -147.9929         estimate D2E/DX2                !
 ! D61   D(15,13,14,27)        -28.1672         estimate D2E/DX2                !
 ! D62   D(15,13,14,28)         91.9449         estimate D2E/DX2                !
 ! D63   D(12,13,15,16)         -0.796          estimate D2E/DX2                !
 ! D64   D(12,13,15,29)        179.2154         estimate D2E/DX2                !
 ! D65   D(14,13,15,16)       -179.0193         estimate D2E/DX2                !
 ! D66   D(14,13,15,29)          0.9921         estimate D2E/DX2                !
 ! D67   D(13,15,16,10)          0.3095         estimate D2E/DX2                !
 ! D68   D(13,15,16,30)       -179.9119         estimate D2E/DX2                !
 ! D69   D(29,15,16,10)       -179.7021         estimate D2E/DX2                !
 ! D70   D(29,15,16,30)          0.0765         estimate D2E/DX2                !
 --------------------------------------------------------------------------------
 Trust Radius=3.00D-01 FncErr=1.00D-07 GrdErr=1.00D-06 EigMax=2.50D+02 EigMin=1.00D-04
 Number of steps in this run=    162 maximum allowed number of steps=    180.
 GradGradGradGradGradGradGradGradGradGradGradGradGradGradGradGradGradGrad

                          Input orientation:                          
 ---------------------------------------------------------------------
 Center     Atomic      Atomic             Coordinates (Angstroms)
 Number     Number       Type             X           Y           Z
 ---------------------------------------------------------------------
      1          8           0        0.436530    1.867060    1.350100
      2         16           0        0.008340    1.673720   -0.075820
      3          7           0        1.093880    0.761080   -1.027540
      4          6           0        2.048030   -0.073580   -0.448430
      5          6           0        2.047160   -0.411280    0.909650
      6          6           0        2.986250   -1.269770    1.428840
      7          6           0        3.955070   -1.814390    0.609960
      8          6           0        3.981380   -1.492470   -0.732440
      9          6           0        3.042910   -0.635000   -1.256790
     10          6           0       -1.342850    0.491980   -0.026720
     11          6           0       -2.121530    0.412310    1.102460
     12          6           0       -3.167300   -0.486730    1.157120
     13          6           0       -3.446650   -1.310570    0.076420
     14          6           0       -4.560490   -2.294790    0.143200
     15          6           0       -2.643820   -1.223880   -1.051910
     16          6           0       -1.598940   -0.323680   -1.102570
     17          8           0       -0.425190    2.834540   -0.921030
     18          1           0        1.412860    1.399410   -1.728500
     19          1           0        1.316620    0.042980    1.553450
     20          1           0        2.971720   -1.510700    2.479100
     21          1           0        4.692670   -2.485050    1.018800
     22          1           0        4.739390   -1.915030   -1.371260
     23          1           0        3.055370   -0.388900   -2.303930
     24          1           0       -1.900620    1.056810    1.937840
     25          1           0       -3.775750   -0.553790    2.042450
     26          1           0       -5.386570   -1.912010    0.743220
     27          1           0       -4.949610   -2.517190   -0.850760
     28          1           0       -4.223810   -3.230360    0.590560
     29          1           0       -2.843200   -1.867040   -1.891580
     30          1           0       -0.974830   -0.252940   -1.977400
 ---------------------------------------------------------------------
                    Distance matrix (angstroms):
                    1          2          3          4          5
     1  O    0.000000
     2  S    1.501324   0.000000
     3  N    2.703419   1.707946   0.000000
     4  C    3.098020   2.711500   1.393710   0.000000
     5  C    2.824705   3.078175   2.456802   1.399437   0.000000
     6  C    4.043139   4.449279   3.706645   2.415630   1.374210
     7  C    5.145970   5.311674   4.183403   2.790593   2.387185
     8  C    5.309367   5.122593   3.674674   2.414902   2.758013
     9  C    4.455266   3.991678   2.408384   1.399437   2.394792
    10  C    2.636792   1.795727   2.647963   3.463490   3.631093
    11  C    2.953184   2.741504   3.872648   4.475107   4.253640
    12  C    4.308731   4.033903   4.948477   5.472490   5.220874
    13  C    5.176744   4.567945   5.111445   5.656600   5.628938
    14  C    6.614213   6.055679   6.533060   6.996880   6.913472
    15  C    4.981176   4.047566   4.232146   4.868350   5.149110
    16  C    3.867566   2.761733   2.904068   3.713602   4.165423
    17  O    2.614691   1.499944   2.572577   3.846730   4.472052
    18  H    3.263387   2.186155   1.000279   2.052247   3.262019
    19  H    2.035480   2.650553   2.688269   2.134495   1.074486
    20  H    4.371623   5.044776   4.580807   3.389535   2.127606
    21  H    6.096339   6.358971   5.260813   3.868084   3.363207
    22  H    6.342287   6.077839   4.535356   3.389096   3.835612
    23  H    5.029872   4.301542   2.607502   2.134723   3.368098
    24  H    2.542482   2.842452   4.224685   4.750148   4.335600
    25  H    4.907460   4.875265   5.904830   6.352283   5.933787
    26  H    6.968369   6.529421   7.230300   7.750686   7.585528
    27  H    7.285323   6.538006   6.877651   7.422942   7.515896
    28  H    6.948335   6.511924   6.843074   7.097939   6.882884
    29  H    5.933685   4.895431   4.811879   5.405859   5.820803
    30  H    4.190298   2.880043   2.491994   3.392286   4.182410
                    6          7          8          9         10
     6  C    0.000000
     7  C    1.380503   0.000000
     8  C    2.389772   1.380711   0.000000
     9  C    2.760209   2.389090   1.375109   0.000000
    10  C    4.895255   5.813145   5.725688   4.692339   0.000000
    11  C    5.387516   6.490440   6.651357   5.773592   1.373950
    12  C    6.209119   7.265688   7.462277   6.664507   2.384946
    13  C    6.573652   7.438008   7.474154   6.659447   2.772327
    14  C    7.723783   8.541862   8.624037   7.907374   4.260067
    15  C    6.152554   6.830510   6.638334   5.720809   2.384893
    16  C    5.322320   6.000167   5.713409   4.654834   1.374168
    17  O    5.831395   6.568345   6.178709   4.917129   2.670108
    18  H    4.423672   4.718023   3.994046   2.649226   3.363543
    19  H    2.127558   3.361758   3.831951   3.367073   3.125911
    20  H    1.077638   2.133750   3.366561   3.837811   5.376372
    21  H    2.134691   1.077492   2.134945   3.364922   6.810530
    22  H    3.366069   2.133195   1.077602   2.128291   6.677958
    23  H    3.835920   3.366339   2.131887   1.075743   5.030504
    24  H    5.436318   6.655536   6.944577   6.124245   2.118876
    25  H    6.827429   7.962834   8.291815   7.575335   3.360670
    26  H    8.425358   9.343100   9.492738   8.757107   4.766933
    27  H    8.350479   9.051020   8.990363   8.221185   4.768948
    28  H    7.518749   8.300568   8.490921   7.934344   4.747292
    29  H    6.735311   7.244098   6.932445   6.047080   3.360614
    30  H    5.322271   5.782428   5.258363   4.099693   2.120259
                   11         12         13         14         15
    11  C    0.000000
    12  C    1.380180   0.000000
    13  C    2.403543   1.387322   0.000000
    14  C    3.767903   2.497617   1.487880   0.000000
    15  C    2.755216   2.386888   1.387508   2.499752   0.000000
    16  C    2.382633   2.755456   2.403747   3.769350   1.380109
    17  O    3.583194   4.782124   5.225520   6.674078   4.627118
    18  H    4.634718   5.732555   5.849493   7.268513   4.878122
    19  H    3.487216   4.532462   5.167442   6.480308   4.906926
    20  H    5.615541   6.362681   6.856267   7.924987   6.639622
    21  H    7.405067   8.111199   8.277440   9.296443   7.726738
    22  H    7.655588   8.423093   8.335011   9.430036   7.422362
    23  H    6.248658   7.121100   6.985113   8.223271   5.894532
    24  H    1.077980   2.143949   3.385200   4.639921   3.833079
    25  H    2.133864   1.076345   2.132205   2.693334   3.362343
    26  H    4.023929   2.669812   2.137672   1.090391   3.349432
    27  H    4.516091   3.366152   2.138804   1.090336   2.651373
    28  H    4.236823   2.994112   2.133990   1.090310   3.036452
    29  H    3.831517   3.362271   2.132331   2.696736   1.076314
    30  H    3.353061   3.832336   3.383290   4.639294   2.141211
                   16         17         18         19         20
    16  C    0.000000
    17  O    3.374166   0.000000
    18  H    3.525871   2.467799   0.000000
    19  H    3.960981   4.117009   3.552515   0.000000
    20  H    5.926914   6.479274   5.348148   2.451552   0.000000
    21  H    6.982556   7.632396   5.778740   4.251412   2.458354
    22  H    6.540567   7.030932   4.709452   4.909489   4.255985
    23  H    4.807299   4.941384   2.495398   4.253134   4.913533
    24  H    3.352739   3.675644   4.953642   3.395032   5.533965
    25  H    3.831789   5.611528   6.704978   5.150484   6.828960
    26  H    4.502874   7.065038   7.956579   7.029311   8.546072
    27  H    4.012715   7.008304   7.522713   7.183337   8.651500
    28  H    4.266781   7.314194   7.654075   6.506787   7.635409
    29  H    2.133701   5.375276   5.367526   5.728919   7.283071
    30  H    1.076961   3.309162   2.914322   4.219622   6.084210
                   21         22         23         24         25
    21  H    0.000000
    22  H    2.457538   0.000000
    23  H    4.256187   2.456597   0.000000
    24  H    7.540615   7.991978   6.681656   0.000000
    25  H    8.745957   9.274373   8.098297   2.474083   0.000000
    26  H   10.099277  10.344375   9.103370   4.732109   2.475379
    27  H    9.821907   9.721638   8.409579   5.463159   3.688299
    28  H    8.957817   9.269185   8.332972   5.058874   3.077786
    29  H    8.101949   7.600573   6.094921   4.909360   4.250984
    30  H    6.788231   5.981827   4.045691   4.231033   4.908651
                   26         27         28         29         30
    26  H    0.000000
    27  H    1.760099   0.000000
    28  H    1.764472   1.764313   0.000000
    29  H    3.662366   2.437820   3.150515   0.000000
    30  H    5.442218   4.711159   5.100521   2.470524   0.000000
 Stoichiometry    C13H13NO2S
 Framework group  C1[X(C13H13NO2S)]
 Deg. of freedom    84
 Full point group                 C1      NOp   1
 Largest Abelian subgroup         C1      NOp   1
 Largest concise Abelian subgroup C1      NOp   1
                         Standard orientation:                         
 ---------------------------------------------------------------------
 Center     Atomic      Atomic             Coordinates (Angstroms)
 Number     Number       Type             X           Y           Z
 ---------------------------------------------------------------------
      1          8           0        0.473287    1.809660    1.490639
      2         16           0        0.073520    1.727410    0.045857
      3          7           0        1.158659    0.856365   -0.944513
      4          6           0        2.079139   -0.040639   -0.405505
      5          6           0        2.039021   -0.472350    0.925073
      6          6           0        2.945261   -1.388546    1.402324
      7          6           0        3.919435   -1.898924    0.567887
      8          6           0        3.984243   -1.484690   -0.747625
      9          6           0        3.078718   -0.569166   -1.230081
     10          6           0       -1.306143    0.579720   -0.017190
     11          6           0       -2.112251    0.441025    1.086753
     12          6           0       -3.180070   -0.432870    1.055669
     13          6           0       -3.453999   -1.171783   -0.086098
     14          6           0       -4.592154   -2.129746   -0.112546
     15          6           0       -2.623607   -1.026758   -1.188185
     16          6           0       -1.556741   -0.151964   -1.153049
     17          8           0       -0.312756    2.955096   -0.724473
     18          1           0        1.508749    1.533868   -1.591804
     19          1           0        1.304874   -0.045872    1.583605
     20          1           0        2.900867   -1.701884    2.432447
     21          1           0        4.631295   -2.614992    0.944040
     22          1           0        4.746484   -1.880600   -1.398371
     23          1           0        3.121094   -0.250838   -2.256772
     24          1           0       -1.895352    1.019729    1.969984
     25          1           0       -3.810135   -0.546249    1.920932
     26          1           0       -5.422480   -1.769069    0.495255
     27          1           0       -4.963494   -2.272171   -1.127757
     28          1           0       -4.288175   -3.102533    0.274828
     29          1           0       -2.818857   -1.604371   -2.075142
     30          1           0       -0.911179   -0.036046   -2.007249
 ---------------------------------------------------------------------
 Rotational constants (GHZ):           0.6783913           0.2796733           0.2389319
 Standard basis: def2SVP (5D, 7F)
 There are   324 symmetry adapted cartesian basis functions of A   symmetry.
 There are   307 symmetry adapted basis functions of A   symmetry.
   307 basis functions,   528 primitive gaussians,   324 cartesian basis functions
    65 alpha electrons       65 beta electrons
       nuclear repulsion energy      1312.9094664231 Hartrees.
 NAtoms=   30 NActive=   30 NUniq=   30 SFac= 1.00D+00 NAtFMM=   60 NAOKFM=F Big=F
 Integral buffers will be    131072 words long.
 Raffenetti 2 integral format.
 Two-electron integral symmetry is turned on.
 Nuclear repulsion after empirical dispersion term =     1312.8904654648 Hartrees.
 One-electron integrals computed using PRISM.
   1 Symmetry operations used in ECPInt.
 ECPInt:  NShTT=   10296 NPrTT=   38220 LenC2=    9446 LenP2D=   24756.
 LDataN:  DoStor=T MaxTD1= 4 Len=   56
 NBasis=   307 RedAO= T EigKep=  2.39D-04  NBF=   307
 NBsUse=   307 1.00D-06 EigRej= -1.00D+00 NBFU=   307
 ExpMin= 1.22D-01 ExpMax= 9.18D+03 ExpMxC= 1.38D+03 IAcc=3 IRadAn=         5 AccDes= 0.00D+00
 Harris functional with IExCor= 4639 and IRadAn=       5 diagonalized for initial guess.
 HarFok:  IExCor= 4639 AccDes= 0.00D+00 IRadAn=         5 IDoV= 1 UseB2=F ITyADJ=14
 ICtDFT=  3500011 ScaDFX=  1.000000  1.000000  1.000000  1.000000
 FoFCou: FMM=F IPFlag=           0 FMFlag=      100000 FMFlg1=           0
         NFxFlg=           0 DoJE=T BraDBF=F KetDBF=T FulRan=T
         wScrn=  0.000000 ICntrl=       500 IOpCl=  0 I1Cent=   200000004 NGrid=           0
         NMat0=    1 NMatS0=      1 NMatT0=    0 NMatD0=    1 NMtDS0=    0 NMtDT0=    0
 Petite list used in FoFCou.
 Requested convergence on RMS density matrix=1.00D-08 within 128 cycles.
 Requested convergence on MAX density matrix=1.00D-06.
 Requested convergence on             energy=1.00D-06.
 No special actions if energy rises.
 Integral accuracy reduced to 1.0D-05 until final iterations.
 Initial convergence to 1.0D-05 achieved.  Increase integral accuracy.
 SCF Done:  E(RwB97XD) =  -1105.64514938     A.U. after   16 cycles
            NFock= 16  Conv=0.36D-08     -V/T= 2.0071

 **********************************************************************

            Population analysis using the SCF Density.

 **********************************************************************

 Orbital symmetries:
       Occupied  (A) (A) (A) (A) (A) (A) (A) (A) (A) (A) (A) (A)
                 (A) (A) (A) (A) (A) (A) (A) (A) (A) (A) (A) (A)
                 (A) (A) (A) (A) (A) (A) (A) (A) (A) (A) (A) (A)
                 (A) (A) (A) (A) (A) (A) (A) (A) (A) (A) (A) (A)
                 (A) (A) (A) (A) (A) (A) (A) (A) (A) (A) (A) (A)
                 (A) (A) (A) (A) (A)
       Virtual   (A) (A) (A) (A) (A) (A) (A) (A) (A) (A) (A) (A)
                 (A) (A) (A) (A) (A) (A) (A) (A) (A) (A) (A) (A)
                 (A) (A) (A) (A) (A) (A) (A) (A) (A) (A) (A) (A)
                 (A) (A) (A) (A) (A) (A) (A) (A) (A) (A) (A) (A)
                 (A) (A) (A) (A) (A) (A) (A) (A) (A) (A) (A) (A)
                 (A) (A) (A) (A) (A) (A) (A) (A) (A) (A) (A) (A)
                 (A) (A) (A) (A) (A) (A) (A) (A) (A) (A) (A) (A)
                 (A) (A) (A) (A) (A) (A) (A) (A) (A) (A) (A) (A)
                 (A) (A) (A) (A) (A) (A) (A) (A) (A) (A) (A) (A)
                 (A) (A) (A) (A) (A) (A) (A) (A) (A) (A) (A) (A)
                 (A) (A) (A) (A) (A) (A) (A) (A) (A) (A) (A) (A)
                 (A) (A) (A) (A) (A) (A) (A) (A) (A) (A) (A) (A)
                 (A) (A) (A) (A) (A) (A) (A) (A) (A) (A) (A) (A)
                 (A) (A) (A) (A) (A) (A) (A) (A) (A) (A) (A) (A)
                 (A) (A) (A) (A) (A) (A) (A) (A) (A) (A) (A) (A)
                 (A) (A) (A) (A) (A) (A) (A) (A) (A) (A) (A) (A)
                 (A) (A) (A) (A) (A) (A) (A) (A) (A) (A) (A) (A)
                 (A) (A) (A) (A) (A) (A) (A) (A) (A) (A) (A) (A)
                 (A) (A) (A) (A) (A) (A) (A) (A) (A) (A) (A) (A)
                 (A) (A) (A) (A) (A) (A) (A) (A) (A) (A) (A) (A)
                 (A) (A)
 The electronic state is 1-A.
 Alpha  occ. eigenvalues --  -89.25617 -19.25933 -19.25483 -14.50136 -10.35633
 Alpha  occ. eigenvalues --  -10.33339 -10.32567 -10.32219 -10.32139 -10.31405
 Alpha  occ. eigenvalues --  -10.31346 -10.30729 -10.30665 -10.30473 -10.30141
 Alpha  occ. eigenvalues --  -10.29679 -10.29580  -8.27382  -6.22825  -6.22704
 Alpha  occ. eigenvalues --   -6.22578  -1.20169  -1.08615  -1.05491  -0.98603
 Alpha  occ. eigenvalues --   -0.95452  -0.90206  -0.86370  -0.85168  -0.84713
 Alpha  occ. eigenvalues --   -0.81470  -0.75954  -0.72567  -0.71718  -0.70846
 Alpha  occ. eigenvalues --   -0.68045  -0.64765  -0.63500  -0.60333  -0.58844
 Alpha  occ. eigenvalues --   -0.57906  -0.56385  -0.54914  -0.54115  -0.53519
 Alpha  occ. eigenvalues --   -0.52927  -0.52873  -0.52624  -0.51579  -0.49716
 Alpha  occ. eigenvalues --   -0.48505  -0.47448  -0.46445  -0.45984  -0.44254
 Alpha  occ. eigenvalues --   -0.44109  -0.42821  -0.41330  -0.40747  -0.38928
 Alpha  occ. eigenvalues --   -0.38499  -0.35283  -0.34359  -0.33850  -0.30974
 Alpha virt. eigenvalues --    0.02794   0.04401   0.05790   0.06171   0.11045
 Alpha virt. eigenvalues --    0.13198   0.13737   0.14696   0.15380   0.16081
 Alpha virt. eigenvalues --    0.17173   0.17245   0.18869   0.19274   0.20551
 Alpha virt. eigenvalues --    0.20626   0.21417   0.22845   0.23692   0.24139
 Alpha virt. eigenvalues --    0.24741   0.25682   0.27146   0.29766   0.31997
 Alpha virt. eigenvalues --    0.34943   0.36675   0.36855   0.37192   0.37567
 Alpha virt. eigenvalues --    0.38332   0.39039   0.39744   0.41801   0.43467
 Alpha virt. eigenvalues --    0.45681   0.47239   0.48064   0.48318   0.48944
 Alpha virt. eigenvalues --    0.49487   0.51407   0.51676   0.52495   0.53749
 Alpha virt. eigenvalues --    0.54766   0.54970   0.55827   0.56461   0.57234
 Alpha virt. eigenvalues --    0.57903   0.58638   0.59659   0.61121   0.62272
 Alpha virt. eigenvalues --    0.62519   0.63317   0.64024   0.64639   0.66111
 Alpha virt. eigenvalues --    0.68655   0.69567   0.70545   0.71101   0.71618
 Alpha virt. eigenvalues --    0.72027   0.73108   0.73353   0.73891   0.74160
 Alpha virt. eigenvalues --    0.74775   0.75604   0.76362   0.76457   0.77190
 Alpha virt. eigenvalues --    0.77418   0.78082   0.79055   0.80019   0.81204
 Alpha virt. eigenvalues --    0.81239   0.82337   0.82670   0.83101   0.83515
 Alpha virt. eigenvalues --    0.84832   0.86080   0.87474   0.89840   0.89925
 Alpha virt. eigenvalues --    0.90627   0.92073   0.93823   0.95647   0.96632
 Alpha virt. eigenvalues --    0.98050   0.99205   1.01796   1.03665   1.05675
 Alpha virt. eigenvalues --    1.08883   1.09836   1.11736   1.12362   1.13291
 Alpha virt. eigenvalues --    1.14969   1.17379   1.18536   1.20587   1.21808
 Alpha virt. eigenvalues --    1.23750   1.24834   1.28036   1.28347   1.29293
 Alpha virt. eigenvalues --    1.30658   1.31293   1.31827   1.32154   1.32770
 Alpha virt. eigenvalues --    1.34655   1.36397   1.37084   1.37678   1.38448
 Alpha virt. eigenvalues --    1.38826   1.40164   1.41042   1.43461   1.49586
 Alpha virt. eigenvalues --    1.54882   1.57610   1.59099   1.61139   1.61806
 Alpha virt. eigenvalues --    1.62699   1.64787   1.69599   1.74178   1.75173
 Alpha virt. eigenvalues --    1.76419   1.77290   1.78679   1.80964   1.81806
 Alpha virt. eigenvalues --    1.82138   1.82322   1.83001   1.83616   1.84288
 Alpha virt. eigenvalues --    1.85328   1.85597   1.85968   1.87638   1.87850
 Alpha virt. eigenvalues --    1.88305   1.88459   1.89148   1.92109   1.92888
 Alpha virt. eigenvalues --    1.93475   1.95451   1.96115   1.99872   2.02089
 Alpha virt. eigenvalues --    2.04076   2.04616   2.05727   2.06491   2.08643
 Alpha virt. eigenvalues --    2.09955   2.10935   2.13101   2.14180   2.16581
 Alpha virt. eigenvalues --    2.17751   2.19818   2.21315   2.21580   2.22752
 Alpha virt. eigenvalues --    2.24808   2.26619   2.29247   2.30827   2.31553
 Alpha virt. eigenvalues --    2.32901   2.35024   2.35751   2.38611   2.38643
 Alpha virt. eigenvalues --    2.40517   2.43267   2.43714   2.44394   2.45387
 Alpha virt. eigenvalues --    2.46040   2.51994   2.55271   2.56868   2.57111
 Alpha virt. eigenvalues --    2.59953   2.62062   2.68616   2.70856   2.71752
 Alpha virt. eigenvalues --    2.72378   2.73055   2.73430   2.73718   2.73939
 Alpha virt. eigenvalues --    2.74730   2.74853   2.77035   2.78549   2.81530
 Alpha virt. eigenvalues --    2.82943   2.83083   2.84286   2.85269   2.85915
 Alpha virt. eigenvalues --    2.88425   2.94135   2.95088   2.96610   2.99714
 Alpha virt. eigenvalues --    3.00992   3.01373   3.03159   3.03619   3.04726
 Alpha virt. eigenvalues --    3.06148   3.08873   3.22981   3.23536   3.25392
 Alpha virt. eigenvalues --    3.31537   3.33481   3.34431   3.45960   3.47379
 Alpha virt. eigenvalues --    3.69672   3.78569
          Condensed to atoms (all electrons):
               1          2          3          4          5          6
     1  O    8.165971   0.393047  -0.040062   0.002590  -0.019098   0.001203
     2  S    0.393047  13.954182   0.192474  -0.030019  -0.001132  -0.001375
     3  N   -0.040062   0.192474   6.866449   0.255330  -0.077024   0.007747
     4  C    0.002590  -0.030019   0.255330   5.182926   0.258244   0.107436
     5  C   -0.019098  -0.001132  -0.077024   0.258244   5.190794   0.267219
     6  C    0.001203  -0.001375   0.007747   0.107436   0.267219   5.046378
     7  C   -0.000027   0.000082  -0.000423  -0.163013   0.086000   0.276332
     8  C   -0.000006  -0.000203   0.006769   0.110355  -0.146427   0.096161
     9  C    0.000316   0.001137  -0.071879   0.264534   0.073902  -0.146398
    10  C   -0.067072   0.240244  -0.083300   0.004562   0.001013  -0.000535
    11  C    0.002872  -0.037684   0.007144  -0.000753  -0.000476  -0.000008
    12  C    0.001354   0.001793   0.000030  -0.000063  -0.000035   0.000004
    13  C   -0.000033   0.000756  -0.000074   0.000014  -0.000013   0.000001
    14  C    0.000000   0.000009   0.000000  -0.000000  -0.000000   0.000000
    15  C   -0.000016   0.001306   0.000449  -0.000157  -0.000103  -0.000007
    16  C    0.004145  -0.038834  -0.020139   0.000917   0.000393   0.000047
    17  O   -0.027531   0.423133  -0.046146   0.000597   0.000150   0.000006
    18  H    0.000991  -0.002145   0.316759  -0.002383   0.004160  -0.000284
    19  H    0.032607  -0.001582  -0.012183  -0.072914   0.440892  -0.046869
    20  H    0.000007  -0.000015  -0.000105   0.015255  -0.065791   0.456067
    21  H    0.000000  -0.000000   0.000011  -0.001437   0.014825  -0.067865
    22  H   -0.000000   0.000003  -0.000113   0.015536  -0.001888   0.013834
    23  H    0.000015  -0.000147  -0.009547  -0.082462   0.016774  -0.002241
    24  H    0.014425  -0.011665   0.000626  -0.000179   0.000006   0.000024
    25  H   -0.000006  -0.000162   0.000001   0.000000  -0.000001   0.000000
    26  H    0.000000  -0.000000   0.000000  -0.000000   0.000000   0.000000
    27  H    0.000000  -0.000000   0.000000  -0.000000  -0.000000   0.000000
    28  H   -0.000000  -0.000000  -0.000000   0.000000   0.000000  -0.000000
    29  H    0.000001  -0.000168  -0.000011   0.000004   0.000001   0.000000
    30  H    0.000255  -0.012769   0.018548  -0.000944  -0.000181   0.000021
               7          8          9         10         11         12
     1  O   -0.000027  -0.000006   0.000316  -0.067072   0.002872   0.001354
     2  S    0.000082  -0.000203   0.001137   0.240244  -0.037684   0.001793
     3  N   -0.000423   0.006769  -0.071879  -0.083300   0.007144   0.000030
     4  C   -0.163013   0.110355   0.264534   0.004562  -0.000753  -0.000063
     5  C    0.086000  -0.146427   0.073902   0.001013  -0.000476  -0.000035
     6  C    0.276332   0.096161  -0.146398  -0.000535  -0.000008   0.000004
     7  C    5.103329   0.285543   0.085411  -0.000003   0.000000  -0.000000
     8  C    0.285543   5.008823   0.309612  -0.000003  -0.000000   0.000000
     9  C    0.085411   0.309612   5.141091  -0.000890  -0.000018  -0.000001
    10  C   -0.000003  -0.000003  -0.000890   5.730257   0.230202   0.091744
    11  C    0.000000  -0.000000  -0.000018   0.230202   5.070808   0.281909
    12  C   -0.000000   0.000000  -0.000001   0.091744   0.281909   5.099778
    13  C   -0.000000  -0.000000  -0.000000  -0.186812   0.099748   0.281223
    14  C   -0.000000   0.000000  -0.000000   0.000624   0.009380  -0.076957
    15  C    0.000001   0.000000  -0.000000   0.098952  -0.124576   0.052165
    16  C   -0.000007  -0.000001  -0.000237   0.203172   0.046753  -0.120096
    17  O   -0.000000   0.000000  -0.000061  -0.044826  -0.002664  -0.000120
    18  H    0.000010   0.000233  -0.014554   0.003282  -0.000461   0.000004
    19  H    0.013758  -0.002132   0.013619  -0.003976   0.000577   0.000287
    20  H   -0.073724   0.014022  -0.001894   0.000002   0.000001  -0.000001
    21  H    0.451800  -0.070308   0.014439   0.000000  -0.000000  -0.000000
    22  H   -0.069169   0.453767  -0.069098   0.000000   0.000000   0.000000
    23  H    0.014903  -0.059815   0.452571  -0.000017   0.000001  -0.000000
    24  H   -0.000000   0.000000  -0.000002  -0.073988   0.450829  -0.051401
    25  H    0.000000  -0.000000   0.000000   0.016602  -0.066901   0.461217
    26  H    0.000000  -0.000000   0.000000  -0.000006   0.000766  -0.008374
    27  H    0.000000   0.000000   0.000000  -0.000009  -0.000560   0.007720
    28  H   -0.000000  -0.000000  -0.000000   0.000129  -0.000150  -0.003871
    29  H   -0.000000   0.000000   0.000000   0.016630  -0.001939   0.014539
    30  H    0.000002   0.000022  -0.000167  -0.076802   0.013251  -0.001761
              13         14         15         16         17         18
     1  O   -0.000033   0.000000  -0.000016   0.004145  -0.027531   0.000991
     2  S    0.000756   0.000009   0.001306  -0.038834   0.423133  -0.002145
     3  N   -0.000074   0.000000   0.000449  -0.020139  -0.046146   0.316759
     4  C    0.000014  -0.000000  -0.000157   0.000917   0.000597  -0.002383
     5  C   -0.000013  -0.000000  -0.000103   0.000393   0.000150   0.004160
     6  C    0.000001   0.000000  -0.000007   0.000047   0.000006  -0.000284
     7  C   -0.000000  -0.000000   0.000001  -0.000007  -0.000000   0.000010
     8  C   -0.000000   0.000000   0.000000  -0.000001   0.000000   0.000233
     9  C   -0.000000  -0.000000  -0.000000  -0.000237  -0.000061  -0.014554
    10  C   -0.186812   0.000624   0.098952   0.203172  -0.044826   0.003282
    11  C    0.099748   0.009380  -0.124576   0.046753  -0.002664  -0.000461
    12  C    0.281223  -0.076957   0.052165  -0.120096  -0.000120   0.000004
    13  C    5.259002   0.407465   0.291827   0.092704  -0.000013   0.000007
    14  C    0.407465   4.550010  -0.076565   0.010109  -0.000000   0.000000
    15  C    0.291827  -0.076565   5.051464   0.320931   0.000090   0.000050
    16  C    0.092704   0.010109   0.320931   5.055922   0.002784   0.002089
    17  O   -0.000013  -0.000000   0.000090   0.002784   8.156215   0.011873
    18  H    0.000007   0.000000   0.000050   0.002089   0.011873   0.511895
    19  H   -0.000026  -0.000000  -0.000063  -0.000874   0.000384  -0.000367
    20  H    0.000000   0.000000   0.000000   0.000001  -0.000000   0.000010
    21  H    0.000000   0.000000  -0.000000   0.000000   0.000000  -0.000001
    22  H   -0.000000  -0.000000  -0.000000  -0.000000  -0.000000  -0.000023
    23  H   -0.000000  -0.000000   0.000000  -0.000018  -0.000023   0.002919
    24  H    0.014008  -0.000214  -0.001870   0.013467   0.000288  -0.000031
    25  H   -0.076866  -0.013329   0.014387  -0.001910   0.000002  -0.000000
    26  H   -0.018573   0.392192   0.006943  -0.000525  -0.000000  -0.000000
    27  H   -0.018592   0.392289  -0.009397   0.000857  -0.000000  -0.000000
    28  H   -0.012045   0.389346  -0.002718  -0.000333   0.000000   0.000000
    29  H   -0.075657  -0.013993   0.459414  -0.066240   0.000000  -0.000004
    30  H    0.014618  -0.000237  -0.055537   0.450638   0.001508  -0.000721
              19         20         21         22         23         24
     1  O    0.032607   0.000007   0.000000  -0.000000   0.000015   0.014425
     2  S   -0.001582  -0.000015  -0.000000   0.000003  -0.000147  -0.011665
     3  N   -0.012183  -0.000105   0.000011  -0.000113  -0.009547   0.000626
     4  C   -0.072914   0.015255  -0.001437   0.015536  -0.082462  -0.000179
     5  C    0.440892  -0.065791   0.014825  -0.001888   0.016774   0.000006
     6  C   -0.046869   0.456067  -0.067865   0.013834  -0.002241   0.000024
     7  C    0.013758  -0.073724   0.451800  -0.069169   0.014903  -0.000000
     8  C   -0.002132   0.014022  -0.070308   0.453767  -0.059815   0.000000
     9  C    0.013619  -0.001894   0.014439  -0.069098   0.452571  -0.000002
    10  C   -0.003976   0.000002   0.000000   0.000000  -0.000017  -0.073988
    11  C    0.000577   0.000001  -0.000000   0.000000   0.000001   0.450829
    12  C    0.000287  -0.000001  -0.000000   0.000000  -0.000000  -0.051401
    13  C   -0.000026   0.000000   0.000000  -0.000000  -0.000000   0.014008
    14  C   -0.000000   0.000000   0.000000  -0.000000  -0.000000  -0.000214
    15  C   -0.000063   0.000000  -0.000000  -0.000000   0.000000  -0.001870
    16  C   -0.000874   0.000001   0.000000  -0.000000  -0.000018   0.013467
    17  O    0.000384  -0.000000   0.000000  -0.000000  -0.000023   0.000288
    18  H   -0.000367   0.000010  -0.000001  -0.000023   0.002919  -0.000031
    19  H    0.628836  -0.013052  -0.000207   0.000016  -0.000122   0.000440
    20  H   -0.013052   0.665234  -0.012039  -0.000256   0.000024  -0.000002
    21  H   -0.000207  -0.012039   0.671904  -0.012321  -0.000234  -0.000000
    22  H    0.000016  -0.000256  -0.012321   0.667393  -0.013083   0.000000
    23  H   -0.000122   0.000024  -0.000234  -0.013083   0.687743  -0.000000
    24  H    0.000440  -0.000002  -0.000000   0.000000  -0.000000   0.624565
    25  H    0.000001  -0.000000   0.000000   0.000000   0.000000  -0.011315
    26  H   -0.000000  -0.000000  -0.000000   0.000000  -0.000000  -0.000001
    27  H    0.000000   0.000000  -0.000000  -0.000000  -0.000000   0.000007
    28  H    0.000000  -0.000000   0.000000   0.000000   0.000000   0.000003
    29  H    0.000001  -0.000000  -0.000000   0.000000  -0.000000   0.000022
    30  H   -0.000069   0.000000  -0.000000  -0.000000   0.000080  -0.000227
              25         26         27         28         29         30
     1  O   -0.000006   0.000000   0.000000  -0.000000   0.000001   0.000255
     2  S   -0.000162  -0.000000  -0.000000  -0.000000  -0.000168  -0.012769
     3  N    0.000001   0.000000   0.000000  -0.000000  -0.000011   0.018548
     4  C    0.000000  -0.000000  -0.000000   0.000000   0.000004  -0.000944
     5  C   -0.000001   0.000000  -0.000000   0.000000   0.000001  -0.000181
     6  C    0.000000   0.000000   0.000000  -0.000000   0.000000   0.000021
     7  C    0.000000   0.000000   0.000000  -0.000000  -0.000000   0.000002
     8  C   -0.000000  -0.000000   0.000000  -0.000000   0.000000   0.000022
     9  C    0.000000   0.000000   0.000000  -0.000000   0.000000  -0.000167
    10  C    0.016602  -0.000006  -0.000009   0.000129   0.016630  -0.076802
    11  C   -0.066901   0.000766  -0.000560  -0.000150  -0.001939   0.013251
    12  C    0.461217  -0.008374   0.007720  -0.003871   0.014539  -0.001761
    13  C   -0.076866  -0.018573  -0.018592  -0.012045  -0.075657   0.014618
    14  C   -0.013329   0.392192   0.392289   0.389346  -0.013993  -0.000237
    15  C    0.014387   0.006943  -0.009397  -0.002718   0.459414  -0.055537
    16  C   -0.001910  -0.000525   0.000857  -0.000333  -0.066240   0.450638
    17  O    0.000002  -0.000000  -0.000000   0.000000   0.000000   0.001508
    18  H   -0.000000  -0.000000  -0.000000   0.000000  -0.000004  -0.000721
    19  H    0.000001  -0.000000   0.000000   0.000000   0.000001  -0.000069
    20  H   -0.000000  -0.000000   0.000000  -0.000000  -0.000000   0.000000
    21  H    0.000000  -0.000000  -0.000000   0.000000  -0.000000  -0.000000
    22  H    0.000000   0.000000  -0.000000   0.000000   0.000000  -0.000000
    23  H    0.000000  -0.000000  -0.000000   0.000000  -0.000000   0.000080
    24  H   -0.011315  -0.000001   0.000007   0.000003   0.000022  -0.000227
    25  H    0.665501   0.004201   0.000150   0.000832  -0.000226   0.000027
    26  H    0.004201   0.617948  -0.022237  -0.017083   0.000160   0.000008
    27  H    0.000150  -0.022237   0.621197  -0.017345   0.004648   0.000000
    28  H    0.000832  -0.017083  -0.017345   0.598173   0.000688   0.000003
    29  H   -0.000226   0.000160   0.004648   0.000688   0.668188  -0.012027
    30  H    0.000027   0.000008   0.000000   0.000003  -0.012027   0.645393
 Mulliken charges:
               1
     1  O   -0.465950
     2  S    0.929733
     3  N   -0.311332
     4  C    0.136024
     5  C   -0.042203
     6  C   -0.006899
     7  C   -0.010804
     8  C   -0.006414
     9  C   -0.051431
    10  C   -0.099178
    11  C    0.021949
    12  C   -0.031087
    13  C   -0.072669
    14  C    0.029872
    15  C   -0.026971
    16  C    0.044285
    17  O   -0.475646
    18  H    0.166692
    19  H    0.023016
    20  H    0.016254
    21  H    0.011432
    22  H    0.015404
    23  H   -0.007318
    24  H    0.032184
    25  H    0.007795
    26  H    0.044582
    27  H    0.041272
    28  H    0.064371
    29  H    0.005970
    30  H    0.017069
 Sum of Mulliken charges =  -0.00000
 Mulliken charges with hydrogens summed into heavy atoms:
               1
     1  O   -0.465950
     2  S    0.929733
     3  N   -0.144640
     4  C    0.136024
     5  C   -0.019187
     6  C    0.009355
     7  C    0.000628
     8  C    0.008990
     9  C   -0.058749
    10  C   -0.099178
    11  C    0.054133
    12  C   -0.023293
    13  C   -0.072669
    14  C    0.180097
    15  C   -0.021001
    16  C    0.061354
    17  O   -0.475646
 Electronic spatial extent (au):  <R**2>=           4820.4241
 Charge=              0.0000 electrons
 Dipole moment (field-independent basis, Debye):
    X=             -1.0599    Y=             -4.0448    Z=             -1.4832  Tot=              4.4366
 Quadrupole moment (field-independent basis, Debye-Ang):
   XX=            -91.3157   YY=           -115.3549   ZZ=            -99.9523
   XY=              4.4012   XZ=             -6.2781   YZ=             -1.8643
 Traceless Quadrupole moment (field-independent basis, Debye-Ang):
   XX=             10.8920   YY=            -13.1473   ZZ=              2.2553
   XY=              4.4012   XZ=             -6.2781   YZ=             -1.8643
 Octapole moment (field-independent basis, Debye-Ang**2):
  XXX=            -26.1577  YYY=            -18.3279  ZZZ=             -6.7981  XYY=              4.5227
  XXY=            -32.6829  XXZ=             -2.3233  XZZ=              1.2098  YZZ=             -3.2643
  YYZ=              3.0066  XYZ=            -16.1560
 Hexadecapole moment (field-independent basis, Debye-Ang**3):
 XXXX=          -4222.4655 YYYY=          -1517.1860 ZZZZ=           -655.1392 XXXY=              7.7176
 XXXZ=            -76.4995 YYYX=             40.4455 YYYZ=             11.9035 ZZZX=            -16.5539
 ZZZY=            -15.4447 XXYY=           -889.4041 XXZZ=           -786.3022 YYZZ=           -351.9658
 XXYZ=             -2.6429 YYXZ=             -3.0029 ZZXY=             -0.5189
 N-N= 1.312890465465D+03 E-N=-5.214546363296D+03  KE= 1.097869449158D+03
   1 Symmetry operations used in ECPInt.
 ECPInt:  NShTT=   10296 NPrTT=   38220 LenC2=    9446 LenP2D=   24756.
 LDataN:  DoStor=T MaxTD1= 5 Len=  102
 Calling FoFJK, ICntrl=      2127 FMM=F ISym2X=0 I1Cent= 0 IOpClX= 0 NMat=1 NMatS=1 NMatT=0.
 ***** Axes restored to original set *****
 -------------------------------------------------------------------
 Center     Atomic                   Forces (Hartrees/Bohr)
 Number     Number              X              Y              Z
 -------------------------------------------------------------------
      1        8          -0.010518699    0.004365755   -0.052812515
      2       16          -0.028669014    0.024350400    0.013595725
      3        7          -0.015091016    0.023701601    0.018662237
      4        6           0.019011066   -0.016311445    0.009717076
      5        6          -0.011818014    0.006110067   -0.005654643
      6        6           0.005035061   -0.003990351   -0.002816897
      7        6           0.004847362   -0.004625449    0.003591891
      8        6           0.002631075   -0.001865739    0.001465741
      9        6          -0.012137474    0.009193488   -0.002086491
     10        6           0.012997552    0.008640775    0.002940485
     11        6          -0.001567179    0.005395401    0.011723595
     12        6           0.001019615    0.001470728   -0.002611330
     13        6          -0.002514536   -0.003972940    0.001085148
     14        6          -0.004899324    0.000249652   -0.001693629
     15        6           0.000633904    0.002919177    0.001590021
     16        6           0.001282178   -0.002257622   -0.012218824
     17        8           0.026263155   -0.040441435    0.027518738
     18        1           0.008908755    0.006691649   -0.015827837
     19        1          -0.004317449   -0.000074267    0.007370489
     20        1          -0.001223491   -0.001583948    0.009983629
     21        1           0.007373376   -0.006647708    0.003742622
     22        1           0.006909711   -0.003536094   -0.006925860
     23        1           0.001001268    0.002323959   -0.012804915
     24        1           0.001855558    0.004941372    0.008849227
     25        1          -0.006101663    0.000500023    0.010015121
     26        1          -0.004550655    0.000954698    0.004170706
     27        1          -0.001963114   -0.002540101   -0.005250057
     28        1           0.001747579   -0.006794772    0.003145864
     29        1          -0.001355360   -0.006164655   -0.009873033
     30        1           0.005209773   -0.001002217   -0.008592287
 -------------------------------------------------------------------
 Cartesian Forces:  Max     0.052812515 RMS     0.011660099

 GradGradGradGradGradGradGradGradGradGradGradGradGradGradGradGradGradGrad
 Berny optimization.
 FormGI is forming the generalized inverse of G from B-inverse, IUseBI=4.
 Internal  Forces:  Max     0.054396980 RMS     0.009878306
 Search for a local minimum.
 Step number   1 out of a maximum of  162
 All quantities printed in internal units (Hartrees-Bohrs-Radians)
 Mixed Optimization -- RFO/linear search
 Second derivative matrix not updated -- first step.
 ITU=  0
     Eigenvalues ---    0.00427   0.00926   0.01191   0.01607   0.01744
     Eigenvalues ---    0.01775   0.02008   0.02139   0.02245   0.02270
     Eigenvalues ---    0.02275   0.02301   0.02309   0.02339   0.02345
     Eigenvalues ---    0.02348   0.02368   0.02384   0.02386   0.02393
     Eigenvalues ---    0.02394   0.02421   0.02628   0.07315   0.07338
     Eigenvalues ---    0.10225   0.11532   0.11784   0.13472   0.15989
     Eigenvalues ---    0.15999   0.15999   0.16000   0.16000   0.16000
     Eigenvalues ---    0.16000   0.16000   0.16000   0.16000   0.16000
     Eigenvalues ---    0.16000   0.17745   0.21999   0.22000   0.22000
     Eigenvalues ---    0.22897   0.22976   0.23458   0.23997   0.24987
     Eigenvalues ---    0.24990   0.25000   0.25000   0.26456   0.33683
     Eigenvalues ---    0.34767   0.34774   0.34777   0.34951   0.36239
     Eigenvalues ---    0.36281   0.36286   0.36299   0.36364   0.36440
     Eigenvalues ---    0.36443   0.36514   0.36669   0.42607   0.43485
     Eigenvalues ---    0.44022   0.44281   0.46679   0.47092   0.47639
     Eigenvalues ---    0.47801   0.48075   0.49076   0.49237   0.49269
     Eigenvalues ---    0.50028   0.50095   0.76240   0.76695
 RFO step:  Lambda=-3.85321802D-02 EMin= 4.26828055D-03
 Linear search not attempted -- first point.
 Maximum step size (   0.300) exceeded in Quadratic search.
    -- Step size scaled by   0.995
 Iteration  1 RMS(Cart)=  0.19624236 RMS(Int)=  0.00851991
 Iteration  2 RMS(Cart)=  0.04051511 RMS(Int)=  0.00097652
 Iteration  3 RMS(Cart)=  0.00062904 RMS(Int)=  0.00095070
 Iteration  4 RMS(Cart)=  0.00000172 RMS(Int)=  0.00095070
 Iteration  5 RMS(Cart)=  0.00000001 RMS(Int)=  0.00095070
 Variable       Old X    -DE/DX   Delta X   Delta X   Delta X     New X
                                 (Linear)    (Quad)   (Total)
    R1        2.83709  -0.05259   0.00000  -0.06532  -0.06532   2.77177
    R2        3.22755  -0.00265   0.00000  -0.00678  -0.00678   3.22077
    R3        3.39343  -0.00279   0.00000  -0.00916  -0.00916   3.38428
    R4        2.83448  -0.05440   0.00000  -0.06718  -0.06718   2.76731
    R5        2.63373   0.02675   0.00000   0.05265   0.05265   2.68638
    R6        1.89025   0.01820   0.00000   0.03516   0.03516   1.92542
    R7        2.64455   0.00682   0.00000   0.01329   0.01330   2.65785
    R8        2.64455   0.00478   0.00000   0.00885   0.00885   2.65340
    R9        2.59688   0.01910   0.00000   0.03547   0.03548   2.63236
   R10        2.03048   0.00732   0.00000   0.01797   0.01797   2.04845
   R11        2.60877   0.01227   0.00000   0.02378   0.02378   2.63255
   R12        2.03644   0.01010   0.00000   0.02503   0.02503   2.06147
   R13        2.60917   0.01148   0.00000   0.02200   0.02199   2.63116
   R14        2.03616   0.01060   0.00000   0.02627   0.02627   2.06244
   R15        2.59858   0.01569   0.00000   0.02867   0.02866   2.62723
   R16        2.03637   0.01035   0.00000   0.02565   0.02565   2.06203
   R17        2.03286   0.01301   0.00000   0.03205   0.03205   2.06491
   R18        2.59639   0.01897   0.00000   0.03552   0.03553   2.63192
   R19        2.59680   0.01949   0.00000   0.03652   0.03653   2.63333
   R20        2.60816   0.01125   0.00000   0.02113   0.02113   2.62929
   R21        2.03709   0.01019   0.00000   0.02528   0.02528   2.06237
   R22        2.62166   0.01442   0.00000   0.02711   0.02709   2.64875
   R23        2.03400   0.01166   0.00000   0.02877   0.02877   2.06277
   R24        2.81169   0.01263   0.00000   0.03348   0.03348   2.84516
   R25        2.62201   0.01483   0.00000   0.02793   0.02792   2.64993
   R26        2.06054   0.00607   0.00000   0.01564   0.01564   2.07619
   R27        2.06044   0.00601   0.00000   0.01547   0.01547   2.07591
   R28        2.06039   0.00766   0.00000   0.01973   0.01973   2.08011
   R29        2.60803   0.01111   0.00000   0.02089   0.02089   2.62892
   R30        2.03394   0.01164   0.00000   0.02873   0.02873   2.06267
   R31        2.03516   0.00993   0.00000   0.02457   0.02457   2.05973
    A1        2.00070  -0.00227   0.00000  -0.00960  -0.01448   1.98622
    A2        1.84770   0.00052   0.00000   0.03480   0.03397   1.88167
    A3        2.11526  -0.00280   0.00000  -0.04134  -0.04583   2.06943
    A4        1.71311   0.02131   0.00000   0.09578   0.09480   1.80791
    A5        1.85797  -0.01575   0.00000  -0.08389  -0.08746   1.77052
    A6        1.88307   0.00591   0.00000   0.04472   0.04717   1.93025
    A7        2.12186   0.03880   0.00000   0.15228   0.15015   2.27201
    A8        1.82572  -0.01128   0.00000  -0.01942  -0.02159   1.80413
    A9        2.04321  -0.01440   0.00000  -0.04282  -0.04643   1.99678
   A10        2.14996   0.01763   0.00000   0.06151   0.06127   2.21124
   A11        2.07938  -0.02059   0.00000  -0.07031  -0.07039   2.00898
   A12        2.05352   0.00292   0.00000   0.00804   0.00791   2.06144
   A13        2.11410  -0.00436   0.00000  -0.01665  -0.01663   2.09747
   A14        2.07130   0.00639   0.00000   0.02959   0.02955   2.10084
   A15        2.09712  -0.00201   0.00000  -0.01253  -0.01256   2.08456
   A16        2.09662   0.00422   0.00000   0.01846   0.01849   2.11511
   A17        2.09286  -0.00342   0.00000  -0.01578  -0.01579   2.07706
   A18        2.09366  -0.00080   0.00000  -0.00266  -0.00267   2.09099
   A19        2.09221  -0.00477   0.00000  -0.01597  -0.01599   2.07623
   A20        2.09542   0.00270   0.00000   0.00957   0.00957   2.10499
   A21        2.09553   0.00208   0.00000   0.00644   0.00644   2.10197
   A22        2.09800   0.00038   0.00000   0.00179   0.00177   2.09977
   A23        2.09248   0.00085   0.00000   0.00430   0.00431   2.09679
   A24        2.09270  -0.00123   0.00000  -0.00609  -0.00609   2.08661
   A25        2.11189   0.00162   0.00000   0.00441   0.00439   2.11629
   A26        2.07000   0.00029   0.00000   0.00332   0.00332   2.07332
   A27        2.10125  -0.00191   0.00000  -0.00768  -0.00768   2.09357
   A28        2.07954  -0.00506   0.00000  -0.01867  -0.01874   2.06079
   A29        2.10533   0.00285   0.00000   0.00859   0.00851   2.11384
   A30        2.09832   0.00220   0.00000   0.01007   0.01005   2.10837
   A31        2.09410  -0.00311   0.00000  -0.01057  -0.01056   2.08355
   A32        2.07840   0.00270   0.00000   0.01103   0.01102   2.08942
   A33        2.11068   0.00041   0.00000  -0.00047  -0.00047   2.11021
   A34        2.10429   0.00238   0.00000   0.00791   0.00789   2.11218
   A35        2.09611  -0.00254   0.00000  -0.01071  -0.01071   2.08541
   A36        2.08279   0.00016   0.00000   0.00280   0.00281   2.08560
   A37        2.10435   0.00037   0.00000   0.00243   0.00244   2.10679
   A38        2.07129  -0.00060   0.00000  -0.00433  -0.00436   2.06694
   A39        2.10712   0.00024   0.00000   0.00199   0.00200   2.10913
   A40        1.93867   0.00106   0.00000   0.00609   0.00606   1.94472
   A41        1.94032   0.00103   0.00000   0.00609   0.00606   1.94639
   A42        1.93356   0.00013   0.00000  -0.00100  -0.00100   1.93256
   A43        1.87850  -0.00006   0.00000   0.00285   0.00279   1.88129
   A44        1.88534  -0.00119   0.00000  -0.00770  -0.00770   1.87765
   A45        1.88516  -0.00109   0.00000  -0.00693  -0.00693   1.87823
   A46        2.10444   0.00278   0.00000   0.00956   0.00956   2.11400
   A47        2.08276  -0.00004   0.00000   0.00200   0.00201   2.08477
   A48        2.09599  -0.00274   0.00000  -0.01157  -0.01157   2.08442
   A49        2.09384  -0.00365   0.00000  -0.01253  -0.01251   2.08133
   A50        2.08172   0.00357   0.00000   0.01499   0.01498   2.09670
   A51        2.10762   0.00008   0.00000  -0.00246  -0.00247   2.10515
    D1        0.33650   0.01560   0.00000   0.16612   0.16525   0.50175
    D2       -2.02677   0.01203   0.00000   0.10269   0.09970  -1.92707
    D3       -1.61278   0.00404   0.00000   0.07660   0.07636  -1.53643
    D4        2.30713   0.00047   0.00000   0.01317   0.01081   2.31794
    D5        2.72497  -0.00603   0.00000   0.01530   0.01959   2.74457
    D6        0.36170  -0.00960   0.00000  -0.04813  -0.04596   0.31574
    D7        0.48137  -0.00213   0.00000  -0.02228  -0.02355   0.45782
    D8       -2.66086  -0.00324   0.00000  -0.04230  -0.04347  -2.70433
    D9        2.55104   0.00413   0.00000   0.01682   0.01712   2.56815
   D10       -0.59119   0.00303   0.00000  -0.00319  -0.00280  -0.59399
   D11       -1.80705  -0.00290   0.00000  -0.02403  -0.02320  -1.83025
   D12        1.33391  -0.00400   0.00000  -0.04404  -0.04312   1.29079
   D13        0.20014   0.00005   0.00000   0.03644   0.03711   0.23726
   D14       -2.96935  -0.00186   0.00000   0.00337   0.00410  -2.96525
   D15        2.47386   0.00953   0.00000   0.13222   0.13149   2.60535
   D16       -0.69564   0.00763   0.00000   0.09915   0.09847  -0.59716
   D17        3.10806  -0.00140   0.00000  -0.02019  -0.02137   3.08669
   D18       -0.07256  -0.00071   0.00000  -0.00851  -0.00930  -0.08186
   D19       -0.00601   0.00083   0.00000   0.01362   0.01366   0.00764
   D20        3.09655   0.00153   0.00000   0.02530   0.02573   3.12228
   D21       -3.11044   0.00044   0.00000   0.01166   0.01047  -3.09996
   D22        0.02204   0.00085   0.00000   0.01773   0.01675   0.03879
   D23        0.00479  -0.00110   0.00000  -0.01864  -0.01854  -0.01374
   D24        3.13727  -0.00068   0.00000  -0.01257  -0.01226   3.12501
   D25        0.00231  -0.00008   0.00000  -0.00083  -0.00098   0.00133
   D26        3.13374   0.00012   0.00000   0.00161   0.00162   3.13536
   D27       -3.09968  -0.00097   0.00000  -0.01361  -0.01388  -3.11356
   D28        0.03174  -0.00077   0.00000  -0.01118  -0.01127   0.02047
   D29        0.00279  -0.00044   0.00000  -0.00745  -0.00728  -0.00448
   D30        3.13835  -0.00003   0.00000  -0.00076  -0.00064   3.13771
   D31       -3.12863  -0.00063   0.00000  -0.00981  -0.00982  -3.13845
   D32        0.00693  -0.00022   0.00000  -0.00312  -0.00319   0.00374
   D33       -0.00400   0.00017   0.00000   0.00239   0.00246  -0.00154
   D34        3.13825   0.00039   0.00000   0.00663   0.00646  -3.13847
   D35       -3.13956  -0.00025   0.00000  -0.00431  -0.00417   3.13945
   D36        0.00269  -0.00003   0.00000  -0.00008  -0.00017   0.00252
   D37        0.00012   0.00064   0.00000   0.01102   0.01072   0.01084
   D38       -3.13220   0.00021   0.00000   0.00478   0.00432  -3.12788
   D39        3.14105   0.00042   0.00000   0.00679   0.00674  -3.13539
   D40        0.00874  -0.00001   0.00000   0.00055   0.00034   0.00908
   D41        3.13785  -0.00102   0.00000  -0.01753  -0.01742   3.12043
   D42       -0.00690  -0.00116   0.00000  -0.01978  -0.01970  -0.02660
   D43       -0.00312   0.00008   0.00000   0.00240   0.00243  -0.00068
   D44        3.13532  -0.00006   0.00000   0.00015   0.00016   3.13548
   D45       -3.13771   0.00096   0.00000   0.01661   0.01679  -3.12091
   D46        0.00769   0.00100   0.00000   0.01729   0.01744   0.02513
   D47        0.00325  -0.00015   0.00000  -0.00363  -0.00368  -0.00043
   D48       -3.13454  -0.00011   0.00000  -0.00295  -0.00303  -3.13757
   D49       -0.00567   0.00026   0.00000   0.00385   0.00389  -0.00178
   D50        3.13680   0.00005   0.00000   0.00056   0.00057   3.13738
   D51        3.13914   0.00040   0.00000   0.00612   0.00617  -3.13787
   D52       -0.00157   0.00018   0.00000   0.00283   0.00286   0.00129
   D53        3.12466  -0.00035   0.00000  -0.00554  -0.00557   3.11909
   D54        0.01402  -0.00053   0.00000  -0.00878  -0.00880   0.00522
   D55       -0.01780  -0.00014   0.00000  -0.00228  -0.00226  -0.02007
   D56       -3.12844  -0.00032   0.00000  -0.00552  -0.00549  -3.13393
   D57        0.59023  -0.00076   0.00000  -0.00772  -0.00774   0.58248
   D58        2.68158   0.00055   0.00000   0.00399   0.00401   2.68559
   D59       -1.50525  -0.00005   0.00000  -0.00138  -0.00138  -1.50663
   D60       -2.58296  -0.00060   0.00000  -0.00452  -0.00454  -2.58751
   D61       -0.49161   0.00072   0.00000   0.00719   0.00721  -0.48440
   D62        1.60474   0.00011   0.00000   0.00181   0.00182   1.60656
   D63       -0.01389   0.00045   0.00000   0.00755   0.00753  -0.00637
   D64        3.12790   0.00037   0.00000   0.00633   0.00633   3.13423
   D65       -3.12448   0.00027   0.00000   0.00429   0.00428  -3.12020
   D66        0.01732   0.00019   0.00000   0.00307   0.00308   0.02040
   D67        0.00540  -0.00011   0.00000  -0.00139  -0.00137   0.00403
   D68       -3.14006  -0.00014   0.00000  -0.00204  -0.00199   3.14114
   D69       -3.13639  -0.00003   0.00000  -0.00016  -0.00017  -3.13657
   D70        0.00134  -0.00006   0.00000  -0.00081  -0.00079   0.00055
         Item               Value     Threshold  Converged?
 Maximum Force            0.054397     0.000450     NO 
 RMS     Force            0.009878     0.000300     NO 
 Maximum Displacement     0.662078     0.001800     NO 
 RMS     Displacement     0.228459     0.001200     NO 
 Predicted change in Energy=-2.250253D-02
 GradGradGradGradGradGradGradGradGradGradGradGradGradGradGradGradGradGrad

                          Input orientation:                          
 ---------------------------------------------------------------------
 Center     Atomic      Atomic             Coordinates (Angstroms)
 Number     Number       Type             X           Y           Z
 ---------------------------------------------------------------------
      1          8           0        0.228503    2.050249    1.260687
      2         16           0       -0.080966    1.645037   -0.114600
      3          7           0        1.169755    0.768870   -0.871478
      4          6           0        2.165455   -0.077359   -0.311708
      5          6           0        2.187662   -0.599252    0.994167
      6          6           0        3.201389   -1.472310    1.382156
      7          6           0        4.209772   -1.845981    0.496589
      8          6           0        4.192176   -1.336327   -0.799009
      9          6           0        3.180943   -0.469879   -1.198424
     10          6           0       -1.434748    0.474452   -0.049323
     11          6           0       -2.309055    0.543133    1.032632
     12          6           0       -3.384989   -0.336650    1.097677
     13          6           0       -3.602344   -1.287563    0.091116
     14          6           0       -4.752131   -2.255236    0.182872
     15          6           0       -2.704449   -1.337844   -0.984829
     16          6           0       -1.625537   -0.463054   -1.062497
     17          8           0       -0.348343    2.686920   -1.108303
     18          1           0        1.515854    1.415563   -1.578679
     19          1           0        1.431827   -0.306937    1.714105
     20          1           0        3.203372   -1.861056    2.401422
     21          1           0        5.001513   -2.527874    0.811723
     22          1           0        4.970914   -1.618528   -1.509361
     23          1           0        3.165612   -0.083480   -2.220413
     24          1           0       -2.139579    1.280532    1.819136
     25          1           0       -4.069040   -0.286979    1.946874
     26          1           0       -5.621077   -1.800231    0.677826
     27          1           0       -5.072376   -2.595943   -0.811168
     28          1           0       -4.466744   -3.145365    0.764142
     29          1           0       -2.853928   -2.076468   -1.774448
     30          1           0       -0.932420   -0.509700   -1.902395
 ---------------------------------------------------------------------
                    Distance matrix (angstroms):
                    1          2          3          4          5
     1  O    0.000000
     2  S    1.466759   0.000000
     3  N    2.659703   1.704358   0.000000
     4  C    3.278860   2.837588   1.421571   0.000000
     5  C    3.305933   3.378294   2.527553   1.406476   0.000000
     6  C    4.610990   4.767807   3.772173   2.426566   1.392985
     7  C    5.622718   5.565177   4.236834   2.821454   2.427106
     8  C    5.605528   5.255158   3.684038   2.435172   2.788698
     9  C    4.595125   4.035789   2.384590   1.404120   2.410559
    10  C    2.639255   1.790882   2.747008   3.651684   3.919638
    11  C    2.960171   2.737648   3.972243   4.713120   4.639719
    12  C    4.333726   4.038969   5.083841   5.732453   5.579795
    13  C    5.213855   4.587218   5.284736   5.907145   5.900292
    14  C    6.671253   6.092652   6.732429   7.269165   7.180614
    15  C    5.012358   4.066638   4.411411   5.075222   5.328667
    16  C    3.892473   2.779975   3.060683   3.883821   4.334618
    17  O    2.519964   1.464396   2.457564   3.820338   4.653024
    18  H    3.181525   2.178536   1.018886   2.063011   3.336217
    19  H    2.685126   3.072931   2.812700   2.166756   1.083995
    20  H    5.044743   5.423093   4.665189   3.408801   2.145736
    21  H    6.628907   6.640998   5.327669   3.912844   3.416230
    22  H    6.604813   6.173954   4.533803   3.417627   3.879828
    23  H    5.029659   4.238217   2.555302   2.154880   3.399402
    24  H    2.551890   2.847822   4.295683   4.991761   4.789487
    25  H    4.939875   4.887442   6.041762   6.634309   6.336520
    26  H    7.027341   6.571960   7.424017   8.036015   7.906885
    27  H    7.347041   6.586752   7.091530   7.679773   7.743008
    28  H    7.020421   6.554021   7.054545   7.386215   7.128585
    29  H    5.978564   4.928897   5.010122   5.597343   5.938437
    30  H    4.231569   2.926445   2.667709   3.509136   4.258287
                    6          7          8          9         10
     6  C    0.000000
     7  C    1.393088   0.000000
     8  C    2.399506   1.392347   0.000000
     9  C    2.768515   2.413548   1.390272   0.000000
    10  C    5.228076   6.127237   5.958458   4.849411   0.000000
    11  C    5.877855   6.963499   7.010941   6.011978   1.392752
    12  C    6.689621   7.766581   7.874656   6.957103   2.403526
    13  C    6.927605   7.842538   7.845333   6.953021   2.796944
    14  C    8.081444   8.976727   9.044840   8.247978   4.302342
    15  C    6.363931   7.089376   6.899128   5.952883   2.402443
    16  C    5.504012   6.196295   5.888788   4.808407   1.393499
    17  O    6.008509   6.625653   6.074413   4.735964   2.682672
    18  H    4.466249   4.711858   3.917076   2.544014   3.454080
    19  H    2.144676   3.401173   3.872326   3.401291   3.455069
    20  H    1.090886   2.154403   3.390550   3.859373   5.742204
    21  H    2.163344   1.091394   2.160848   3.404483   7.154077
    22  H    3.393149   2.157523   1.091178   2.149435   6.895272
    23  H    3.861170   3.402762   2.154960   1.092704   5.117443
    24  H    6.024536   7.199894   7.334423   6.362198   2.153530
    25  H    7.388035   8.548248   8.768620   7.904973   3.391765
    26  H    8.856609   9.832626   9.934596   9.097566   4.819573
    27  H    8.632984   9.403773   9.349797   8.531552   4.820796
    28  H    7.872822   8.777352   8.982926   8.336486   4.791430
    29  H    6.855364   7.423381   7.151704   6.271570   3.390771
    30  H    5.366868   5.829487   5.306813   4.173358   2.157491
                   11         12         13         14         15
    11  C    0.000000
    12  C    1.391360   0.000000
    13  C    2.431151   1.401657   0.000000
    14  C    3.810720   2.527236   1.505596   0.000000
    15  C    2.786496   2.408808   1.402285   2.529454   0.000000
    16  C    2.422638   2.788906   2.432777   3.812932   1.391165
    17  O    3.608852   4.819703   5.274812   6.744286   4.665320
    18  H    4.712749   5.852469   6.024206   7.474320   5.073940
    19  H    3.896310   4.856190   5.379461   6.661973   5.045374
    20  H    6.167704   6.886949   7.210006   8.268457   6.829553
    21  H    7.932484   8.672753   8.722615   9.777698   8.001601
    22  H    8.008274   8.846523   8.727647   9.889725   7.698384
    23  H    6.398979   7.347393   7.252463   8.554704   6.128435
    24  H    1.091360   2.164908   3.423572   4.690890   3.877782
    25  H    2.149993   1.091571   2.159353   2.729900   3.400192
    26  H    4.072682   2.705261   2.163871   1.098670   3.388944
    27  H    4.570486   3.405198   2.164941   1.098524   2.687015
    28  H    4.281674   3.028254   2.156752   1.100749   3.071109
    29  H    3.878002   3.399720   2.159359   2.732442   1.091517
    30  H    3.408514   3.878849   3.421645   4.688862   2.160518
                   16         17         18         19         20
    16  C    0.000000
    17  O    3.399361   0.000000
    18  H    3.696482   2.304958   0.000000
    19  H    4.132962   4.483099   3.717054   0.000000
    20  H    6.105040   6.754031   5.424496   2.454804   0.000000
    21  H    7.189853   7.713724   5.780530   4.299943   2.491004
    22  H    6.711779   6.855087   4.598690   4.963480   4.298516
    23  H    4.943678   4.610833   2.319623   4.305389   4.952026
    24  H    3.407072   3.708956   4.992551   3.909736   6.225413
    25  H    3.880466   5.658777   6.820499   5.505826   7.454684
    26  H    4.558630   7.150280   8.146713   7.283355   8.991407
    27  H    4.061168   7.093195   7.751518   7.343107   8.907795
    28  H    4.313219   7.381248   7.879235   6.614548   7.947378
[...]
     2  S    0.000025   0.000734   0.007031   0.307984  -0.016555   0.004868
     3  N    0.000975   0.013246  -0.039596  -0.061451   0.006362   0.000051
     4  C   -0.112002   0.009900   0.334051   0.045003  -0.002562   0.001884
     5  C    0.048663  -0.090364   0.057823   0.003468   0.000876  -0.002491
     6  C    0.413211   0.022523  -0.097985  -0.000068  -0.001271   0.000434
     7  C    4.963715   0.439121   0.035542  -0.000157  -0.000703  -0.000195
     8  C    0.439121   4.933680   0.408431  -0.001761   0.001196   0.002006
     9  C    0.035542   0.408431   5.115134  -0.000173  -0.014230  -0.000565
    10  C   -0.000157  -0.001761  -0.000173   5.293990   0.316325   0.049775
    11  C   -0.000703   0.001196  -0.014230   0.316325   5.141963   0.357455
    12  C   -0.000195   0.002006  -0.000565   0.049775   0.357455   5.100200
    13  C    0.000042   0.000055  -0.000461  -0.090528   0.033020   0.412502
    14  C   -0.000001  -0.000016   0.000008  -0.004307   0.013795  -0.073665
    15  C    0.000020  -0.000050   0.000794   0.015633  -0.050384  -0.014088
    16  C   -0.000059  -0.000681  -0.001914   0.368103  -0.069601  -0.046393
    17  O   -0.000003  -0.000001  -0.000525  -0.096280   0.008733  -0.000586
    18  H    0.000136   0.001087   0.008837  -0.000735   0.000706  -0.000043
    19  H    0.010215  -0.004442   0.011287   0.001828  -0.000442  -0.000158
    20  H   -0.058354   0.010553  -0.003503  -0.000016  -0.000004   0.000008
    21  H    0.443933  -0.056086   0.012196   0.000004  -0.000018  -0.000002
    22  H   -0.057143   0.438884  -0.053929   0.000005   0.000029   0.000022
    23  H    0.010390  -0.031462   0.439945   0.000786  -0.000269  -0.000258
    24  H    0.000105   0.000167  -0.001666  -0.046324   0.436238  -0.049469
    25  H    0.000008   0.000072  -0.000080   0.010713  -0.048556   0.444521
    26  H    0.000000   0.000000   0.000000   0.000161  -0.000731  -0.004876
    27  H    0.000000  -0.000001   0.000001   0.000065  -0.000709   0.007947
    28  H   -0.000000   0.000001  -0.000002   0.000055   0.001933  -0.006658
    29  H   -0.000000   0.000003  -0.000002   0.011284  -0.003857   0.012872
    30  H   -0.000003   0.000006  -0.000132  -0.045633   0.008280  -0.002425
              13         14         15         16         17         18
     1  O   -0.000112  -0.000000  -0.000265   0.006939  -0.043928   0.002676
     2  S   -0.000536   0.000005   0.005745  -0.039179   0.584231  -0.016601
     3  N    0.000226  -0.000004  -0.001190   0.000036  -0.048058   0.365623
     4  C   -0.000717   0.000007   0.000249   0.001028   0.001635  -0.051477
     5  C    0.000219   0.000006   0.000048   0.000327  -0.000743   0.004527
     6  C   -0.000039  -0.000001  -0.000008   0.000171  -0.000000  -0.000720
     7  C    0.000042  -0.000001   0.000020  -0.000059  -0.000003   0.000136
     8  C    0.000055  -0.000016  -0.000050  -0.000681  -0.000001   0.001087
     9  C   -0.000461   0.000008   0.000794  -0.001914  -0.000525   0.008837
    10  C   -0.090528  -0.004307   0.015633   0.368103  -0.096280  -0.000735
    11  C    0.033020   0.013795  -0.050384  -0.069601   0.008733   0.000706
    12  C    0.412502  -0.073665  -0.014088  -0.046393  -0.000586  -0.000043
    13  C    4.972687   0.297549   0.432367   0.016218   0.000166   0.000064
    14  C    0.297549   4.958416  -0.073384   0.013154   0.000001   0.000000
    15  C    0.432367  -0.073384   5.062891   0.404445   0.002760  -0.000166
    16  C    0.016218   0.013154   0.404445   5.106120   0.026779   0.000145
    17  O    0.000166   0.000001   0.002760   0.026779   8.022374   0.004370
    18  H    0.000064   0.000000  -0.000166   0.000145   0.004370   0.429415
    19  H    0.000015   0.000000   0.000007  -0.000172  -0.000133  -0.000050
    20  H   -0.000000  -0.000000  -0.000000   0.000001  -0.000000   0.000013
    21  H   -0.000001   0.000000   0.000000  -0.000000   0.000000  -0.000002
    22  H   -0.000005   0.000000  -0.000003  -0.000001  -0.000000  -0.000040
    23  H   -0.000009  -0.000000   0.000310   0.000381  -0.000176   0.003564
    24  H    0.008916  -0.000031  -0.002425   0.008176   0.000384  -0.000098
    25  H   -0.063186  -0.006636   0.012776  -0.003657   0.000003   0.000000
    26  H   -0.017375   0.390169  -0.004585  -0.000663  -0.000000  -0.000000
    27  H   -0.054909   0.427651  -0.006509   0.001947   0.000000   0.000000
    28  H   -0.053268   0.427607   0.006944  -0.000640   0.000000  -0.000000
    29  H   -0.062059  -0.006800   0.443188  -0.048867  -0.000028  -0.000009
    30  H    0.008425  -0.000057  -0.048534   0.432620   0.013553   0.000364
              19         20         21         22         23         24
     1  O    0.008967  -0.000038   0.000001  -0.000000  -0.000017   0.008187
     2  S   -0.002920  -0.000003   0.000003  -0.000007  -0.000121  -0.004120
     3  N   -0.001405  -0.000119   0.000008  -0.000360   0.002896   0.000356
     4  C   -0.044799   0.013944  -0.003963   0.015210  -0.080500   0.000126
     5  C    0.434643  -0.057682   0.011296  -0.003858   0.012037   0.000020
     6  C   -0.048927   0.446324  -0.056274   0.010719  -0.003893   0.000349
     7  C    0.010215  -0.058354   0.443933  -0.057143   0.010390   0.000105
     8  C   -0.004442   0.010553  -0.056086   0.438884  -0.031462   0.000167
     9  C    0.011287  -0.003503   0.012196  -0.053929   0.439945  -0.001666
    10  C    0.001828  -0.000016   0.000004   0.000005   0.000786  -0.046324
    11  C   -0.000442  -0.000004  -0.000018   0.000029  -0.000269   0.436238
    12  C   -0.000158   0.000008  -0.000002   0.000022  -0.000258  -0.049469
    13  C    0.000015  -0.000000  -0.000001  -0.000005  -0.000009   0.008916
    14  C    0.000000  -0.000000   0.000000   0.000000  -0.000000  -0.000031
    15  C    0.000007  -0.000000   0.000000  -0.000003   0.000310  -0.002425
    16  C   -0.000172   0.000001  -0.000000  -0.000001   0.000381   0.008176
    17  O   -0.000133  -0.000000   0.000000  -0.000000  -0.000176   0.000384
    18  H   -0.000050   0.000013  -0.000002  -0.000040   0.003564  -0.000098
    19  H    0.476180  -0.006494  -0.000017   0.000015   0.000012  -0.000091
    20  H   -0.006494   0.534762  -0.006847  -0.000125   0.000028  -0.000017
    21  H   -0.000017  -0.006847   0.538790  -0.006649  -0.000098  -0.000004
    22  H    0.000015  -0.000125  -0.006649   0.541630  -0.007508   0.000004
    23  H    0.000012   0.000028  -0.000098  -0.007508   0.538607  -0.000053
    24  H   -0.000091  -0.000017  -0.000004   0.000004  -0.000053   0.481724
    25  H   -0.000007   0.000001  -0.000000  -0.000000  -0.000002  -0.005596
    26  H    0.000000   0.000000  -0.000000  -0.000000   0.000000   0.000008
    27  H   -0.000000  -0.000000   0.000000  -0.000000   0.000000   0.000002
    28  H   -0.000000   0.000000  -0.000000   0.000000  -0.000000  -0.000022
    29  H   -0.000000   0.000000   0.000000   0.000000  -0.000003   0.000026
    30  H   -0.000005   0.000000  -0.000000   0.000000  -0.000067  -0.000066
              25         26         27         28         29         30
     1  O   -0.000011  -0.000000   0.000000   0.000000   0.000004   0.000543
     2  S   -0.000100  -0.000001   0.000001   0.000001  -0.000114  -0.004413
     3  N    0.000031   0.000000  -0.000000  -0.000000   0.000017   0.000275
     4  C    0.000037  -0.000000  -0.000001   0.000003  -0.000007  -0.000183
     5  C   -0.000101  -0.000000   0.000000   0.000000  -0.000002  -0.000018
     6  C    0.000057   0.000000  -0.000000   0.000000   0.000000   0.000007
     7  C    0.000008   0.000000   0.000000  -0.000000  -0.000000  -0.000003
     8  C    0.000072   0.000000  -0.000001   0.000001   0.000003   0.000006
     9  C   -0.000080   0.000000   0.000001  -0.000002  -0.000002  -0.000132
    10  C    0.010713   0.000161   0.000065   0.000055   0.011284  -0.045633
    11  C   -0.048556  -0.000731  -0.000709   0.001933  -0.003857   0.008280
    12  C    0.444521  -0.004876   0.007947  -0.006658   0.012872  -0.002425
    13  C   -0.063186  -0.017375  -0.054909  -0.053268  -0.062059   0.008425
    14  C   -0.006636   0.390169   0.427651   0.427607  -0.006800  -0.000057
    15  C    0.012776  -0.004585  -0.006509   0.006944   0.443188  -0.048534
    16  C   -0.003657  -0.000663   0.001947  -0.000640  -0.048867   0.432620
    17  O    0.000003  -0.000000   0.000000   0.000000  -0.000028   0.013553
    18  H    0.000000  -0.000000   0.000000  -0.000000  -0.000009   0.000364
    19  H   -0.000007   0.000000  -0.000000  -0.000000  -0.000000  -0.000005
    20  H    0.000001   0.000000  -0.000000   0.000000   0.000000   0.000000
    21  H   -0.000000  -0.000000   0.000000  -0.000000   0.000000  -0.000000
    22  H   -0.000000  -0.000000  -0.000000   0.000000   0.000000   0.000000
    23  H   -0.000002   0.000000   0.000000  -0.000000  -0.000003  -0.000067
    24  H   -0.005596   0.000008   0.000002  -0.000022   0.000026  -0.000066
    25  H    0.533615   0.000256   0.000075   0.000874  -0.000049   0.000031
    26  H    0.000256   0.544766  -0.023380  -0.024265   0.000224   0.000007
    27  H    0.000075  -0.023380   0.541999  -0.023654   0.001101  -0.000019
    28  H    0.000874  -0.024265  -0.023654   0.540741   0.000057   0.000003
    29  H   -0.000049   0.000224   0.001101   0.000057   0.533420  -0.005563
    30  H    0.000031   0.000007  -0.000019   0.000003  -0.005563   0.477706
 Mulliken charges:
               1
     1  O   -0.461032
     2  S    0.856458
     3  N   -0.316453
     4  C    0.199947
     5  C   -0.270619
     6  C   -0.072216
     7  C   -0.137611
     8  C   -0.096903
     9  C   -0.217393
    10  C    0.000975
    11  C   -0.135615
    12  C   -0.195640
    13  C    0.160733
    14  C   -0.363466
    15  C   -0.186588
    16  C   -0.174765
    17  O   -0.474530
    18  H    0.248412
    19  H    0.166892
    20  H    0.127569
    21  H    0.123729
    22  H    0.123108
    23  H    0.115481
    24  H    0.165193
    25  H    0.124911
    26  H    0.140285
    27  H    0.128392
    28  H    0.130290
    29  H    0.125162
    30  H    0.165294
 Sum of Mulliken charges =  -0.00000
 Mulliken charges with hydrogens summed into heavy atoms:
               1
     1  O   -0.461032
     2  S    0.856458
     3  N   -0.068041
     4  C    0.199947
     5  C   -0.103726
     6  C    0.055353
     7  C   -0.013882
     8  C    0.026204
     9  C   -0.101912
    10  C    0.000975
    11  C    0.029578
    12  C   -0.070730
    13  C    0.160733
    14  C    0.035501
    15  C   -0.061427
    16  C   -0.009471
    17  O   -0.474530
 Electronic spatial extent (au):  <R**2>=           4366.5323
 Charge=             -0.0000 electrons
 Dipole moment (field-independent basis, Debye):
    X=             -1.8225    Y=             -5.3823    Z=             -1.7646  Tot=              5.9501
 Quadrupole moment (field-independent basis, Debye-Ang):
   XX=            -96.8197   YY=           -114.0123   ZZ=           -101.0958
   XY=              0.2830   XZ=              2.6664   YZ=             -4.5455
 Traceless Quadrupole moment (field-independent basis, Debye-Ang):
   XX=              7.1562   YY=            -10.0364   ZZ=              2.8802
   XY=              0.2830   XZ=              2.6664   YZ=             -4.5455
 Octapole moment (field-independent basis, Debye-Ang**2):
  XXX=            -41.9548  YYY=            -42.3722  ZZZ=            -11.7702  XYY=              3.5013
  XXY=            -16.3263  XXZ=              7.5855  XZZ=              2.8430  YZZ=             -0.4007
  YYZ=             -0.7589  XYZ=             -0.8830
 Hexadecapole moment (field-independent basis, Debye-Ang**3):
 XXXX=          -3343.3378 YYYY=          -1978.1608 ZZZZ=           -577.7528 XXXY=             53.3528
 XXXZ=            112.7691 YYYX=            -18.4141 YYYZ=             17.6594 ZZZX=             13.6159
 ZZZY=            -24.0153 XXYY=           -821.9288 XXZZ=           -639.4668 YYZZ=           -410.8859
 XXYZ=            -31.6075 YYXZ=            -12.7859 ZZXY=             -2.1769
 N-N= 1.331933397406D+03 E-N=-5.259238607847D+03  KE= 1.102023850019D+03
 Breneman (CHELPG) radii used.
 Read replacement radii for each type of atom:
 Atom Element Radius
    1     8    1.70
    2    16    2.00
    3     7    1.70
    4     6    1.50
    5     6    1.50
    6     6    1.50
    7     6    1.50
    8     6    1.50
    9     6    1.50
   10     6    1.50
   11     6    1.50
   12     6    1.50
   13     6    1.50
   14     6    1.50
   15     6    1.50
   16     6    1.50
   17     8    1.70
   18     1    1.45
   19     1    1.45
   20     1    1.45
   21     1    1.45
   22     1    1.45
   23     1    1.45
   24     1    1.45
   25     1    1.45
   26     1    1.45
   27     1    1.45
   28     1    1.45
   29     1    1.45
   30     1    1.45
 Generate Potential Derived Charges using the Breneman model, NDens= 1.
 Grid spacing= 0.300 Box extension= 2.800
 NStep X,Y,Z=   49     42     34   Total possible points=       69972
 Number of Points to Fit=   18716

 **********************************************************************

            Electrostatic Properties Using The SCF Density.

 **********************************************************************

       Atomic Center    1 is at   0.760025  2.053016  1.477423
       Atomic Center    2 is at   0.211344  1.955920  0.139135
       Atomic Center    3 is at   1.389847  1.267748 -0.841660
       Atomic Center    4 is at   1.950949  0.004424 -0.532386
       Atomic Center    5 is at   2.685178 -0.167135  0.646482
       Atomic Center    6 is at   3.218952 -1.416859  0.949264
       Atomic Center    7 is at   3.052433 -2.492131  0.076122
       Atomic Center    8 is at   2.334336 -2.314432 -1.105156
       Atomic Center    9 is at   1.772367 -1.075422 -1.403494
       Atomic Center   10 is at  -1.098880  0.752253  0.173415
       Atomic Center   11 is at  -1.043018 -0.301458  1.084660
       Atomic Center   12 is at  -2.036286 -1.274814  1.051424
       Atomic Center   13 is at  -3.088741 -1.207138  0.129469
       Atomic Center   14 is at  -4.177627 -2.246454  0.128511
       Atomic Center   15 is at  -3.122010 -0.132129 -0.768229
       Atomic Center   16 is at  -2.134153  0.847589 -0.754362
       Atomic Center   17 is at  -0.244659  3.115731 -0.602854
       Atomic Center   18 is at   1.147250  1.412279 -1.817950
       Atomic Center   19 is at   2.820842  0.683130  1.314829
       Atomic Center   20 is at   3.786874 -1.546116  1.873142
       Atomic Center   21 is at   3.484903 -3.465850  0.314590
       Atomic Center   22 is at   2.196973 -3.148960 -1.796025
       Atomic Center   23 is at   1.185678 -0.942068 -2.315971
       Atomic Center   24 is at  -0.230896 -0.351048  1.811665
       Atomic Center   25 is at  -1.993899 -2.105140  1.760602
       Atomic Center   26 is at  -4.981300 -1.962789  0.827133
       Atomic Center   27 is at  -4.629483 -2.356092 -0.867270
       Atomic Center   28 is at  -3.796977 -3.227595  0.445602
       Atomic Center   29 is at  -3.939217 -0.058382 -1.490174
       Atomic Center   30 is at  -2.165099  1.691936 -1.445582
   18716 points will be used for fitting atomic charges
 Fitting point charges to electrostatic potential
 Charges from ESP fit, RMS=   0.00358 RRMS=   0.21877:
 ESP charges:
               1
     1  O   -0.469879
     2  S    0.935346
     3  N   -0.647418
     4  C    0.411351
     5  C   -0.219438
     6  C   -0.055918
     7  C   -0.145997
     8  C   -0.056452
     9  C   -0.269377
    10  C   -0.065600
    11  C   -0.036023
    12  C   -0.230958
    13  C    0.239630
    14  C   -0.271896
    15  C   -0.212112
    16  C   -0.067719
    17  O   -0.485496
    18  H    0.354850
    19  H    0.160391
    20  H    0.097226
    21  H    0.104711
    22  H    0.105209
    23  H    0.111115
    24  H    0.099593
    25  H    0.129063
    26  H    0.090191
    27  H    0.077441
    28  H    0.078756
    29  H    0.126755
    30  H    0.112655
 Sum of ESP charges =  -0.00000
 ESP charges with hydrogens summed into heavy atoms:
               1
     1  O   -0.469879
     2  S    0.935346
     3  N   -0.292568
     4  C    0.411351
     5  C   -0.059047
     6  C    0.041308
     7  C   -0.041286
     8  C    0.048758
     9  C   -0.158262
    10  C   -0.065600
    11  C    0.063570
    12  C   -0.101895
    13  C    0.239630
    14  C   -0.025508
    15  C   -0.085357
    16  C    0.044936
    17  O   -0.485496
 Charge=  -0.00000 Dipole=    -1.7026    -5.2559    -1.7351 Tot=     5.7909
 -----------------------------------------------------------------

              Electrostatic Properties (Atomic Units)

 -----------------------------------------------------------------
    Center     Electric         -------- Electric Field --------
               Potential          X             Y             Z
 -----------------------------------------------------------------
    1 Atom    -22.373374
    2 Atom    -59.026797
    3 Atom    -18.345601
    4 Atom    -14.712676
    5 Atom    -14.763166
    6 Atom    -14.758981
    7 Atom    -14.761228
    8 Atom    -14.756712
    9 Atom    -14.755804
   10 Atom    -14.732019
   11 Atom    -14.745691
   12 Atom    -14.752979
   13 Atom    -14.736843
   14 Atom    -14.755042
   15 Atom    -14.752121
   16 Atom    -14.744869
   17 Atom    -22.373239
   18 Atom     -1.001975
   19 Atom     -1.101927
   20 Atom     -1.099707
   21 Atom     -1.099251
   22 Atom     -1.096083
   23 Atom     -1.087787
   24 Atom     -1.088677
   25 Atom     -1.091438
   26 Atom     -1.097639
   27 Atom     -1.100365
   28 Atom     -1.100250
   29 Atom     -1.090246
   30 Atom     -1.086163
 -----------------------------------------------------------------
 Unable to Open any file for archive entry.
 1\1\GINC-NOTCH071\SP\RwB97XD\def2TZVP\C13H13N1O2S1\U1366379\17-Feb-202
 6\0\\#N Guess=Read Geom=Check Integral(Ultrafine) Density Pop=(ChelpG,
 ReadRadii) NMR wB97XD def2TZVP\\prod_5l_38\\0,1\O,0,0.1879153691,2.430
 3518472,1.0779134699\S,0,-0.0720955091,1.9995993207,-0.2816230548\N,0,
 1.3432879538,1.3139592471,-0.8740722149\C,0,1.9633287699,0.2284031005,
 -0.208045967\C,0,2.4642162157,0.3946454814,1.0879982049\C,0,3.05746177
 88,-0.6829148093,1.7401683095\C,0,3.1820024828,-1.9184276293,1.1043134
 86\C,0,2.696659641,-2.0768373544,-0.1926081572\C,0,2.0761989129,-1.012
 9070368,-0.8430246821\C,0,-1.2277046929,0.6480864552,-0.2134036407\C,0
 ,-1.2412264994,-0.191575528,0.8995121994\C,0,-2.0991118346,-1.28659980
 88,0.9074311239\C,0,-2.9498175765,-1.5504236996,-0.1737432595\C,0,-3.9
 002453279,-2.717121564,-0.1369425401\C,0,-2.9192198882,-0.6842157835,-
 1.2743613247\C,0,-2.0634575925,0.4124801295,-1.3031992634\O,0,-0.49323
 25857,2.9167962618,-1.3232768746\H,0,1.2843586093,1.231598551,-1.88532
 34325\H,0,2.3739876204,1.3679565841,1.5702504434\H,0,3.4421536929,-0.5
 486743861,2.7534729014\H,0,3.659881878,-2.755113749,1.6177475342\H,0,2
 .7880070337,-3.0394450483,-0.7001968995\H,0,1.6705311386,-1.1436987088
 ,-1.8494680006\H,0,-0.5881412218,0.0175502255,1.7482074918\H,0,-2.1096
 023886,-1.950198157,1.7755897831\H,0,-4.8516011451,-2.4240126043,0.335
 7510292\H,0,-4.1322231782,-3.0802402448,-1.1479352757\H,0,-3.487607359
 ,-3.5534158909,0.444795107\H,0,-3.5808279664,-0.8696584458,-2.12427597
 78\H,0,-2.0468563311,1.0947932446,-2.1551605185\\Version=ES64L-G16RevC
 .01\State=1-A\HF=-1106.6304764\RMSD=3.942e-09\Dipole=-0.3364585,-2.292
 5587,-0.3333072\Quadrupole=4.1030852,-7.9299697,3.8268845,2.6669787,2.
 2537304,-0.553359\PG=C01 [X(C13H13N1O2S1)]\\@
 The archive entry for this job was punched.


 SI MONUMENTUM REQUIRIS, CIRCUMSPICE
     -- FROM SIR CHRISTOPHER WREN'S TOMBSTONE
 Job cpu time:       0 days  1 hours 43 minutes 55.7 seconds.
 Elapsed time:       0 days  0 hours 13 minutes 25.1 seconds.
 File lengths (MBytes):  RWF=    226 Int=      0 D2E=      0 Chk=     34 Scr=      2
 Normal termination of Gaussian 16 at Tue Feb 17 17:55:21 2026.
