 Entering Gaussian System, Link 0=g16
 Input=prod_5l_24.com
 Output=prod_5l_24.log
 Initial command:
 /uufs/chpc.utah.edu/sys/installdir/gaussian16/C01/AVX/g16/l1.exe "/scratch/general/vast/u1366379/GAUSSSCRDIR/11028699-notchpeak.peaks/Gau-793747.inp" -scrdir="/scratch/general/vast/u1366379/GAUSSSCRDIR/11028699-notchpeak.peaks/"
 Entering Link 1 = /uufs/chpc.utah.edu/sys/installdir/gaussian16/C01/AVX/g16/l1.exe PID=    793749.
  
 Copyright (c) 1988-2019, Gaussian, Inc.  All Rights Reserved.
  
 This is part of the Gaussian(R) 16 program.  It is based on
 the Gaussian(R) 09 system (copyright 2009, Gaussian, Inc.),
 the Gaussian(R) 03 system (copyright 2003, Gaussian, Inc.),
 the Gaussian(R) 98 system (copyright 1998, Gaussian, Inc.),
 the Gaussian(R) 94 system (copyright 1995, Gaussian, Inc.),
 the Gaussian 92(TM) system (copyright 1992, Gaussian, Inc.),
 the Gaussian 90(TM) system (copyright 1990, Gaussian, Inc.),
 the Gaussian 88(TM) system (copyright 1988, Gaussian, Inc.),
 the Gaussian 86(TM) system (copyright 1986, Carnegie Mellon
 University), and the Gaussian 82(TM) system (copyright 1983,
 Carnegie Mellon University). Gaussian is a federally registered
 trademark of Gaussian, Inc.
  
 This software contains proprietary and confidential information,
 including trade secrets, belonging to Gaussian, Inc.
  
 This software is provided under written license and may be
 used, copied, transmitted, or stored only in accord with that
 written license.
  
 The following legend is applicable only to US Government
 contracts under FAR:
  
                    RESTRICTED RIGHTS LEGEND
  
 Use, reproduction and disclosure by the US Government is
 subject to restrictions as set forth in subparagraphs (a)
 and (c) of the Commercial Computer Software - Restricted
 Rights clause in FAR 52.227-19.
  
 Gaussian, Inc.
 340 Quinnipiac St., Bldg. 40, Wallingford CT 06492
  
  
 ---------------------------------------------------------------
 Warning -- This program may not be used in any manner that
 competes with the business of Gaussian, Inc. or will provide
 assistance to any competitor of Gaussian, Inc.  The licensee
 of this program is prohibited from giving any competitor of
 Gaussian, Inc. access to this program.  By using this program,
 the user acknowledges that Gaussian, Inc. is engaged in the
 business of creating and licensing software in the field of
 computational chemistry and represents and warrants to the
 licensee that it is not a competitor of Gaussian, Inc. and that
 it will not use this program in any manner prohibited above.
 ---------------------------------------------------------------
  

 Cite this work as:
 Gaussian 16, Revision C.01,
 M. J. Frisch, G. W. Trucks, H. B. Schlegel, G. E. Scuseria, 
 M. A. Robb, J. R. Cheeseman, G. Scalmani, V. Barone, 
 G. A. Petersson, H. Nakatsuji, X. Li, M. Caricato, A. V. Marenich, 
 J. Bloino, B. G. Janesko, R. Gomperts, B. Mennucci, H. P. Hratchian, 
 J. V. Ortiz, A. F. Izmaylov, J. L. Sonnenberg, D. Williams-Young, 
 F. Ding, F. Lipparini, F. Egidi, J. Goings, B. Peng, A. Petrone, 
 T. Henderson, D. Ranasinghe, V. G. Zakrzewski, J. Gao, N. Rega, 
 G. Zheng, W. Liang, M. Hada, M. Ehara, K. Toyota, R. Fukuda, 
 J. Hasegawa, M. Ishida, T. Nakajima, Y. Honda, O. Kitao, H. Nakai, 
 T. Vreven, K. Throssell, J. A. Montgomery, Jr., J. E. Peralta, 
 F. Ogliaro, M. J. Bearpark, J. J. Heyd, E. N. Brothers, K. N. Kudin, 
 V. N. Staroverov, T. A. Keith, R. Kobayashi, J. Normand, 
 K. Raghavachari, A. P. Rendell, J. C. Burant, S. S. Iyengar, 
 J. Tomasi, M. Cossi, J. M. Millam, M. Klene, C. Adamo, R. Cammi, 
 J. W. Ochterski, R. L. Martin, K. Morokuma, O. Farkas, 
 J. B. Foresman, and D. J. Fox, Gaussian, Inc., Wallingford CT, 2019.
 
 ******************************************
 Gaussian 16:  ES64L-G16RevC.01  3-Jul-2019
                17-Feb-2026 
 ******************************************
 %NProcShared=8
 Will use up to    8 processors via shared memory.
 %Mem=8GB
 %chk=prod_5l_24.chk
 ------------------------------------------------------
 #N OPT FREQ=NORAMAN Integral(Ultrafine) wB97XD def2SVP
 ------------------------------------------------------
 1/18=20,19=15,26=4,38=1/1,3;
 2/9=110,12=2,17=6,18=5,40=1/2;
 3/5=43,7=101,11=2,25=1,30=1,71=1,74=-58,75=-5/1,2,3;
 4//1;
 5/5=2,38=5/2;
 6/7=2,8=2,9=2,10=2,28=1/1;
 7//1,2,3,16;
 1/18=20,19=15,26=4/3(2);
 2/9=110/2;
 99//99;
 2/9=110/2;
 3/5=43,7=101,11=2,25=1,30=1,71=1,74=-58,75=-5/1,2,3;
 4/5=5,16=3,69=1/1;
 5/5=2,38=5/2;
 7//1,2,3,16;
 1/18=20,19=15,26=4/3(-5);
 2/9=110/2;
 6/7=2,8=2,9=2,10=2,19=2,28=1/1;
 99/9=1/99;
 ----------
 prod_5l_24
 ----------
 Symbolic Z-matrix:
 Charge =  0 Multiplicity = 1
 O                     0.40687   1.86144   1.25112 
 S                     0.00575   1.55181  -0.1608 
 N                     1.00574   0.43438  -0.98542 
 C                     2.09285  -0.19616  -0.38034 
 C                     2.3349   -0.15982   0.99694 
 C                     3.40305  -0.82475   1.54938 
 C                     4.26251  -1.54465   0.74408 
 C                     4.04872  -1.59296  -0.61905 
 C                     2.9806   -0.92936  -1.17564 
 C                    -1.42366   0.46987  -0.06012 
 C                    -1.7661   -0.10059   1.142 
 C                    -2.8603   -0.93789   1.22088 
 C                    -3.61806  -1.21615   0.09234 
 C                    -4.81353  -2.09765   0.17795 
 C                    -3.26414  -0.62214  -1.11052 
 C                    -2.16961   0.21533  -1.1855 
 O                    -0.3015    2.63072  -1.15728 
 H                     1.17478   0.86455  -1.87317 
 H                     1.68466   0.42582   1.61939 
 H                     3.57384  -0.77794   2.61236 
 H                     5.10062  -2.06459   1.17797 
 H                     4.72009  -2.15359  -1.24842 
 H                     2.80573  -0.97327  -2.23618 
 H                    -1.17653   0.1239    2.01559 
 H                    -3.13562  -1.37885   2.16331 
 H                    -4.71795  -2.81309   0.99517 
 H                    -5.71564  -1.50965   0.34881 
 H                    -4.94982  -2.66445  -0.7435 
 H                    -3.85503  -0.81791  -1.9886 
 H                    -1.89399   0.68294  -2.11642 
 

 GradGradGradGradGradGradGradGradGradGradGradGradGradGradGradGradGradGrad
 Berny optimization.
 Initialization pass.
                           ----------------------------
                           !    Initial Parameters    !
                           ! (Angstroms and Degrees)  !
 --------------------------                            --------------------------
 ! Name  Definition              Value          Derivative Info.                !
 --------------------------------------------------------------------------------
 ! R1    R(1,2)                  1.5001         estimate D2E/DX2                !
 ! R2    R(2,3)                  1.7113         estimate D2E/DX2                !
 ! R3    R(2,10)                 1.7955         estimate D2E/DX2                !
 ! R4    R(2,17)                 1.5005         estimate D2E/DX2                !
 ! R5    R(3,4)                  1.3948         estimate D2E/DX2                !
 ! R6    R(3,18)                 1.0009         estimate D2E/DX2                !
 ! R7    R(4,5)                  1.3989         estimate D2E/DX2                !
 ! R8    R(4,9)                  1.3994         estimate D2E/DX2                !
 ! R9    R(5,6)                  1.3741         estimate D2E/DX2                !
 ! R10   R(5,19)                 1.0739         estimate D2E/DX2                !
 ! R11   R(6,7)                  1.3804         estimate D2E/DX2                !
 ! R12   R(6,20)                 1.0776         estimate D2E/DX2                !
 ! R13   R(7,8)                  1.3806         estimate D2E/DX2                !
 ! R14   R(7,21)                 1.0775         estimate D2E/DX2                !
 ! R15   R(8,9)                  1.3752         estimate D2E/DX2                !
 ! R16   R(8,22)                 1.0776         estimate D2E/DX2                !
 ! R17   R(9,23)                 1.0758         estimate D2E/DX2                !
 ! R18   R(10,11)                1.374          estimate D2E/DX2                !
 ! R19   R(10,16)                1.3739         estimate D2E/DX2                !
 ! R20   R(11,12)                1.3801         estimate D2E/DX2                !
 ! R21   R(11,24)                1.0776         estimate D2E/DX2                !
 ! R22   R(12,13)                1.3875         estimate D2E/DX2                !
 ! R23   R(12,25)                1.0763         estimate D2E/DX2                !
 ! R24   R(13,14)                1.4878         estimate D2E/DX2                !
 ! R25   R(13,15)                1.3874         estimate D2E/DX2                !
 ! R26   R(14,26)                1.0903         estimate D2E/DX2                !
 ! R27   R(14,27)                1.0903         estimate D2E/DX2                !
 ! R28   R(14,28)                1.0904         estimate D2E/DX2                !
 ! R29   R(15,16)                1.3802         estimate D2E/DX2                !
 ! R30   R(15,29)                1.0763         estimate D2E/DX2                !
 ! R31   R(16,30)                1.0776         estimate D2E/DX2                !
 ! A1    A(1,2,3)              115.5986         estimate D2E/DX2                !
 ! A2    A(1,2,10)             106.5272         estimate D2E/DX2                !
 ! A3    A(1,2,17)             122.1009         estimate D2E/DX2                !
 ! A4    A(3,2,10)              95.6671         estimate D2E/DX2                !
 ! A5    A(3,2,17)             105.614          estimate D2E/DX2                !
 ! A6    A(10,2,17)            107.9087         estimate D2E/DX2                !
 ! A7    A(2,3,4)              122.7907         estimate D2E/DX2                !
 ! A8    A(2,3,18)             104.2086         estimate D2E/DX2                !
 ! A9    A(4,3,18)             116.5796         estimate D2E/DX2                !
 ! A10   A(3,4,5)              123.3829         estimate D2E/DX2                !
 ! A11   A(3,4,9)              118.9968         estimate D2E/DX2                !
 ! A12   A(5,4,9)              117.6071         estimate D2E/DX2                !
 ! A13   A(4,5,6)              121.1818         estimate D2E/DX2                !
 ! A14   A(4,5,19)             118.6904         estimate D2E/DX2                !
 ! A15   A(6,5,19)             120.1014         estimate D2E/DX2                !
 ! A16   A(5,6,7)              120.1193         estimate D2E/DX2                !
 ! A17   A(5,6,20)             119.9164         estimate D2E/DX2                !
 ! A18   A(7,6,20)             119.9627         estimate D2E/DX2                !
 ! A19   A(6,7,8)              119.8565         estimate D2E/DX2                !
 ! A20   A(6,7,21)             120.0682         estimate D2E/DX2                !
 ! A21   A(8,7,21)             120.0749         estimate D2E/DX2                !
 ! A22   A(7,8,9)              120.1991         estimate D2E/DX2                !
 ! A23   A(7,8,22)             119.8933         estimate D2E/DX2                !
 ! A24   A(9,8,22)             119.9076         estimate D2E/DX2                !
 ! A25   A(4,9,8)              121.0355         estimate D2E/DX2                !
 ! A26   A(4,9,23)             118.5912         estimate D2E/DX2                !
 ! A27   A(8,9,23)             120.3704         estimate D2E/DX2                !
 ! A28   A(2,10,11)            119.8451         estimate D2E/DX2                !
 ! A29   A(2,10,16)            119.8629         estimate D2E/DX2                !
 ! A30   A(11,10,16)           120.292          estimate D2E/DX2                !
 ! A31   A(10,11,12)           119.9682         estimate D2E/DX2                !
 ! A32   A(10,11,24)           119.1074         estimate D2E/DX2                !
 ! A33   A(12,11,24)           120.9213         estimate D2E/DX2                !
 ! A34   A(11,12,13)           120.543          estimate D2E/DX2                !
 ! A35   A(11,12,25)           120.0949         estimate D2E/DX2                !
 ! A36   A(13,12,25)           119.3616         estimate D2E/DX2                !
 ! A37   A(12,13,14)           120.7198         estimate D2E/DX2                !
 ! A38   A(12,13,15)           118.6837         estimate D2E/DX2                !
 ! A39   A(14,13,15)           120.5654         estimate D2E/DX2                !
 ! A40   A(13,14,26)           111.1899         estimate D2E/DX2                !
 ! A41   A(13,14,27)           110.7517         estimate D2E/DX2                !
 ! A42   A(13,14,28)           111.0878         estimate D2E/DX2                !
 ! A43   A(26,14,27)           107.9958         estimate D2E/DX2                !
 ! A44   A(26,14,28)           107.6538         estimate D2E/DX2                !
 ! A45   A(27,14,28)           108.0204         estimate D2E/DX2                !
 ! A46   A(13,15,16)           120.6084         estimate D2E/DX2                !
 ! A47   A(13,15,29)           119.2987         estimate D2E/DX2                !
 ! A48   A(16,15,29)           120.0925         estimate D2E/DX2                !
 ! A49   A(10,16,15)           119.8986         estimate D2E/DX2                !
 ! A50   A(10,16,30)           119.2313         estimate D2E/DX2                !
 ! A51   A(15,16,30)           120.8678         estimate D2E/DX2                !
 ! D1    D(1,2,3,4)              2.5293         estimate D2E/DX2                !
 ! D2    D(1,2,3,18)          -132.8821         estimate D2E/DX2                !
 ! D3    D(10,2,3,4)          -108.8489         estimate D2E/DX2                !
 ! D4    D(10,2,3,18)          115.7396         estimate D2E/DX2                !
 ! D5    D(17,2,3,4)           140.7503         estimate D2E/DX2                !
 ! D6    D(17,2,3,18)            5.3389         estimate D2E/DX2                !
 ! D7    D(1,2,10,11)          -12.2111         estimate D2E/DX2                !
 ! D8    D(1,2,10,16)          167.8328         estimate D2E/DX2                !
 ! D9    D(3,2,10,11)          106.6274         estimate D2E/DX2                !
 ! D10   D(3,2,10,16)          -73.3287         estimate D2E/DX2                !
 ! D11   D(17,2,10,11)        -144.9322         estimate D2E/DX2                !
 ! D12   D(17,2,10,16)          35.1117         estimate D2E/DX2                !
 ! D13   D(2,3,4,5)             11.3325         estimate D2E/DX2                !
 ! D14   D(2,3,4,9)           -170.0219         estimate D2E/DX2                !
 ! D15   D(18,3,4,5)           141.7838         estimate D2E/DX2                !
 ! D16   D(18,3,4,9)           -39.5707         estimate D2E/DX2                !
 ! D17   D(3,4,5,6)            178.4077         estimate D2E/DX2                !
 ! D18   D(3,4,5,19)            -3.4554         estimate D2E/DX2                !
 ! D19   D(9,4,5,6)             -0.2554         estimate D2E/DX2                !
 ! D20   D(9,4,5,19)           177.8815         estimate D2E/DX2                !
 ! D21   D(3,4,9,8)           -178.4964         estimate D2E/DX2                !
 ! D22   D(3,4,9,23)             0.883          estimate D2E/DX2                !
 ! D23   D(5,4,9,8)              0.2273         estimate D2E/DX2                !
 ! D24   D(5,4,9,23)           179.6068         estimate D2E/DX2                !
 ! D25   D(4,5,6,7)              0.0701         estimate D2E/DX2                !
 ! D26   D(4,5,6,20)           179.6233         estimate D2E/DX2                !
 ! D27   D(19,5,6,7)          -178.0408         estimate D2E/DX2                !
 ! D28   D(19,5,6,20)            1.5124         estimate D2E/DX2                !
 ! D29   D(5,6,7,8)              0.1515         estimate D2E/DX2                !
 ! D30   D(5,6,7,21)           179.9137         estimate D2E/DX2                !
 ! D31   D(20,6,7,8)          -179.4015         estimate D2E/DX2                !
 ! D32   D(20,6,7,21)            0.3607         estimate D2E/DX2                !
 ! D33   D(6,7,8,9)             -0.1792         estimate D2E/DX2                !
 ! D34   D(6,7,8,22)           179.9119         estimate D2E/DX2                !
 ! D35   D(21,7,8,9)          -179.9414         estimate D2E/DX2                !
 ! D36   D(21,7,8,22)            0.1497         estimate D2E/DX2                !
 ! D37   D(7,8,9,4)             -0.0143         estimate D2E/DX2                !
 ! D38   D(7,8,9,23)          -179.3827         estimate D2E/DX2                !
 ! D39   D(22,8,9,4)           179.8946         estimate D2E/DX2                !
 ! D40   D(22,8,9,23)            0.5262         estimate D2E/DX2                !
 ! D41   D(2,10,11,12)        -179.6754         estimate D2E/DX2                !
 ! D42   D(2,10,11,24)           0.9596         estimate D2E/DX2                !
 ! D43   D(16,10,11,12)          0.2804         estimate D2E/DX2                !
 ! D44   D(16,10,11,24)       -179.0845         estimate D2E/DX2                !
 ! D45   D(2,10,16,15)         179.6397         estimate D2E/DX2                !
 ! D46   D(2,10,16,30)          -0.9131         estimate D2E/DX2                !
 ! D47   D(11,10,16,15)         -0.3162         estimate D2E/DX2                !
 ! D48   D(11,10,16,30)        179.1311         estimate D2E/DX2                !
 ! D49   D(10,11,12,13)          0.3133         estimate D2E/DX2                !
 ! D50   D(10,11,12,25)       -179.4507         estimate D2E/DX2                !
 ! D51   D(24,11,12,13)        179.6665         estimate D2E/DX2                !
 ! D52   D(24,11,12,25)         -0.0975         estimate D2E/DX2                !
 ! D53   D(11,12,13,14)       -178.8342         estimate D2E/DX2                !
 ! D54   D(11,12,13,15)         -0.8528         estimate D2E/DX2                !
 ! D55   D(25,12,13,14)          0.9314         estimate D2E/DX2                !
 ! D56   D(25,12,13,15)        178.9129         estimate D2E/DX2                !
 ! D57   D(12,13,14,26)        -27.5682         estimate D2E/DX2                !
 ! D58   D(12,13,14,27)         92.513          estimate D2E/DX2                !
 ! D59   D(12,13,14,28)       -147.4423         estimate D2E/DX2                !
 ! D60   D(15,13,14,26)        154.4885         estimate D2E/DX2                !
 ! D61   D(15,13,14,27)        -85.4303         estimate D2E/DX2                !
 ! D62   D(15,13,14,28)         34.6143         estimate D2E/DX2                !
 ! D63   D(12,13,15,16)          0.8172         estimate D2E/DX2                !
 ! D64   D(12,13,15,29)       -178.9702         estimate D2E/DX2                !
 ! D65   D(14,13,15,16)        178.8019         estimate D2E/DX2                !
 ! D66   D(14,13,15,29)         -0.9856         estimate D2E/DX2                !
 ! D67   D(13,15,16,10)         -0.2413         estimate D2E/DX2                !
 ! D68   D(13,15,16,30)       -179.6793         estimate D2E/DX2                !
 ! D69   D(29,15,16,10)        179.5445         estimate D2E/DX2                !
 ! D70   D(29,15,16,30)          0.1064         estimate D2E/DX2                !
 --------------------------------------------------------------------------------
 Trust Radius=3.00D-01 FncErr=1.00D-07 GrdErr=1.00D-06 EigMax=2.50D+02 EigMin=1.00D-04
 Number of steps in this run=    162 maximum allowed number of steps=    180.
 GradGradGradGradGradGradGradGradGradGradGradGradGradGradGradGradGradGrad

                          Input orientation:                          
 ---------------------------------------------------------------------
 Center     Atomic      Atomic             Coordinates (Angstroms)
 Number     Number       Type             X           Y           Z
 ---------------------------------------------------------------------
      1          8           0        0.406870    1.861440    1.251120
      2         16           0        0.005750    1.551810   -0.160800
      3          7           0        1.005740    0.434380   -0.985420
      4          6           0        2.092850   -0.196160   -0.380340
      5          6           0        2.334900   -0.159820    0.996940
      6          6           0        3.403050   -0.824750    1.549380
      7          6           0        4.262510   -1.544650    0.744080
      8          6           0        4.048720   -1.592960   -0.619050
      9          6           0        2.980600   -0.929360   -1.175640
     10          6           0       -1.423660    0.469870   -0.060120
     11          6           0       -1.766100   -0.100590    1.142000
     12          6           0       -2.860300   -0.937890    1.220880
     13          6           0       -3.618060   -1.216150    0.092340
     14          6           0       -4.813530   -2.097650    0.177950
     15          6           0       -3.264140   -0.622140   -1.110520
     16          6           0       -2.169610    0.215330   -1.185500
     17          8           0       -0.301500    2.630720   -1.157280
     18          1           0        1.174780    0.864550   -1.873170
     19          1           0        1.684660    0.425820    1.619390
     20          1           0        3.573840   -0.777940    2.612360
     21          1           0        5.100620   -2.064590    1.177970
     22          1           0        4.720090   -2.153590   -1.248420
     23          1           0        2.805730   -0.973270   -2.236180
     24          1           0       -1.176530    0.123900    2.015590
     25          1           0       -3.135620   -1.378850    2.163310
     26          1           0       -4.717950   -2.813090    0.995170
     27          1           0       -5.715640   -1.509650    0.348810
     28          1           0       -4.949820   -2.664450   -0.743500
     29          1           0       -3.855030   -0.817910   -1.988600
     30          1           0       -1.893990    0.682940   -2.116420
 ---------------------------------------------------------------------
                    Distance matrix (angstroms):
                    1          2          3          4          5
     1  O    0.000000
     2  S    1.500095   0.000000
     3  N    2.719790   1.711323   0.000000
     4  C    3.120562   2.731224   1.394816   0.000000
     5  C    2.804888   3.113676   2.459571   1.398860   0.000000
     6  C    4.035055   4.484908   3.709139   2.415692   1.374142
     7  C    5.169574   5.341056   4.185007   2.791088   2.386917
     8  C    5.356630   5.142488   3.674787   2.415256   2.757262
     9  C    4.505754   4.004477   2.407497   1.399351   2.393580
    10  C    2.647009   1.795534   2.599889   3.593324   3.954827
    11  C    2.929721   2.750848   3.534856   4.149476   4.103992
    12  C    4.302507   4.040036   4.658020   5.258114   5.257913
    13  C    5.197537   4.567021   5.026464   5.820507   6.113253
    14  C    6.639176   6.054649   6.452016   7.185084   7.451576
    15  C    5.022134   4.039828   4.400427   5.423280   6.000365
    16  C    3.909609   2.751069   3.189179   4.357312   5.019402
    17  O    2.625637   1.500474   2.561703   3.785208   4.402088
    18  H    3.368184   2.184300   1.000860   2.048536   3.260789
    19  H    1.956879   2.693635   2.691847   2.133635   1.073886
    20  H    4.341544   5.084232   4.583544   3.389403   2.127587
    21  H    6.119669   6.389707   5.262428   3.868597   3.363053
    22  H    6.400940   6.094088   4.534661   3.389319   3.834826
    23  H    5.094249   4.303849   2.604965   2.134535   3.366964
    24  H    2.471966   2.858913   3.723541   4.065927   3.667190
    25  H    4.886799   4.884512   5.509371   5.933448   5.724774
    26  H    6.941219   6.534674   6.872367   7.424779   7.535419
    27  H    7.047236   6.508959   7.122947   7.951694   8.188608
    28  H    7.290838   6.532539   6.717884   7.471515   7.897433
    29  H    5.986526   4.884880   5.118758   6.192766   6.903750
    30  H    4.245367   2.861537   3.122399   4.436404   5.318530
                    6          7          8          9         10
     6  C    0.000000
     7  C    1.380375   0.000000
     8  C    2.389378   1.380639   0.000000
     9  C    2.759555   2.388975   1.375150   0.000000
    10  C    5.250111   6.085849   5.874914   4.753918   0.000000
    11  C    5.235502   6.211907   6.256245   5.346913   1.373966
    12  C    6.272979   7.164490   7.179764   6.313438   2.384677
    13  C    7.181375   7.914295   7.708928   6.725499   2.771516
    14  C    8.426938   9.110478   8.912317   7.996597   4.259114
    15  C    7.181054   7.806473   7.393372   6.252632   2.383945
    16  C    6.294114   6.942116   6.500647   5.275896   1.373940
    17  O    5.743690   6.471404   6.087165   4.842178   2.670632
    18  H    4.419589   4.710448   3.983931   2.639251   3.192932
    19  H    2.126427   3.360689   3.830779   3.365734   3.533320
    20  H    1.077630   2.133678   3.366271   3.837161   5.802946
    21  H    2.134688   1.077509   2.134996   3.364924   7.107924
    22  H    3.365724   2.133130   1.077567   2.128347   6.785298
    23  H    3.835272   3.366101   2.131701   1.075757   4.970476
    24  H    4.699983   5.829576   6.098539   5.345562   2.118806
    25  H    6.590762   7.534854   7.707277   6.982748   3.360389
    26  H    8.379217   9.073073   8.997162   8.217574   4.769047
    27  H    9.222850   9.986037   9.812564   8.847897   4.744135
    28  H    8.855068   9.398610   9.062963   8.129505   4.767051
    29  H    8.074471   8.595938   8.058885   6.884705   3.359907
    30  H    6.615879   7.144726   6.537403   5.219790   2.120137
                   11         12         13         14         15
    11  C    0.000000
    12  C    1.380061   0.000000
    13  C    2.403334   1.387527   0.000000
    14  C    3.768882   2.499571   1.487790   0.000000
    15  C    2.754993   2.387093   1.387436   2.497578   0.000000
    16  C    2.383250   2.756381   2.404167   3.768181   1.380208
    17  O    3.858989   4.993804   5.230634   6.670737   4.400059
    18  H    4.321055   5.394794   5.582460   6.988675   4.742984
    19  H    3.523174   4.761846   5.757325   7.118435   5.748152
    20  H    5.579939   6.584828   7.633214   8.832664   7.787302
    21  H    7.142159   8.040369   8.826881   9.964512   8.791306
    22  H    7.211073   8.064594   8.497128   9.639895   8.130946
    23  H    5.751113   6.637500   6.837110   8.071269   6.183343
    24  H    1.077566   2.143372   3.384626   4.641118   3.832395
    25  H    2.133684   1.076300   2.132636   2.696982   3.362602
    26  H    4.011563   2.649185   2.138943   1.090339   3.368643
    27  H    4.267724   3.039800   2.133486   1.090293   2.987837
    28  H    4.501618   3.347520   2.137706   1.090370   2.673434
    29  H    3.831297   3.362238   2.131915   2.692656   1.076337
    30  H    3.353741   3.833851   3.384905   4.638915   2.142984
                   16         17         18         19         20
    16  C    0.000000
    17  O    3.053644   0.000000
    18  H    3.475532   2.410655   0.000000
    19  H    4.771489   4.064027   3.556745   0.000000
    20  H    6.956834   6.391198   5.345394   2.450312   0.000000
    21  H    7.977485   7.528760   5.770748   4.250385   2.458455
    22  H    7.285857   6.936447   4.697734   4.908312   4.255811
    23  H    5.222136   4.879308   2.483819   4.252020   4.912890
    24  H    3.352841   4.137261   4.604311   2.904228   4.871906
    25  H    3.832638   5.927496   6.317085   5.175691   6.751266
    26  H    4.518925   7.333017   7.515097   7.202333   8.689702
    27  H    4.231311   6.980249   7.619180   7.754022   9.589239
    28  H    4.027166   7.058110   7.158262   7.690861   9.352727
    29  H    2.133822   5.021127   5.304996   6.727007   8.738337
    30  H    1.077607   2.692549   3.083748   5.179684   7.375140
                   21         22         23         24         25
    21  H    0.000000
    22  H    2.457660   0.000000
    23  H    4.256045   2.456339   0.000000
    24  H    6.700277   7.114130   5.927877   0.000000
    25  H    8.323268   8.599553   7.404029   2.473482   0.000000
    26  H    9.848756   9.723437   8.392397   4.712624   2.434207
    27  H   10.862180  10.576874   8.920965   5.103936   3.156901
    28  H   10.250035   9.696550   8.076926   5.442903   3.659731
    29  H    9.580451   8.710028   6.667170   4.908656   4.250948
    30  H    8.205272   7.248819   4.984450   4.230931   4.910062
                   26         27         28         29         30
    26  H    0.000000
    27  H    1.764121   0.000000
    28  H    1.760350   1.764422   0.000000
    29  H    3.691647   3.066571   2.481642   0.000000
    30  H    5.466166   5.048744   4.735824   2.472765   0.000000
 Stoichiometry    C13H13NO2S
 Framework group  C1[X(C13H13NO2S)]
 Deg. of freedom    84
 Full point group                 C1      NOp   1
 Largest Abelian subgroup         C1      NOp   1
 Largest concise Abelian subgroup C1      NOp   1
                         Standard orientation:                         
 ---------------------------------------------------------------------
 Center     Atomic      Atomic             Coordinates (Angstroms)
 Number     Number       Type             X           Y           Z
 ---------------------------------------------------------------------
      1          8           0        0.497566    1.529972    1.675912
      2         16           0        0.051064    1.590616    0.245092
      3          7           0        1.008861    0.709717   -0.866335
      4          6           0        2.102684   -0.062236   -0.474990
      5          6           0        2.384823   -0.377218    0.858424
      6          6           0        3.457630   -1.168980    1.190785
      7          6           0        4.281904   -1.668998    0.202863
      8          6           0        4.028225   -1.369407   -1.120789
      9          6           0        2.955307   -0.577883   -1.457501
     10          6           0       -1.392022    0.530184    0.114969
     11          6           0       -1.708826   -0.322776    1.144472
     12          6           0       -2.813588   -1.143774    1.044322
     13          6           0       -3.607878   -1.121472   -0.093148
     14          6           0       -4.814370   -1.986100   -0.194716
     15          6           0       -3.279243   -0.245635   -1.117789
     16          6           0       -2.174036    0.574539   -1.013835
     17          8           0       -0.267398    2.888870   -0.436479
     18          1           0        1.159157    1.348912   -1.621690
     19          1           0        1.762241    0.037402    1.628951
     20          1           0        3.659671   -1.393797    2.225156
     21          1           0        5.123709   -2.288621    0.464508
     22          1           0        4.672127   -1.758254   -1.892371
     23          1           0        2.749305   -0.350843   -2.488650
     24          1           0       -1.090835   -0.331268    2.027174
     25          1           0       -3.068706   -1.806354    1.853225
     26          1           0       -4.706794   -2.885643    0.411987
     27          1           0       -5.701644   -1.452970    0.147710
     28          1           0       -4.986193   -2.300428   -1.224561
     29          1           0       -3.898222   -0.208211   -1.997542
     30          1           0       -1.917860    1.259990   -1.804889
 ---------------------------------------------------------------------
 Rotational constants (GHZ):           0.7424037           0.2546358           0.2278436
 Standard basis: def2SVP (5D, 7F)
 There are   324 symmetry adapted cartesian basis functions of A   symmetry.
 There are   307 symmetry adapted basis functions of A   symmetry.
   307 basis functions,   528 primitive gaussians,   324 cartesian basis functions
    65 alpha electrons       65 beta electrons
       nuclear repulsion energy      1304.4269719993 Hartrees.
 NAtoms=   30 NActive=   30 NUniq=   30 SFac= 1.00D+00 NAtFMM=   60 NAOKFM=F Big=F
 Integral buffers will be    131072 words long.
 Raffenetti 2 integral format.
 Two-electron integral symmetry is turned on.
 Nuclear repulsion after empirical dispersion term =     1304.4083642592 Hartrees.
 One-electron integrals computed using PRISM.
   1 Symmetry operations used in ECPInt.
 ECPInt:  NShTT=   10296 NPrTT=   38220 LenC2=    9347 LenP2D=   24502.
 LDataN:  DoStor=T MaxTD1= 4 Len=   56
 NBasis=   307 RedAO= T EigKep=  2.41D-04  NBF=   307
 NBsUse=   307 1.00D-06 EigRej= -1.00D+00 NBFU=   307
 ExpMin= 1.22D-01 ExpMax= 9.18D+03 ExpMxC= 1.38D+03 IAcc=3 IRadAn=         5 AccDes= 0.00D+00
 Harris functional with IExCor= 4639 and IRadAn=       5 diagonalized for initial guess.
 HarFok:  IExCor= 4639 AccDes= 0.00D+00 IRadAn=         5 IDoV= 1 UseB2=F ITyADJ=14
 ICtDFT=  3500011 ScaDFX=  1.000000  1.000000  1.000000  1.000000
 FoFCou: FMM=F IPFlag=           0 FMFlag=      100000 FMFlg1=           0
         NFxFlg=           0 DoJE=T BraDBF=F KetDBF=T FulRan=T
         wScrn=  0.000000 ICntrl=       500 IOpCl=  0 I1Cent=   200000004 NGrid=           0
         NMat0=    1 NMatS0=      1 NMatT0=    0 NMatD0=    1 NMtDS0=    0 NMtDT0=    0
 Petite list used in FoFCou.
 Requested convergence on RMS density matrix=1.00D-08 within 128 cycles.
 Requested convergence on MAX density matrix=1.00D-06.
 Requested convergence on             energy=1.00D-06.
 No special actions if energy rises.
 Integral accuracy reduced to 1.0D-05 until final iterations.
 Initial convergence to 1.0D-05 achieved.  Increase integral accuracy.
 SCF Done:  E(RwB97XD) =  -1105.64285454     A.U. after   15 cycles
            NFock= 15  Conv=0.98D-08     -V/T= 2.0071

 **********************************************************************

            Population analysis using the SCF Density.

 **********************************************************************

 Orbital symmetries:
       Occupied  (A) (A) (A) (A) (A) (A) (A) (A) (A) (A) (A) (A)
                 (A) (A) (A) (A) (A) (A) (A) (A) (A) (A) (A) (A)
                 (A) (A) (A) (A) (A) (A) (A) (A) (A) (A) (A) (A)
                 (A) (A) (A) (A) (A) (A) (A) (A) (A) (A) (A) (A)
                 (A) (A) (A) (A) (A) (A) (A) (A) (A) (A) (A) (A)
                 (A) (A) (A) (A) (A)
       Virtual   (A) (A) (A) (A) (A) (A) (A) (A) (A) (A) (A) (A)
                 (A) (A) (A) (A) (A) (A) (A) (A) (A) (A) (A) (A)
                 (A) (A) (A) (A) (A) (A) (A) (A) (A) (A) (A) (A)
                 (A) (A) (A) (A) (A) (A) (A) (A) (A) (A) (A) (A)
                 (A) (A) (A) (A) (A) (A) (A) (A) (A) (A) (A) (A)
                 (A) (A) (A) (A) (A) (A) (A) (A) (A) (A) (A) (A)
                 (A) (A) (A) (A) (A) (A) (A) (A) (A) (A) (A) (A)
                 (A) (A) (A) (A) (A) (A) (A) (A) (A) (A) (A) (A)
                 (A) (A) (A) (A) (A) (A) (A) (A) (A) (A) (A) (A)
                 (A) (A) (A) (A) (A) (A) (A) (A) (A) (A) (A) (A)
                 (A) (A) (A) (A) (A) (A) (A) (A) (A) (A) (A) (A)
                 (A) (A) (A) (A) (A) (A) (A) (A) (A) (A) (A) (A)
                 (A) (A) (A) (A) (A) (A) (A) (A) (A) (A) (A) (A)
                 (A) (A) (A) (A) (A) (A) (A) (A) (A) (A) (A) (A)
                 (A) (A) (A) (A) (A) (A) (A) (A) (A) (A) (A) (A)
                 (A) (A) (A) (A) (A) (A) (A) (A) (A) (A) (A) (A)
                 (A) (A) (A) (A) (A) (A) (A) (A) (A) (A) (A) (A)
                 (A) (A) (A) (A) (A) (A) (A) (A) (A) (A) (A) (A)
                 (A) (A) (A) (A) (A) (A) (A) (A) (A) (A) (A) (A)
                 (A) (A) (A) (A) (A) (A) (A) (A) (A) (A) (A) (A)
                 (A) (A)
 The electronic state is 1-A.
 Alpha  occ. eigenvalues --  -89.25950 -19.26681 -19.26023 -14.49820 -10.35493
 Alpha  occ. eigenvalues --  -10.33367 -10.32502 -10.32257 -10.32063 -10.31432
 Alpha  occ. eigenvalues --  -10.31320 -10.30704 -10.30419 -10.30291 -10.29962
 Alpha  occ. eigenvalues --  -10.29453 -10.29232  -8.27709  -6.23143  -6.23052
 Alpha  occ. eigenvalues --   -6.22893  -1.20599  -1.09352  -1.05210  -0.98588
 Alpha  occ. eigenvalues --   -0.95273  -0.90210  -0.86326  -0.85041  -0.84633
 Alpha  occ. eigenvalues --   -0.81326  -0.75897  -0.72543  -0.71466  -0.70775
 Alpha  occ. eigenvalues --   -0.68025  -0.64388  -0.63774  -0.60570  -0.58846
 Alpha  occ. eigenvalues --   -0.58259  -0.56496  -0.54740  -0.54086  -0.53493
 Alpha  occ. eigenvalues --   -0.52952  -0.52803  -0.52709  -0.51430  -0.49561
 Alpha  occ. eigenvalues --   -0.48513  -0.47297  -0.46347  -0.46025  -0.44200
 Alpha  occ. eigenvalues --   -0.44075  -0.43007  -0.41501  -0.40890  -0.39471
 Alpha  occ. eigenvalues --   -0.38694  -0.35317  -0.34662  -0.33819  -0.30386
 Alpha virt. eigenvalues --    0.02923   0.04347   0.06057   0.06497   0.10614
 Alpha virt. eigenvalues --    0.13064   0.13466   0.14745   0.15265   0.15983
 Alpha virt. eigenvalues --    0.16983   0.17224   0.18597   0.19395   0.20616
 Alpha virt. eigenvalues --    0.20838   0.21648   0.22331   0.23749   0.24378
 Alpha virt. eigenvalues --    0.24634   0.25903   0.29037   0.30655   0.32225
 Alpha virt. eigenvalues --    0.34941   0.36376   0.36471   0.37506   0.37662
 Alpha virt. eigenvalues --    0.38697   0.39850   0.40073   0.41484   0.43908
 Alpha virt. eigenvalues --    0.46423   0.47450   0.47908   0.48619   0.49090
 Alpha virt. eigenvalues --    0.49752   0.51302   0.52080   0.52589   0.53693
 Alpha virt. eigenvalues --    0.54742   0.54957   0.55643   0.56364   0.57766
 Alpha virt. eigenvalues --    0.58210   0.58897   0.58992   0.61099   0.61436
 Alpha virt. eigenvalues --    0.61984   0.63060   0.63959   0.64716   0.65338
 Alpha virt. eigenvalues --    0.68683   0.69753   0.70364   0.70839   0.71926
 Alpha virt. eigenvalues --    0.72120   0.72183   0.72943   0.73710   0.74247
 Alpha virt. eigenvalues --    0.74889   0.75365   0.76121   0.76241   0.76935
 Alpha virt. eigenvalues --    0.77864   0.78320   0.78847   0.78971   0.80409
 Alpha virt. eigenvalues --    0.80863   0.82487   0.83043   0.83570   0.84667
 Alpha virt. eigenvalues --    0.85179   0.86195   0.86363   0.88109   0.89627
 Alpha virt. eigenvalues --    0.91656   0.92517   0.93730   0.94801   0.96951
 Alpha virt. eigenvalues --    0.97680   0.99812   1.00989   1.04013   1.05465
 Alpha virt. eigenvalues --    1.07530   1.08893   1.12233   1.12564   1.14314
 Alpha virt. eigenvalues --    1.14826   1.17665   1.18784   1.21285   1.23633
 Alpha virt. eigenvalues --    1.24012   1.25603   1.27165   1.27988   1.29138
 Alpha virt. eigenvalues --    1.29982   1.31553   1.31919   1.32831   1.33225
 Alpha virt. eigenvalues --    1.34201   1.34451   1.36989   1.37882   1.38145
 Alpha virt. eigenvalues --    1.38701   1.39853   1.42548   1.45048   1.52552
 Alpha virt. eigenvalues --    1.55092   1.55783   1.60094   1.60669   1.62697
 Alpha virt. eigenvalues --    1.63586   1.67054   1.69491   1.74030   1.74939
 Alpha virt. eigenvalues --    1.77583   1.77724   1.79258   1.80129   1.81041
 Alpha virt. eigenvalues --    1.81951   1.82531   1.83119   1.83712   1.84406
 Alpha virt. eigenvalues --    1.84984   1.86027   1.86592   1.87321   1.87917
 Alpha virt. eigenvalues --    1.87997   1.88408   1.90233   1.91759   1.92433
 Alpha virt. eigenvalues --    1.93405   1.95298   1.97117   1.98451   2.03092
 Alpha virt. eigenvalues --    2.04132   2.04883   2.05548   2.06377   2.08230
 Alpha virt. eigenvalues --    2.10387   2.10762   2.13223   2.14110   2.16844
 Alpha virt. eigenvalues --    2.17571   2.20360   2.20728   2.22222   2.23085
 Alpha virt. eigenvalues --    2.24057   2.25225   2.29711   2.30725   2.31114
 Alpha virt. eigenvalues --    2.33855   2.35674   2.36144   2.38197   2.39841
 Alpha virt. eigenvalues --    2.40719   2.42592   2.43740   2.44489   2.45736
 Alpha virt. eigenvalues --    2.45964   2.52186   2.55936   2.56205   2.56834
 Alpha virt. eigenvalues --    2.59994   2.60867   2.68565   2.69452   2.71081
 Alpha virt. eigenvalues --    2.71732   2.72399   2.73394   2.73690   2.74142
 Alpha virt. eigenvalues --    2.74840   2.75662   2.77558   2.78066   2.80693
 Alpha virt. eigenvalues --    2.83101   2.83603   2.84428   2.84776   2.85565
 Alpha virt. eigenvalues --    2.88996   2.94514   2.95478   2.97097   2.99037
 Alpha virt. eigenvalues --    3.01048   3.01370   3.02709   3.03303   3.05141
 Alpha virt. eigenvalues --    3.06384   3.08888   3.23103   3.23866   3.25660
 Alpha virt. eigenvalues --    3.31635   3.33820   3.34032   3.46476   3.47366
 Alpha virt. eigenvalues --    3.69814   3.78806
          Condensed to atoms (all electrons):
               1          2          3          4          5          6
     1  O    8.148494   0.399983  -0.036159   0.000371  -0.022630   0.001451
     2  S    0.399983  13.931644   0.195697  -0.032691   0.000700  -0.000808
     3  N   -0.036159   0.195697   6.875840   0.270365  -0.079683   0.007382
     4  C    0.000371  -0.032691   0.270365   5.167767   0.252618   0.110873
     5  C   -0.022630   0.000700  -0.079683   0.252618   5.208876   0.267380
     6  C    0.001451  -0.000808   0.007382   0.110873   0.267380   5.047928
     7  C   -0.000032   0.000033  -0.000467  -0.163862   0.090032   0.271782
     8  C   -0.000004  -0.000150   0.006566   0.111181  -0.146785   0.096111
     9  C    0.000194   0.000046  -0.072979   0.260053   0.076954  -0.146062
    10  C   -0.067355   0.234767  -0.108449   0.005381  -0.001856  -0.000265
    11  C    0.005613  -0.034792  -0.000719   0.001137   0.000761   0.000015
    12  C    0.001612   0.001685  -0.000279  -0.000099  -0.000029   0.000006
    13  C   -0.000037   0.001025   0.000035   0.000013  -0.000006  -0.000000
    14  C    0.000000   0.000008  -0.000000  -0.000000   0.000000   0.000000
    15  C    0.000016  -0.000236  -0.000354  -0.000010   0.000003   0.000000
    16  C    0.004161  -0.027431   0.001297  -0.000073  -0.000062   0.000003
    17  O   -0.025007   0.427350  -0.047478   0.000885   0.000107   0.000005
    18  H    0.001565  -0.002776   0.318720  -0.002046   0.004365  -0.000243
    19  H    0.030698  -0.004030  -0.013552  -0.068617   0.451628  -0.054267
    20  H    0.000028  -0.000008  -0.000104   0.015391  -0.067733   0.457585
    21  H    0.000000   0.000000   0.000011  -0.001454   0.014737  -0.067941
    22  H   -0.000000   0.000003  -0.000110   0.015552  -0.001925   0.013878
    23  H    0.000011  -0.000147  -0.009460  -0.082429   0.016847  -0.002159
    24  H    0.014151  -0.012041   0.000750  -0.000312   0.000141   0.000157
    25  H   -0.000008  -0.000151   0.000004  -0.000001  -0.000001  -0.000000
    26  H    0.000000  -0.000000  -0.000000   0.000000   0.000000  -0.000000
    27  H   -0.000000  -0.000000   0.000000  -0.000000  -0.000000   0.000000
    28  H    0.000000  -0.000000  -0.000000   0.000000   0.000000  -0.000000
    29  H    0.000000  -0.000174   0.000001  -0.000001   0.000000   0.000000
    30  H    0.000224  -0.006434   0.001664  -0.000036  -0.000018   0.000000
               7          8          9         10         11         12
     1  O   -0.000032  -0.000004   0.000194  -0.067355   0.005613   0.001612
     2  S    0.000033  -0.000150   0.000046   0.234767  -0.034792   0.001685
     3  N   -0.000467   0.006566  -0.072979  -0.108449  -0.000719  -0.000279
     4  C   -0.163862   0.111181   0.260053   0.005381   0.001137  -0.000099
     5  C    0.090032  -0.146785   0.076954  -0.001856   0.000761  -0.000029
     6  C    0.271782   0.096111  -0.146062  -0.000265   0.000015   0.000006
     7  C    5.106773   0.285324   0.085761   0.000007   0.000001  -0.000000
     8  C    0.285324   5.005320   0.311868  -0.000007  -0.000003   0.000000
     9  C    0.085761   0.311868   5.143234  -0.000720   0.000016  -0.000003
    10  C    0.000007  -0.000007  -0.000720   5.714124   0.276608   0.092752
    11  C    0.000001  -0.000003   0.000016   0.276608   5.050801   0.274969
    12  C   -0.000000   0.000000  -0.000003   0.092752   0.274969   5.093151
    13  C    0.000000   0.000000  -0.000000  -0.180661   0.094618   0.290434
    14  C   -0.000000   0.000000  -0.000000   0.000670   0.009849  -0.076685
    15  C    0.000000  -0.000000   0.000004   0.090189  -0.119885   0.051139
    16  C   -0.000001   0.000002  -0.000093   0.191538   0.039422  -0.120689
    17  O   -0.000000   0.000000  -0.000083  -0.064867   0.001750  -0.000006
    18  H    0.000009   0.000212  -0.014243   0.002142  -0.000545   0.000013
    19  H    0.013759  -0.002200   0.013834  -0.001800   0.001183   0.000192
    20  H   -0.074382   0.014174  -0.001944  -0.000002  -0.000000  -0.000000
    21  H    0.451713  -0.070470   0.014488   0.000000   0.000000   0.000000
    22  H   -0.069262   0.454124  -0.069538  -0.000000  -0.000000   0.000000
    23  H    0.014860  -0.059486   0.451768   0.000016   0.000001  -0.000000
    24  H   -0.000004   0.000001  -0.000015  -0.068118   0.448339  -0.053422
    25  H    0.000000  -0.000000   0.000000   0.016288  -0.066023   0.460292
    26  H   -0.000000  -0.000000  -0.000000   0.000017   0.000806  -0.009190
    27  H    0.000000   0.000000   0.000000   0.000081  -0.000276  -0.003142
    28  H   -0.000000   0.000000  -0.000000   0.000020  -0.000555   0.007036
    29  H   -0.000000   0.000000   0.000000   0.016333  -0.002005   0.014603
    30  H    0.000000   0.000000   0.000025  -0.080532   0.012562  -0.001738
              13         14         15         16         17         18
     1  O   -0.000037   0.000000   0.000016   0.004161  -0.025007   0.001565
     2  S    0.001025   0.000008  -0.000236  -0.027431   0.427350  -0.002776
     3  N    0.000035  -0.000000  -0.000354   0.001297  -0.047478   0.318720
     4  C    0.000013  -0.000000  -0.000010  -0.000073   0.000885  -0.002046
     5  C   -0.000006   0.000000   0.000003  -0.000062   0.000107   0.004365
     6  C   -0.000000   0.000000   0.000000   0.000003   0.000005  -0.000243
     7  C    0.000000  -0.000000   0.000000  -0.000001  -0.000000   0.000009
     8  C    0.000000   0.000000  -0.000000   0.000002   0.000000   0.000212
     9  C   -0.000000  -0.000000   0.000004  -0.000093  -0.000083  -0.014243
    10  C   -0.180661   0.000670   0.090189   0.191538  -0.064867   0.002142
    11  C    0.094618   0.009849  -0.119885   0.039422   0.001750  -0.000545
    12  C    0.290434  -0.076685   0.051139  -0.120689  -0.000006   0.000013
    13  C    5.257711   0.407313   0.289101   0.091772  -0.000029   0.000011
    14  C    0.407313   4.549581  -0.077004   0.009716   0.000000   0.000000
    15  C    0.289101  -0.077004   5.063275   0.309289   0.001097   0.000029
    16  C    0.091772   0.009716   0.309289   5.078557   0.007778   0.002721
    17  O   -0.000029   0.000000   0.001097   0.007778   8.149285   0.011793
    18  H    0.000011   0.000000   0.000029   0.002721   0.011793   0.508194
    19  H    0.000002  -0.000000  -0.000009  -0.000307   0.000280  -0.000382
    20  H    0.000000  -0.000000  -0.000000   0.000000   0.000000   0.000010
    21  H    0.000000   0.000000   0.000000  -0.000000   0.000000  -0.000001
    22  H   -0.000000  -0.000000   0.000000  -0.000000  -0.000000  -0.000025
    23  H    0.000000  -0.000000  -0.000001  -0.000009  -0.000027   0.003156
    24  H    0.013824  -0.000215  -0.001818   0.013620   0.000142  -0.000046
    25  H   -0.076014  -0.014161   0.014726  -0.002085   0.000001  -0.000000
    26  H   -0.018789   0.392467   0.007766  -0.000549   0.000000  -0.000000
    27  H   -0.011657   0.389585  -0.003899  -0.000143  -0.000000  -0.000000
    28  H   -0.018838   0.391768  -0.008277   0.000725   0.000000   0.000000
    29  H   -0.076521  -0.013150   0.460187  -0.066425  -0.000007  -0.000005
    30  H    0.014144  -0.000242  -0.046895   0.446791   0.011040   0.000068
              19         20         21         22         23         24
     1  O    0.030698   0.000028   0.000000  -0.000000   0.000011   0.014151
     2  S   -0.004030  -0.000008   0.000000   0.000003  -0.000147  -0.012041
     3  N   -0.013552  -0.000104   0.000011  -0.000110  -0.009460   0.000750
     4  C   -0.068617   0.015391  -0.001454   0.015552  -0.082429  -0.000312
     5  C    0.451628  -0.067733   0.014737  -0.001925   0.016847   0.000141
     6  C   -0.054267   0.457585  -0.067941   0.013878  -0.002159   0.000157
     7  C    0.013759  -0.074382   0.451713  -0.069262   0.014860  -0.000004
     8  C   -0.002200   0.014174  -0.070470   0.454124  -0.059486   0.000001
     9  C    0.013834  -0.001944   0.014488  -0.069538   0.451768  -0.000015
    10  C   -0.001800  -0.000002   0.000000  -0.000000   0.000016  -0.068118
    11  C    0.001183  -0.000000   0.000000  -0.000000   0.000001   0.448339
    12  C    0.000192  -0.000000   0.000000   0.000000  -0.000000  -0.053422
    13  C    0.000002   0.000000   0.000000  -0.000000   0.000000   0.013824
    14  C   -0.000000  -0.000000   0.000000  -0.000000  -0.000000  -0.000215
    15  C   -0.000009  -0.000000   0.000000   0.000000  -0.000001  -0.001818
    16  C   -0.000307   0.000000  -0.000000  -0.000000  -0.000009   0.013620
    17  O    0.000280   0.000000   0.000000  -0.000000  -0.000027   0.000142
    18  H   -0.000382   0.000010  -0.000001  -0.000025   0.003156  -0.000046
    19  H    0.613589  -0.013031  -0.000199   0.000013  -0.000104   0.000934
    20  H   -0.013031   0.667944  -0.012069  -0.000259   0.000024   0.000002
    21  H   -0.000199  -0.012069   0.673525  -0.012383  -0.000235  -0.000000
    22  H    0.000013  -0.000259  -0.012383   0.668370  -0.013159   0.000000
    23  H   -0.000104   0.000024  -0.000235  -0.013159   0.688112  -0.000001
    24  H    0.000934   0.000002  -0.000000   0.000000  -0.000001   0.623670
    25  H    0.000000  -0.000000  -0.000000   0.000000   0.000000  -0.011533
    26  H    0.000000  -0.000000   0.000000   0.000000  -0.000000  -0.000005
    27  H   -0.000000   0.000000  -0.000000   0.000000   0.000000   0.000005
    28  H   -0.000000   0.000000  -0.000000   0.000000  -0.000000   0.000007
    29  H    0.000000  -0.000000  -0.000000   0.000000  -0.000000   0.000024
    30  H   -0.000018   0.000000  -0.000000   0.000000  -0.000005  -0.000242
              25         26         27         28         29         30
     1  O   -0.000008   0.000000  -0.000000   0.000000   0.000000   0.000224
     2  S   -0.000151  -0.000000  -0.000000  -0.000000  -0.000174  -0.006434
     3  N    0.000004  -0.000000   0.000000  -0.000000   0.000001   0.001664
     4  C   -0.000001   0.000000  -0.000000   0.000000  -0.000001  -0.000036
     5  C   -0.000001   0.000000  -0.000000   0.000000   0.000000  -0.000018
     6  C   -0.000000  -0.000000   0.000000  -0.000000   0.000000   0.000000
     7  C    0.000000  -0.000000   0.000000  -0.000000  -0.000000   0.000000
     8  C   -0.000000  -0.000000   0.000000   0.000000   0.000000   0.000000
     9  C    0.000000  -0.000000   0.000000  -0.000000   0.000000   0.000025
    10  C    0.016288   0.000017   0.000081   0.000020   0.016333  -0.080532
    11  C   -0.066023   0.000806  -0.000276  -0.000555  -0.002005   0.012562
    12  C    0.460292  -0.009190  -0.003142   0.007036   0.014603  -0.001738
    13  C   -0.076014  -0.018789  -0.011657  -0.018838  -0.076521   0.014144
    14  C   -0.014161   0.392467   0.389585   0.391768  -0.013150  -0.000242
    15  C    0.014726   0.007766  -0.003899  -0.008277   0.460187  -0.046895
    16  C   -0.002085  -0.000549  -0.000143   0.000725  -0.066425   0.446791
    17  O    0.000001   0.000000  -0.000000   0.000000  -0.000007   0.011040
    18  H   -0.000000  -0.000000  -0.000000   0.000000  -0.000005   0.000068
    19  H    0.000000   0.000000  -0.000000  -0.000000   0.000000  -0.000018
    20  H   -0.000000  -0.000000   0.000000   0.000000  -0.000000   0.000000
    21  H   -0.000000   0.000000  -0.000000  -0.000000  -0.000000  -0.000000
    22  H    0.000000   0.000000   0.000000   0.000000   0.000000   0.000000
    23  H    0.000000  -0.000000   0.000000  -0.000000  -0.000000  -0.000005
    24  H   -0.011533  -0.000005   0.000005   0.000007   0.000024  -0.000242
    25  H    0.666711   0.004725   0.000659   0.000171  -0.000225   0.000024
    26  H    0.004725   0.620904  -0.017230  -0.022291   0.000144   0.000008
    27  H    0.000659  -0.017230   0.597833  -0.017235   0.000800   0.000005
    28  H    0.000171  -0.022291  -0.017235   0.619922   0.004217  -0.000002
    29  H   -0.000225   0.000144   0.000800   0.004217   0.667423  -0.011864
    30  H    0.000024   0.000008   0.000005  -0.000002  -0.011864   0.641392
 Mulliken charges:
               1
     1  O   -0.457341
     2  S    0.928928
     3  N   -0.308540
     4  C    0.140043
     5  C   -0.064420
     6  C   -0.002812
     7  C   -0.012044
     8  C   -0.005778
     9  C   -0.052568
    10  C   -0.066301
    11  C    0.006353
    12  C   -0.022602
    13  C   -0.077451
    14  C    0.030503
    15  C   -0.028432
    16  C    0.020476
    17  O   -0.474010
    18  H    0.167303
    19  H    0.032406
    20  H    0.014373
    21  H    0.010277
    22  H    0.014719
    23  H   -0.007575
    24  H    0.032004
    25  H    0.006604
    26  H    0.041216
    27  H    0.064616
    28  H    0.043331
    29  H    0.006644
    30  H    0.020079
 Sum of Mulliken charges =  -0.00000
 Mulliken charges with hydrogens summed into heavy atoms:
               1
     1  O   -0.457341
     2  S    0.928928
     3  N   -0.141237
     4  C    0.140043
     5  C   -0.032015
     6  C    0.011561
     7  C   -0.001767
     8  C    0.008941
     9  C   -0.060142
    10  C   -0.066301
    11  C    0.038357
    12  C   -0.015998
    13  C   -0.077451
    14  C    0.179666
    15  C   -0.021788
    16  C    0.040555
    17  O   -0.474010
 Electronic spatial extent (au):  <R**2>=           5035.5573
 Charge=             -0.0000 electrons
 Dipole moment (field-independent basis, Debye):
    X=             -1.5923    Y=             -3.4977    Z=             -1.9504  Tot=              4.3097
 Quadrupole moment (field-independent basis, Debye-Ang):
   XX=            -90.9597   YY=           -115.3593   ZZ=            -99.5569
   XY=              3.1648   XZ=             -1.5255   YZ=             -5.6507
 Traceless Quadrupole moment (field-independent basis, Debye-Ang):
   XX=             10.9989   YY=            -13.4007   ZZ=              2.4017
   XY=              3.1648   XZ=             -1.5255   YZ=             -5.6507
 Octapole moment (field-independent basis, Debye-Ang**2):
  XXX=            -36.7687  YYY=            -13.1501  ZZZ=             -9.8209  XYY=             -0.0976
  XXY=            -35.3270  XXZ=            -11.6979  XZZ=              2.9420  YZZ=             -1.0869
  YYZ=              2.8447  XYZ=             -1.2947
 Hexadecapole moment (field-independent basis, Debye-Ang**3):
 XXXX=          -4623.0531 YYYY=          -1345.8214 ZZZZ=           -669.4899 XXXY=            -13.0155
 XXXZ=             26.0167 YYYX=             42.2016 YYYZ=              5.8773 ZZZX=             -0.8374
 ZZZY=            -30.0339 XXYY=           -957.5593 XXZZ=           -860.6333 YYZZ=           -319.0132
 XXYZ=            -10.9584 YYXZ=            -13.0143 ZZXY=             -6.5708
 N-N= 1.304408364259D+03 E-N=-5.197542699085D+03  KE= 1.097870648057D+03
   1 Symmetry operations used in ECPInt.
 ECPInt:  NShTT=   10296 NPrTT=   38220 LenC2=    9347 LenP2D=   24502.
 LDataN:  DoStor=T MaxTD1= 5 Len=  102
 Calling FoFJK, ICntrl=      2127 FMM=F ISym2X=0 I1Cent= 0 IOpClX= 0 NMat=1 NMatS=1 NMatT=0.
 ***** Axes restored to original set *****
 -------------------------------------------------------------------
 Center     Atomic                   Forces (Hartrees/Bohr)
 Number     Number              X              Y              Z
 -------------------------------------------------------------------
      1        8          -0.009583225   -0.002974666   -0.054711486
      2       16          -0.028556115    0.023576844    0.006561185
      3        7          -0.005749728    0.024262468    0.018624461
      4        6           0.019791930   -0.012017579    0.009159400
      5        6          -0.011861540    0.004075242   -0.003972850
      6        6           0.005016638   -0.004755168   -0.003002636
      7        6           0.006066508   -0.003702777    0.003987190
      8        6           0.002679900   -0.001217633    0.001460569
      9        6          -0.012421819    0.007691830   -0.002587022
     10        6           0.007402615    0.013190804    0.006641695
     11        6           0.004289797    0.001630163    0.011360612
     12        6           0.000096663   -0.000644706   -0.003688620
     13        6          -0.004029265   -0.001627913    0.002898386
     14        6          -0.000464516   -0.005288040   -0.000157637
     15        6           0.004016053    0.001422350    0.000585391
     16        6          -0.002314952    0.003058232   -0.012308438
     17        8           0.018331609   -0.038193924    0.034478263
     18        1           0.006539265    0.002668649   -0.017107042
     19        1          -0.002356907    0.001896783    0.007400055
     20        1           0.000580493    0.001152123    0.010159680
     21        1           0.008370157   -0.005220932    0.003961501
     22        1           0.005950250   -0.005103670   -0.006903760
     23        1          -0.001221892   -0.001143890   -0.012932145
     24        1           0.004804957    0.001901028    0.008939274
     25        1          -0.001668461   -0.004640744    0.010627061
     26        1          -0.000641574   -0.003542348    0.004921044
     27        1          -0.006735281    0.003585919    0.001049187
     28        1          -0.002152237   -0.002757542   -0.005292725
     29        1          -0.005355497   -0.001650266   -0.010371922
     30        1           0.001176175    0.004369365   -0.009778671
 -------------------------------------------------------------------
 Cartesian Forces:  Max     0.054711486 RMS     0.011462164

 GradGradGradGradGradGradGradGradGradGradGradGradGradGradGradGradGradGrad
 Berny optimization.
 FormGI is forming the generalized inverse of G from B-inverse, IUseBI=4.
 Internal  Forces:  Max     0.054668462 RMS     0.010340970
 Search for a local minimum.
 Step number   1 out of a maximum of  162
 All quantities printed in internal units (Hartrees-Bohrs-Radians)
 Mixed Optimization -- RFO/linear search
 Second derivative matrix not updated -- first step.
 ITU=  0
     Eigenvalues ---    0.00429   0.00927   0.01146   0.01610   0.01745
     Eigenvalues ---    0.01760   0.02006   0.02142   0.02247   0.02269
     Eigenvalues ---    0.02277   0.02301   0.02309   0.02340   0.02347
     Eigenvalues ---    0.02348   0.02369   0.02385   0.02387   0.02394
     Eigenvalues ---    0.02395   0.02422   0.02555   0.07313   0.07342
     Eigenvalues ---    0.10129   0.11365   0.12161   0.13579   0.15992
     Eigenvalues ---    0.15999   0.15999   0.15999   0.16000   0.16000
     Eigenvalues ---    0.16000   0.16000   0.16000   0.16000   0.16000
     Eigenvalues ---    0.16000   0.17233   0.21999   0.22000   0.22000
     Eigenvalues ---    0.22909   0.22976   0.23459   0.23996   0.24984
     Eigenvalues ---    0.24993   0.25000   0.25000   0.26472   0.33693
     Eigenvalues ---    0.34561   0.34770   0.34774   0.34779   0.36282
     Eigenvalues ---    0.36285   0.36290   0.36290   0.36297   0.36441
     Eigenvalues ---    0.36445   0.36512   0.36743   0.42649   0.43512
     Eigenvalues ---    0.44024   0.44275   0.46491   0.47121   0.47537
     Eigenvalues ---    0.47828   0.48067   0.49078   0.49247   0.49282
     Eigenvalues ---    0.50046   0.50099   0.76520   0.76645
 RFO step:  Lambda=-4.14146282D-02 EMin= 4.29373583D-03
 Linear search not attempted -- first point.
 Maximum step size (   0.300) exceeded in Quadratic search.
    -- Step size scaled by   0.927
 Iteration  1 RMS(Cart)=  0.18085751 RMS(Int)=  0.00702853
 Iteration  2 RMS(Cart)=  0.02934924 RMS(Int)=  0.00078409
 Iteration  3 RMS(Cart)=  0.00042385 RMS(Int)=  0.00077165
 Iteration  4 RMS(Cart)=  0.00000061 RMS(Int)=  0.00077165
 Variable       Old X    -DE/DX   Delta X   Delta X   Delta X     New X
                                 (Linear)    (Quad)   (Total)
    R1        2.83477  -0.05467   0.00000  -0.06270  -0.06270   2.77207
    R2        3.23393   0.00291   0.00000   0.00698   0.00698   3.24091
    R3        3.39307  -0.00387   0.00000  -0.01171  -0.01171   3.38136
    R4        2.83548  -0.05412   0.00000  -0.06217  -0.06217   2.77332
    R5        2.63582   0.02726   0.00000   0.04989   0.04989   2.68571
    R6        1.89135   0.01742   0.00000   0.03124   0.03124   1.92259
    R7        2.64346   0.00782   0.00000   0.01424   0.01424   2.65770
    R8        2.64439   0.00566   0.00000   0.00987   0.00987   2.65426
    R9        2.59675   0.01969   0.00000   0.03392   0.03393   2.63068
   R10        2.02935   0.00675   0.00000   0.01530   0.01530   2.04465
   R11        2.60853   0.01218   0.00000   0.02182   0.02182   2.63035
   R12        2.03643   0.01016   0.00000   0.02330   0.02330   2.05972
   R13        2.60903   0.01121   0.00000   0.01981   0.01981   2.62883
   R14        2.03620   0.01062   0.00000   0.02435   0.02435   2.06054
   R15        2.59866   0.01559   0.00000   0.02635   0.02634   2.62500
   R16        2.03631   0.01040   0.00000   0.02382   0.02382   2.06013
   R17        2.03289   0.01299   0.00000   0.02962   0.02962   2.06250
   R18        2.59642   0.01710   0.00000   0.02967   0.02967   2.62609
   R19        2.59637   0.01915   0.00000   0.03311   0.03311   2.62948
   R20        2.60794   0.01285   0.00000   0.02242   0.02242   2.63036
   R21        2.03630   0.01027   0.00000   0.02354   0.02354   2.05985
   R22        2.62205   0.01359   0.00000   0.02378   0.02377   2.64582
   R23        2.03391   0.01163   0.00000   0.02656   0.02656   2.06047
   R24        2.81152   0.01280   0.00000   0.03135   0.03135   2.84287
   R25        2.62187   0.01607   0.00000   0.02814   0.02814   2.65002
   R26        2.06044   0.00595   0.00000   0.01418   0.01418   2.07462
   R27        2.06036   0.00767   0.00000   0.01826   0.01826   2.07862
   R28        2.06050   0.00618   0.00000   0.01471   0.01471   2.07521
   R29        2.60821   0.00978   0.00000   0.01699   0.01699   2.62521
   R30        2.03398   0.01170   0.00000   0.02672   0.02672   2.06070
   R31        2.03638   0.01064   0.00000   0.02440   0.02440   2.06078
    A1        2.01758  -0.00467   0.00000  -0.01545  -0.01968   1.99789
    A2        1.85925  -0.00204   0.00000   0.02123   0.02080   1.88005
    A3        2.13106  -0.00137   0.00000  -0.03513  -0.03795   2.09312
    A4        1.66971   0.02854   0.00000   0.11254   0.11159   1.78130
    A5        1.84331  -0.01297   0.00000  -0.06027  -0.06315   1.78016
    A6        1.88336   0.00088   0.00000   0.02004   0.02201   1.90537
    A7        2.14310   0.04648   0.00000   0.16580   0.16411   2.30721
    A8        1.81878  -0.01360   0.00000  -0.02605  -0.02764   1.79114
    A9        2.03470  -0.01804   0.00000  -0.05529  -0.05847   1.97623
   A10        2.15344   0.02159   0.00000   0.06932   0.06919   2.22263
   A11        2.07689  -0.02336   0.00000  -0.07366  -0.07370   2.00319
   A12        2.05263   0.00174   0.00000   0.00386   0.00379   2.05643
   A13        2.11502  -0.00425   0.00000  -0.01478  -0.01477   2.10025
   A14        2.07154   0.00638   0.00000   0.02703   0.02701   2.09855
   A15        2.09617  -0.00211   0.00000  -0.01205  -0.01206   2.08411
   A16        2.09648   0.00471   0.00000   0.01871   0.01873   2.11521
   A17        2.09294  -0.00364   0.00000  -0.01525  -0.01526   2.07768
   A18        2.09374  -0.00107   0.00000  -0.00346  -0.00347   2.09028
   A19        2.09189  -0.00517   0.00000  -0.01645  -0.01645   2.07544
   A20        2.09558   0.00294   0.00000   0.00986   0.00986   2.10545
   A21        2.09570   0.00223   0.00000   0.00660   0.00659   2.10230
   A22        2.09787   0.00061   0.00000   0.00210   0.00209   2.09996
   A23        2.09253   0.00075   0.00000   0.00378   0.00379   2.09632
   A24        2.09278  -0.00135   0.00000  -0.00589  -0.00588   2.08690
   A25        2.11247   0.00237   0.00000   0.00660   0.00658   2.11905
   A26        2.06981  -0.00008   0.00000   0.00181   0.00181   2.07162
   A27        2.10086  -0.00229   0.00000  -0.00836  -0.00836   2.09250
   A28        2.09169  -0.00085   0.00000  -0.00372  -0.00372   2.08797
   A29        2.09200  -0.00275   0.00000  -0.00976  -0.00976   2.08224
   A30        2.09949   0.00360   0.00000   0.01348   0.01348   2.11297
   A31        2.09384  -0.00412   0.00000  -0.01323  -0.01324   2.08060
   A32        2.07882   0.00304   0.00000   0.01115   0.01115   2.08996
   A33        2.11047   0.00108   0.00000   0.00213   0.00213   2.11260
   A34        2.10387   0.00240   0.00000   0.00783   0.00782   2.11169
   A35        2.09605  -0.00248   0.00000  -0.00979  -0.00978   2.08627
   A36        2.08325   0.00007   0.00000   0.00196   0.00196   2.08522
   A37        2.10696   0.00048   0.00000   0.00239   0.00240   2.10935
   A38        2.07142  -0.00051   0.00000  -0.00331  -0.00332   2.06810
   A39        2.10426   0.00004   0.00000   0.00101   0.00102   2.10528
   A40        1.94063   0.00103   0.00000   0.00555   0.00553   1.94616
   A41        1.93298   0.00017   0.00000  -0.00069  -0.00068   1.93230
   A42        1.93885   0.00112   0.00000   0.00577   0.00574   1.94459
   A43        1.88488  -0.00106   0.00000  -0.00604  -0.00603   1.87885
   A44        1.87891  -0.00013   0.00000   0.00216   0.00211   1.88102
   A45        1.88531  -0.00125   0.00000  -0.00735  -0.00734   1.87797
   A46        2.10501   0.00245   0.00000   0.00770   0.00769   2.11270
   A47        2.08216   0.00017   0.00000   0.00256   0.00256   2.08472
   A48        2.09601  -0.00262   0.00000  -0.01026  -0.01025   2.08575
   A49        2.09263  -0.00382   0.00000  -0.01244  -0.01244   2.08019
   A50        2.08098   0.00350   0.00000   0.01354   0.01354   2.09452
   A51        2.10954   0.00032   0.00000  -0.00109  -0.00109   2.10846
    D1        0.04414   0.01420   0.00000   0.13207   0.13178   0.17593
    D2       -2.31923   0.01123   0.00000   0.08094   0.07842  -2.24081
    D3       -1.89977   0.00213   0.00000   0.04998   0.05022  -1.84955
    D4        2.02004  -0.00085   0.00000  -0.00115  -0.00314   2.01690
    D5        2.45656  -0.00565   0.00000   0.00369   0.00709   2.46364
    D6        0.09318  -0.00862   0.00000  -0.04744  -0.04627   0.04691
    D7       -0.21312  -0.00307   0.00000  -0.02302  -0.02435  -0.23747
    D8        2.92924  -0.00300   0.00000  -0.02187  -0.02322   2.90602
    D9        1.86100   0.00255   0.00000   0.01046   0.01093   1.87193
   D10       -1.27983   0.00262   0.00000   0.01160   0.01206  -1.26776
   D11       -2.52954  -0.00050   0.00000  -0.00784  -0.00697  -2.53651
   D12        0.61282  -0.00044   0.00000  -0.00670  -0.00584   0.60698
   D13        0.19779  -0.00126   0.00000   0.01619   0.01714   0.21493
   D14       -2.96744  -0.00285   0.00000  -0.00813  -0.00720  -2.97464
   D15        2.47459   0.00882   0.00000   0.10173   0.10081   2.57540
   D16       -0.69064   0.00722   0.00000   0.07742   0.07647  -0.61417
   D17        3.11380  -0.00127   0.00000  -0.01599  -0.01690   3.09690
   D18       -0.06031  -0.00081   0.00000  -0.00909  -0.00972  -0.07003
   D19       -0.00446   0.00062   0.00000   0.00901   0.00902   0.00456
   D20        3.10462   0.00109   0.00000   0.01591   0.01620   3.12082
   D21       -3.11535   0.00036   0.00000   0.00908   0.00811  -3.10724
   D22        0.01541   0.00070   0.00000   0.01347   0.01266   0.02807
   D23        0.00397  -0.00084   0.00000  -0.01285  -0.01274  -0.00877
   D24        3.13473  -0.00050   0.00000  -0.00847  -0.00819   3.12654
   D25        0.00122  -0.00005   0.00000  -0.00021  -0.00034   0.00088
   D26        3.13502   0.00006   0.00000   0.00053   0.00054   3.13556
   D27       -3.10740  -0.00067   0.00000  -0.00793  -0.00818  -3.11558
   D28        0.02640  -0.00057   0.00000  -0.00719  -0.00730   0.01910
   D29        0.00264  -0.00034   0.00000  -0.00510  -0.00497  -0.00233
   D30        3.14009  -0.00007   0.00000  -0.00118  -0.00109   3.13900
   D31       -3.13115  -0.00042   0.00000  -0.00578  -0.00581  -3.13696
   D32        0.00629  -0.00015   0.00000  -0.00186  -0.00192   0.00437
   D33       -0.00313   0.00010   0.00000   0.00124   0.00131  -0.00182
   D34        3.14006   0.00027   0.00000   0.00417   0.00405  -3.13908
   D35       -3.14057  -0.00017   0.00000  -0.00269  -0.00258   3.14004
   D36        0.00261  -0.00001   0.00000   0.00024   0.00017   0.00278
   D37       -0.00025   0.00051   0.00000   0.00799   0.00777   0.00752
   D38       -3.13082   0.00015   0.00000   0.00346   0.00310  -3.12772
   D39        3.13975   0.00035   0.00000   0.00507   0.00504  -3.13839
   D40        0.00918  -0.00001   0.00000   0.00054   0.00037   0.00956
   D41       -3.13593   0.00069   0.00000   0.00982   0.00982  -3.12611
   D42        0.01675   0.00030   0.00000   0.00417   0.00417   0.02092
   D43        0.00489   0.00062   0.00000   0.00866   0.00866   0.01355
   D44       -3.12561   0.00023   0.00000   0.00301   0.00301  -3.12260
   D45        3.13530  -0.00058   0.00000  -0.00832  -0.00834   3.12697
   D46       -0.01594  -0.00042   0.00000  -0.00588  -0.00589  -0.02183
   D47       -0.00552  -0.00051   0.00000  -0.00716  -0.00718  -0.01270
   D48        3.12643  -0.00035   0.00000  -0.00472  -0.00474   3.12169
   D49        0.00547  -0.00055   0.00000  -0.00795  -0.00792  -0.00245
   D50       -3.13201  -0.00049   0.00000  -0.00701  -0.00698  -3.13899
   D51        3.13577  -0.00014   0.00000  -0.00215  -0.00214   3.13363
   D52       -0.00170  -0.00008   0.00000  -0.00120  -0.00120  -0.00290
   D53       -3.12125   0.00020   0.00000   0.00277   0.00278  -3.11847
   D54       -0.01488   0.00040   0.00000   0.00579   0.00581  -0.00908
   D55        0.01626   0.00014   0.00000   0.00180   0.00181   0.01807
   D56        3.12262   0.00033   0.00000   0.00482   0.00484   3.12746
   D57       -0.48116   0.00071   0.00000   0.00660   0.00662  -0.47453
   D58        1.61466   0.00017   0.00000   0.00221   0.00221   1.61687
   D59       -2.57335  -0.00056   0.00000  -0.00369  -0.00370  -2.57705
   D60        2.69633   0.00052   0.00000   0.00361   0.00362   2.69995
   D61       -1.49104  -0.00002   0.00000  -0.00078  -0.00079  -1.49183
   D62        0.60413  -0.00075   0.00000  -0.00668  -0.00670   0.59743
   D63        0.01426  -0.00029   0.00000  -0.00431  -0.00431   0.00995
   D64       -3.12362  -0.00026   0.00000  -0.00376  -0.00377  -3.12739
   D65        3.12068  -0.00009   0.00000  -0.00127  -0.00126   3.11942
   D66       -0.01720  -0.00005   0.00000  -0.00072  -0.00072  -0.01793
   D67       -0.00421   0.00034   0.00000   0.00497   0.00494   0.00073
   D68       -3.13600   0.00016   0.00000   0.00241   0.00239  -3.13360
   D69        3.13364   0.00031   0.00000   0.00444   0.00443   3.13807
   D70        0.00186   0.00013   0.00000   0.00188   0.00188   0.00374
         Item               Value     Threshold  Converged?
 Maximum Force            0.054668     0.000450     NO 
 RMS     Force            0.010341     0.000300     NO 
 Maximum Displacement     0.535338     0.001800     NO 
 RMS     Displacement     0.203866     0.001200     NO 
 Predicted change in Energy=-2.340267D-02
 GradGradGradGradGradGradGradGradGradGradGradGradGradGradGradGradGradGrad

                          Input orientation:                          
 ---------------------------------------------------------------------
 Center     Atomic      Atomic             Coordinates (Angstroms)
 Number     Number       Type             X           Y           Z
 ---------------------------------------------------------------------
      1          8           0        0.198051    2.039254    1.163573
      2         16           0       -0.095998    1.541402   -0.184580
      3          7           0        1.088620    0.478464   -0.823426
      4          6           0        2.212435   -0.162655   -0.235321
      5          6           0        2.515085   -0.267242    1.134137
      6          6           0        3.635603   -0.978493    1.554246
      7          6           0        4.480413   -1.599347    0.638666
      8          6           0        4.188753   -1.503265   -0.718137
      9          6           0        3.070254   -0.799894   -1.146855
     10          6           0       -1.530556    0.477922   -0.071517
     11          6           0       -1.965745    0.041324    1.173943
     12          6           0       -3.071433   -0.800744    1.250330
     13          6           0       -3.748311   -1.208481    0.094524
     14          6           0       -4.960754   -2.094708    0.182522
     15          6           0       -3.294322   -0.740246   -1.146916
     16          6           0       -2.191391    0.099666   -1.236156
     17          8           0       -0.284011    2.488328   -1.289914
     18          1           0        1.291530    0.891241   -1.730911
     19          1           0        1.891565    0.224479    1.869063
     20          1           0        3.853417   -1.041250    2.620373
     21          1           0        5.357014   -2.152140    0.977704
     22          1           0        4.835890   -1.983996   -1.452024
     23          1           0        2.840820   -0.739896   -2.212210
     24          1           0       -1.442619    0.365205    2.073715
     25          1           0       -3.418909   -1.144527    2.224982
     26          1           0       -4.937312   -2.720454    1.084269
     27          1           0       -5.880782   -1.492884    0.218026
     28          1           0       -5.033730   -2.761869   -0.686683
     29          1           0       -3.818119   -1.037301   -2.056055
     30          1           0       -1.846227    0.467405   -2.203037
 ---------------------------------------------------------------------
                    Distance matrix (angstroms):
                    1          2          3          4          5
     1  O    0.000000
     2  S    1.466914   0.000000
     3  N    2.679056   1.715016   0.000000
     4  C    3.295914   2.869712   1.421218   0.000000
     5  C    3.269470   3.439180   2.534350   1.406397   0.000000
     6  C    4.590880   4.826824   3.776661   2.427663   1.392095
     7  C    5.643896   5.611201   4.237838   2.823414   2.425388
     8  C    5.658266   5.283349   3.680919   2.436428   2.785649
     9  C    4.652783   4.053738   2.380269   1.404572   2.407251
    10  C    2.636529   1.789338   2.724968   3.800941   4.286733
    11  C    2.945139   2.755317   3.675557   4.414161   4.491618
    12  C    4.331586   4.049424   4.821087   5.525720   5.613137
    13  C    5.221534   4.580300   5.204259   6.060778   6.418477
    14  C    6.683215   6.084564   6.650419   7.440568   7.754571
    15  C    5.025998   4.044909   4.560711   5.611505   6.259085
    16  C    3.902580   2.752288   3.327508   4.523734   5.282407
    17  O    2.540404   1.467577   2.478161   3.791058   4.615640
    18  H    3.300253   2.176944   1.017392   2.048304   3.323803
    19  H    2.580525   3.146767   2.821121   2.163623   1.081981
    20  H    4.997346   5.489602   4.670480   3.408774   2.144556
    21  H    6.649604   6.687937   5.327601   3.913804   3.413777
    22  H    6.673638   6.193413   4.527789   3.417626   3.875772
    23  H    5.109189   4.235623   2.546238   2.153175   3.395223
    24  H    2.514476   2.880403   3.848821   4.355422   4.116578
    25  H    4.934110   4.905297   5.678442   6.223279   6.096872
    26  H    7.002361   6.573562   7.084083   7.707304   7.845952
    27  H    7.093819   6.544671   7.317336   8.214329   8.534169
    28  H    7.337966   6.568976   6.928320   7.711455   8.156172
    29  H    5.996733   4.899624   5.281383   6.359847   7.133007
    30  H    4.240736   2.879399   3.242958   4.554296   5.540530
                    6          7          8          9         10
     6  C    0.000000
     7  C    1.391923   0.000000
     8  C    2.396891   1.391119   0.000000
     9  C    2.765405   2.411589   1.389090   0.000000
    10  C    5.608337   6.399309   6.087177   4.894550   0.000000
    11  C    5.706115   6.673176   6.621448   5.608479   1.389668
    12  C    6.716270   7.618548   7.555045   6.592937   2.399285
    13  C    7.530329   8.255953   7.984002   6.942679   2.791050
    14  C    8.776383   9.465150   9.212734   8.242625   4.295255
    15  C    7.441565   8.023270   7.534087   6.364856   2.398184
    16  C    6.550010   7.135445   6.598786   5.338735   1.391461
    17  O    5.955793   6.567210   6.022073   4.699358   2.660845
    18  H    4.447790   4.689019   3.892720   2.522879   3.299787
    19  H    2.141943   3.397404   3.867270   3.396235   3.942207
    20  H    1.089958   2.152152   3.386969   3.855334   6.208166
    21  H    2.161737   1.090393   2.159108   3.401704   7.446927
    22  H    3.389600   2.155297   1.090174   2.147719   6.964085
    23  H    3.856786   3.399179   2.152187   1.091430   5.017427
    24  H    5.278608   6.403213   6.557284   5.665294   2.149991
    25  H    7.088271   8.069854   8.164996   7.321017   3.387052
    26  H    8.760717   9.494682   9.381646   8.531564   4.813672
    27  H    9.623495  10.370276  10.112964   9.080979   4.784598
    28  H    9.130143   9.676100   9.308021   8.350787   4.811122
    29  H    8.282252   8.743171   8.131245   6.952171   3.386330
    30  H    6.801342   7.236927   6.519927   5.185880   2.154794
                   11         12         13         14         15
    11  C    0.000000
    12  C    1.391927   0.000000
    13  C    2.429958   1.400107   0.000000
    14  C    3.809938   2.526675   1.504381   0.000000
    15  C    2.786100   2.408345   1.402328   2.525662   0.000000
    16  C    2.421342   2.787082   2.430217   3.807531   1.389199
    17  O    3.858322   5.004054   5.252088   6.711498   4.416572
    18  H    4.446389   5.548519   5.756826   7.188058   4.902331
    19  H    3.923720   5.105415   6.083630   7.428144   6.076204
    20  H    6.093175   7.063173   8.012125   9.205569   8.085373
    21  H    7.646738   8.540452   9.196599  10.348524   9.019594
    22  H    7.567025   8.439702   8.756811   9.932685   8.230453
    23  H    5.931222   6.851833   6.996944   8.272533   6.226943
    24  H    1.090023   2.165742   3.421973   4.690955   3.875990
    25  H    2.150026   1.090354   2.156722   2.729794   3.398332
    26  H    4.057791   2.682232   2.163188   1.097841   3.405705
    27  H    4.312202   3.071995   2.154895   1.099957   3.019819
    28  H    4.553278   3.383583   2.162313   1.098155   2.706346
    29  H    3.876545   3.397893   2.158510   2.726711   1.090476
    30  H    3.405851   3.877509   3.421301   4.685680   2.161202
                   16         17         18         19         20
    16  C    0.000000
    17  O    3.057236   0.000000
    18  H    3.605845   2.286372   0.000000
    19  H    5.131130   4.453906   3.710044   0.000000
    20  H    7.260455   6.698252   5.406612   2.452631   0.000000
    21  H    8.182312   7.648347   5.755599   4.295600   2.488623
    22  H    7.332867   6.800099   4.572445   4.957422   4.294001
    23  H    5.194294   4.586570   2.300555   4.299755   4.946718
    24  H    3.403883   4.142948   4.714601   3.343421   5.506809
    25  H    3.877408   5.948084   6.479327   5.495633   7.283799
    26  H    4.569194   7.377084   7.730981   7.478107   9.080543
    27  H    4.273461   7.031911   7.805413   8.129246  10.036428
    28  H    4.070527   7.105510   7.378654   7.963028   9.637350
    29  H    2.147364   5.050440   5.471152   7.042665   8.984512
[...]
     1  O    0.000128   0.000101   0.001074  -0.078722   0.018594   0.002964
     2  S    0.000025   0.000735   0.007033   0.307988  -0.016548   0.004867
     3  N    0.000974   0.013251  -0.039570  -0.061451   0.006356   0.000051
     4  C   -0.112019   0.009910   0.333992   0.045012  -0.002552   0.001884
     5  C    0.048677  -0.090390   0.057850   0.003466   0.000871  -0.002490
     6  C    0.413191   0.022548  -0.098006  -0.000068  -0.001268   0.000434
     7  C    4.963724   0.439103   0.035567  -0.000158  -0.000705  -0.000195
     8  C    0.439103   4.933740   0.408378  -0.001761   0.001199   0.002006
     9  C    0.035567   0.408378   5.115207  -0.000175  -0.014241  -0.000563
    10  C   -0.000158  -0.001761  -0.000175   5.294015   0.316264   0.049802
    11  C   -0.000705   0.001199  -0.014241   0.316264   5.142054   0.357390
    12  C   -0.000195   0.002006  -0.000563   0.049802   0.357390   5.100222
    13  C    0.000042   0.000056  -0.000462  -0.090531   0.033033   0.412537
    14  C   -0.000001  -0.000016   0.000008  -0.004307   0.013799  -0.073667
    15  C    0.000020  -0.000051   0.000795   0.015629  -0.050396  -0.014085
    16  C   -0.000059  -0.000680  -0.001914   0.368112  -0.069591  -0.046390
    17  O   -0.000003  -0.000001  -0.000524  -0.096281   0.008736  -0.000586
    18  H    0.000136   0.001086   0.008837  -0.000736   0.000707  -0.000043
    19  H    0.010215  -0.004442   0.011287   0.001828  -0.000442  -0.000158
    20  H   -0.058354   0.010553  -0.003504  -0.000016  -0.000004   0.000008
    21  H    0.443934  -0.056087   0.012198   0.000004  -0.000018  -0.000002
    22  H   -0.057144   0.438887  -0.053930   0.000005   0.000029   0.000022
    23  H    0.010390  -0.031467   0.439952   0.000786  -0.000269  -0.000258
    24  H    0.000105   0.000168  -0.001668  -0.046331   0.436245  -0.049470
    25  H    0.000008   0.000072  -0.000080   0.010713  -0.048554   0.444518
    26  H   -0.000000   0.000001  -0.000002   0.000055   0.001934  -0.006656
    27  H    0.000000   0.000000   0.000000   0.000161  -0.000731  -0.004877
    28  H    0.000000  -0.000001   0.000001   0.000065  -0.000710   0.007944
    29  H   -0.000000   0.000003  -0.000002   0.011284  -0.003857   0.012870
    30  H   -0.000003   0.000006  -0.000132  -0.045628   0.008280  -0.002425
              13         14         15         16         17         18
     1  O   -0.000113  -0.000000  -0.000265   0.006938  -0.043929   0.002676
     2  S   -0.000536   0.000005   0.005743  -0.039180   0.584231  -0.016602
     3  N    0.000226  -0.000004  -0.001190   0.000037  -0.048057   0.365621
     4  C   -0.000717   0.000007   0.000250   0.001025   0.001635  -0.051470
     5  C    0.000219   0.000006   0.000048   0.000327  -0.000743   0.004524
     6  C   -0.000039  -0.000001  -0.000008   0.000171  -0.000000  -0.000720
     7  C    0.000042  -0.000001   0.000020  -0.000059  -0.000003   0.000136
     8  C    0.000056  -0.000016  -0.000051  -0.000680  -0.000001   0.001086
     9  C   -0.000462   0.000008   0.000795  -0.001914  -0.000524   0.008837
    10  C   -0.090531  -0.004307   0.015629   0.368112  -0.096281  -0.000736
    11  C    0.033033   0.013799  -0.050396  -0.069591   0.008736   0.000707
    12  C    0.412537  -0.073667  -0.014085  -0.046390  -0.000586  -0.000043
    13  C    4.972684   0.297549   0.432324   0.016214   0.000166   0.000064
    14  C    0.297549   4.958421  -0.073386   0.013152   0.000001   0.000000
    15  C    0.432324  -0.073386   5.062905   0.404476   0.002760  -0.000166
    16  C    0.016214   0.013152   0.404476   5.106091   0.026777   0.000145
    17  O    0.000166   0.000001   0.002760   0.026777   8.022376   0.004370
    18  H    0.000064   0.000000  -0.000166   0.000145   0.004370   0.429407
    19  H    0.000015   0.000000   0.000007  -0.000172  -0.000133  -0.000050
    20  H   -0.000000  -0.000000  -0.000000   0.000001  -0.000000   0.000013
    21  H   -0.000001   0.000000   0.000000  -0.000000   0.000000  -0.000002
    22  H   -0.000005   0.000000  -0.000003  -0.000001  -0.000000  -0.000040
    23  H   -0.000009  -0.000000   0.000310   0.000380  -0.000175   0.003563
    24  H    0.008916  -0.000031  -0.002425   0.008176   0.000384  -0.000098
    25  H   -0.063184  -0.006640   0.012778  -0.003657   0.000003   0.000000
    26  H   -0.053273   0.427606   0.006948  -0.000639   0.000000  -0.000000
    27  H   -0.017375   0.390170  -0.004584  -0.000662  -0.000000  -0.000000
    28  H   -0.054904   0.427653  -0.006511   0.001946   0.000000   0.000000
    29  H   -0.062062  -0.006798   0.443194  -0.048867  -0.000028  -0.000009
    30  H    0.008424  -0.000057  -0.048533   0.432617   0.013554   0.000364
              19         20         21         22         23         24
     1  O    0.008971  -0.000038   0.000001  -0.000000  -0.000017   0.008186
     2  S   -0.002920  -0.000003   0.000003  -0.000007  -0.000121  -0.004119
     3  N   -0.001404  -0.000119   0.000008  -0.000360   0.002897   0.000355
     4  C   -0.044800   0.013945  -0.003964   0.015211  -0.080500   0.000128
     5  C    0.434638  -0.057682   0.011297  -0.003858   0.012038   0.000015
     6  C   -0.048922   0.446325  -0.056275   0.010719  -0.003893   0.000350
     7  C    0.010215  -0.058354   0.443934  -0.057144   0.010390   0.000105
     8  C   -0.004442   0.010553  -0.056087   0.438887  -0.031467   0.000168
     9  C    0.011287  -0.003504   0.012198  -0.053930   0.439952  -0.001668
    10  C    0.001828  -0.000016   0.000004   0.000005   0.000786  -0.046331
    11  C   -0.000442  -0.000004  -0.000018   0.000029  -0.000269   0.436245
    12  C   -0.000158   0.000008  -0.000002   0.000022  -0.000258  -0.049470
    13  C    0.000015  -0.000000  -0.000001  -0.000005  -0.000009   0.008916
    14  C    0.000000  -0.000000   0.000000   0.000000  -0.000000  -0.000031
    15  C    0.000007  -0.000000   0.000000  -0.000003   0.000310  -0.002425
    16  C   -0.000172   0.000001  -0.000000  -0.000001   0.000380   0.008176
    17  O   -0.000133  -0.000000   0.000000  -0.000000  -0.000175   0.000384
    18  H   -0.000050   0.000013  -0.000002  -0.000040   0.003563  -0.000098
    19  H    0.476175  -0.006494  -0.000017   0.000015   0.000012  -0.000091
    20  H   -0.006494   0.534758  -0.006847  -0.000125   0.000028  -0.000017
    21  H   -0.000017  -0.006847   0.538791  -0.006650  -0.000098  -0.000005
    22  H    0.000015  -0.000125  -0.006650   0.541628  -0.007507   0.000004
    23  H    0.000012   0.000028  -0.000098  -0.007507   0.538597  -0.000053
    24  H   -0.000091  -0.000017  -0.000005   0.000004  -0.000053   0.481728
    25  H   -0.000007   0.000001  -0.000000  -0.000000  -0.000002  -0.005596
    26  H   -0.000000   0.000000  -0.000000   0.000000  -0.000000  -0.000022
    27  H    0.000000   0.000000  -0.000000  -0.000000   0.000000   0.000008
    28  H   -0.000000  -0.000000   0.000000  -0.000000   0.000000   0.000002
    29  H   -0.000000   0.000000   0.000000   0.000000  -0.000003   0.000026
    30  H   -0.000005   0.000000  -0.000000   0.000000  -0.000067  -0.000066
              25         26         27         28         29         30
     1  O   -0.000011   0.000000  -0.000000   0.000000   0.000004   0.000543
     2  S   -0.000100   0.000001  -0.000001   0.000001  -0.000114  -0.004414
     3  N    0.000031  -0.000000   0.000000  -0.000000   0.000017   0.000275
     4  C    0.000037   0.000003  -0.000000  -0.000001  -0.000007  -0.000183
     5  C   -0.000101   0.000000  -0.000000   0.000000  -0.000002  -0.000018
     6  C    0.000057   0.000000   0.000000  -0.000000   0.000000   0.000007
     7  C    0.000008  -0.000000   0.000000   0.000000  -0.000000  -0.000003
     8  C    0.000072   0.000001   0.000000  -0.000001   0.000003   0.000006
     9  C   -0.000080  -0.000002   0.000000   0.000001  -0.000002  -0.000132
    10  C    0.010713   0.000055   0.000161   0.000065   0.011284  -0.045628
    11  C   -0.048554   0.001934  -0.000731  -0.000710  -0.003857   0.008280
    12  C    0.444518  -0.006656  -0.004877   0.007944   0.012870  -0.002425
    13  C   -0.063184  -0.053273  -0.017375  -0.054904  -0.062062   0.008424
    14  C   -0.006640   0.427606   0.390170   0.427653  -0.006798  -0.000057
    15  C    0.012778   0.006948  -0.004584  -0.006511   0.443194  -0.048533
    16  C   -0.003657  -0.000639  -0.000662   0.001946  -0.048867   0.432617
    17  O    0.000003   0.000000  -0.000000   0.000000  -0.000028   0.013554
    18  H    0.000000  -0.000000  -0.000000   0.000000  -0.000009   0.000364
    19  H   -0.000007  -0.000000   0.000000  -0.000000  -0.000000  -0.000005
    20  H    0.000001   0.000000   0.000000  -0.000000   0.000000   0.000000
    21  H   -0.000000  -0.000000  -0.000000   0.000000   0.000000  -0.000000
    22  H   -0.000000   0.000000  -0.000000  -0.000000   0.000000   0.000000
    23  H   -0.000002  -0.000000   0.000000   0.000000  -0.000003  -0.000067
    24  H   -0.005596  -0.000022   0.000008   0.000002   0.000026  -0.000066
    25  H    0.533618   0.000876   0.000256   0.000074  -0.000049   0.000031
    26  H    0.000876   0.540738  -0.024257  -0.023656   0.000057   0.000003
    27  H    0.000256  -0.024257   0.544764  -0.023387   0.000224   0.000007
    28  H    0.000074  -0.023656  -0.023387   0.542005   0.001100  -0.000019
    29  H   -0.000049   0.000057   0.000224   0.001100   0.533416  -0.005563
    30  H    0.000031   0.000003   0.000007  -0.000019  -0.005563   0.477702
 Mulliken charges:
               1
     1  O   -0.461031
     2  S    0.856458
     3  N   -0.316467
     4  C    0.199934
     5  C   -0.270596
     6  C   -0.072232
     7  C   -0.137599
     8  C   -0.096903
     9  C   -0.217404
    10  C    0.000975
    11  C   -0.135606
    12  C   -0.195654
    13  C    0.160740
    14  C   -0.363469
    15  C   -0.186584
    16  C   -0.174770
    17  O   -0.474532
    18  H    0.248421
    19  H    0.166895
    20  H    0.127570
    21  H    0.123730
    22  H    0.123108
    23  H    0.115488
    24  H    0.165193
    25  H    0.124908
    26  H    0.130285
    27  H    0.140285
    28  H    0.128397
    29  H    0.125165
    30  H    0.165296
 Sum of Mulliken charges =  -0.00000
 Mulliken charges with hydrogens summed into heavy atoms:
               1
     1  O   -0.461031
     2  S    0.856458
     3  N   -0.068047
     4  C    0.199934
     5  C   -0.103701
     6  C    0.055338
     7  C   -0.013869
     8  C    0.026205
     9  C   -0.101916
    10  C    0.000975
    11  C    0.029587
    12  C   -0.070745
    13  C    0.160740
    14  C    0.035498
    15  C   -0.061419
    16  C   -0.009474
    17  O   -0.474532
 Electronic spatial extent (au):  <R**2>=           4366.5390
 Charge=              0.0000 electrons
 Dipole moment (field-independent basis, Debye):
    X=             -1.8222    Y=             -5.3822    Z=             -1.7647  Tot=              5.9500
 Quadrupole moment (field-independent basis, Debye-Ang):
   XX=            -96.8183   YY=           -114.0116   ZZ=           -101.0972
   XY=              0.2827   XZ=              2.6669   YZ=             -4.5452
 Traceless Quadrupole moment (field-independent basis, Debye-Ang):
   XX=              7.1574   YY=            -10.0359   ZZ=              2.8785
   XY=              0.2827   XZ=              2.6669   YZ=             -4.5452
 Octapole moment (field-independent basis, Debye-Ang**2):
  XXX=            -41.9510  YYY=            -42.3710  ZZZ=            -11.7706  XYY=              3.5022
  XXY=            -16.3258  XXZ=              7.5855  XZZ=              2.8447  YZZ=             -0.3994
  YYZ=             -0.7604  XYZ=             -0.8841
 Hexadecapole moment (field-independent basis, Debye-Ang**3):
 XXXX=          -3343.3346 YYYY=          -1978.1739 ZZZZ=           -577.7101 XXXY=             53.3249
 XXXZ=            112.7825 YYYX=            -18.4111 YYYZ=             17.6604 ZZZX=             13.6164
 ZZZY=            -24.0134 XXYY=           -821.9317 XXZZ=           -639.4787 YYZZ=           -410.8801
 XXYZ=            -31.6064 YYXZ=            -12.7868 ZZXY=             -2.1740
 N-N= 1.331934966402D+03 E-N=-5.259241859199D+03  KE= 1.102023893596D+03
 Breneman (CHELPG) radii used.
 Read replacement radii for each type of atom:
 Atom Element Radius
    1     8    1.70
    2    16    2.00
    3     7    1.70
    4     6    1.50
    5     6    1.50
    6     6    1.50
    7     6    1.50
    8     6    1.50
    9     6    1.50
   10     6    1.50
   11     6    1.50
   12     6    1.50
   13     6    1.50
   14     6    1.50
   15     6    1.50
   16     6    1.50
   17     8    1.70
   18     1    1.45
   19     1    1.45
   20     1    1.45
   21     1    1.45
   22     1    1.45
   23     1    1.45
   24     1    1.45
   25     1    1.45
   26     1    1.45
   27     1    1.45
   28     1    1.45
   29     1    1.45
   30     1    1.45
 Generate Potential Derived Charges using the Breneman model, NDens= 1.
 Grid spacing= 0.300 Box extension= 2.800
 NStep X,Y,Z=   49     42     34   Total possible points=       69972
 Number of Points to Fit=   18718

 **********************************************************************

            Electrostatic Properties Using The SCF Density.

 **********************************************************************

       Atomic Center    1 is at   0.760001  2.053031  1.477387
       Atomic Center    2 is at   0.211296  1.955926  0.139112
       Atomic Center    3 is at   1.389776  1.267740 -0.841695
       Atomic Center    4 is at   1.950899  0.004417 -0.532398
       Atomic Center    5 is at   2.685247 -0.167044  0.646409
       Atomic Center    6 is at   3.219114 -1.416722  0.949201
       Atomic Center    7 is at   3.052569 -2.492032  0.076107
       Atomic Center    8 is at   2.334340 -2.314434 -1.105102
       Atomic Center    9 is at   1.772269 -1.075467 -1.403441
       Atomic Center   10 is at  -1.098909  0.752251  0.173448
       Atomic Center   11 is at  -1.042927 -0.301522  1.084595
       Atomic Center   12 is at  -2.036172 -1.274920  1.051365
       Atomic Center   13 is at  -3.088699 -1.207209  0.129534
       Atomic Center   14 is at  -4.177565 -2.246545  0.128493
       Atomic Center   15 is at  -3.122106 -0.132112 -0.768076
       Atomic Center   16 is at  -2.134282  0.847619 -0.754237
       Atomic Center   17 is at  -0.244738  3.115726 -0.602870
       Atomic Center   18 is at   1.147241  1.412316 -1.817995
       Atomic Center   19 is at   2.820850  0.683268  1.314715
       Atomic Center   20 is at   3.787121 -1.545923  1.873034
       Atomic Center   21 is at   3.485138 -3.465712  0.314557
       Atomic Center   22 is at   2.196965 -3.149011 -1.795909
       Atomic Center   23 is at   1.185460 -0.942170 -2.315847
       Atomic Center   24 is at  -0.230749 -0.351139  1.811536
       Atomic Center   25 is at  -1.993690 -2.105294  1.760480
       Atomic Center   26 is at  -3.796954 -3.227652  0.445724
       Atomic Center   27 is at  -4.981387 -1.962823  0.826918
       Atomic Center   28 is at  -4.629235 -2.356289 -0.867367
       Atomic Center   29 is at  -3.939401 -0.058318 -1.489916
       Atomic Center   30 is at  -2.165304  1.692024 -1.445380
   18718 points will be used for fitting atomic charges
 Fitting point charges to electrostatic potential
 Charges from ESP fit, RMS=   0.00359 RRMS=   0.21955:
 ESP charges:
               1
     1  O   -0.469722
     2  S    0.935017
     3  N   -0.647562
     4  C    0.411726
     5  C   -0.219368
     6  C   -0.057043
     7  C   -0.144635
     8  C   -0.053613
     9  C   -0.271223
    10  C   -0.065159
    11  C   -0.036417
    12  C   -0.230864
    13  C    0.239489
    14  C   -0.271818
    15  C   -0.212077
    16  C   -0.067798
    17  O   -0.485464
    18  H    0.354971
    19  H    0.160402
    20  H    0.097522
    21  H    0.103773
    22  H    0.103904
    23  H    0.111467
    24  H    0.099609
    25  H    0.129028
    26  H    0.078778
    27  H    0.090204
    28  H    0.077359
    29  H    0.126854
    30  H    0.112661
 Sum of ESP charges =   0.00000
 ESP charges with hydrogens summed into heavy atoms:
               1
     1  O   -0.469722
     2  S    0.935017
     3  N   -0.292591
     4  C    0.411726
     5  C   -0.058966
     6  C    0.040478
     7  C   -0.040862
     8  C    0.050291
     9  C   -0.159756
    10  C   -0.065159
    11  C    0.063193
    12  C   -0.101836
    13  C    0.239489
    14  C   -0.025477
    15  C   -0.085223
    16  C    0.044863
    17  O   -0.485464
 Charge=   0.00000 Dipole=    -1.7023    -5.2540    -1.7357 Tot=     5.7892
 -----------------------------------------------------------------

              Electrostatic Properties (Atomic Units)

 -----------------------------------------------------------------
    Center     Electric         -------- Electric Field --------
               Potential          X             Y             Z
 -----------------------------------------------------------------
    1 Atom    -22.373376
    2 Atom    -59.026799
    3 Atom    -18.345601
    4 Atom    -14.712677
    5 Atom    -14.763165
    6 Atom    -14.758980
    7 Atom    -14.761226
    8 Atom    -14.756711
    9 Atom    -14.755803
   10 Atom    -14.732022
   11 Atom    -14.745692
   12 Atom    -14.752981
   13 Atom    -14.736845
   14 Atom    -14.755044
   15 Atom    -14.752124
   16 Atom    -14.744873
   17 Atom    -22.373239
   18 Atom     -1.001974
   19 Atom     -1.101925
   20 Atom     -1.099706
   21 Atom     -1.099250
   22 Atom     -1.096082
   23 Atom     -1.087786
   24 Atom     -1.088677
   25 Atom     -1.091440
   26 Atom     -1.100253
   27 Atom     -1.097640
   28 Atom     -1.100365
   29 Atom     -1.090247
   30 Atom     -1.086167
 -----------------------------------------------------------------
 Unable to Open any file for archive entry.
 1\1\GINC-NOTCH224\SP\RwB97XD\def2TZVP\C13H13N1O2S1\U1366379\17-Feb-202
 6\0\\#N Guess=Read Geom=Check Integral(Ultrafine) Density Pop=(ChelpG,
 ReadRadii) NMR wB97XD def2TZVP\\prod_5l_24\\0,1\O,0,0.2715315768,2.466
 0115208,1.084041111\S,0,-0.0260605797,2.0387254801,-0.2688632711\N,0,1
 .3589758531,1.3143245548,-0.8863696651\C,0,1.9629471357,0.2145011605,-
 0.2290129717\C,0,2.493170275,0.3709229178,1.0565405792\C,0,3.070371683
 3,-0.720184207,1.7005241841\C,0,3.149892024,-1.9602487323,1.0663002057
 \C,0,2.6353801223,-2.109255951,-0.2204491481\C,0,2.0306418883,-1.03104
 47541,-0.8621046245\C,0,-1.2153915024,0.7184389584,-0.1740842118\C,0,-
 1.2293760307,-0.1177247148,0.9414401964\C,0,-2.1155244411,-1.189688917
 4,0.9693463745\C,0,-2.9937689593,-1.4336958644,-0.094287404\C,0,-3.973
 7338072,-2.5747797089,-0.0355874403\C,0,-2.9617975782,-0.5713923486,-1
 .1979471239\C,0,-2.0781357219,0.5022089939,-1.246749145\O,0,-0.4429658
 77,2.9640008036,-1.3050571305\H,0,1.2783806632,1.2309569781,-1.8960443
 962\H,0,2.4379611607,1.3475680538,1.5373398006\H,0,3.4781080993,-0.593
 4619392,2.7057530084\H,0,3.615472163,-2.8078891788,1.5730226555\H,0,2.
 6914255914,-3.0753031953,-0.726625452\H,0,1.6021250033,-1.1537474743,-
 1.8600599999\H,0,-0.5546183843,0.0762395671,1.7766755724\H,0,-2.126604
 2717,-1.8505527659,1.839580192\H,0,-3.5721894592,-3.4201164232,0.54081
 5562\H,0,-4.9078060207,-2.2553787511,0.4542254032\H,0,-4.2345430739,-2
 .9343748293,-1.0408028125\H,0,-3.6445124172,-0.7414374764,-2.034280483
 4\H,0,-2.0601251151,1.1816782429,-2.100949565\\Version=ES64L-G16RevC.0
 1\State=1-A\HF=-1106.6304769\RMSD=3.939e-09\Dipole=-0.4031122,-2.28370
 04,-0.3195984\Quadrupole=4.3227468,-8.0653443,3.7425974,2.3391329,2.22
 33829,-0.6271549\PG=C01 [X(C13H13N1O2S1)]\\@
 The archive entry for this job was punched.


 MEN HAVE BECOME THE TOOLS OF THEIR TOOLS... THOREAU   
 Job cpu time:       0 days  1 hours 33 minutes  3.4 seconds.
 Elapsed time:       0 days  0 hours 12 minutes  0.9 seconds.
 File lengths (MBytes):  RWF=    226 Int=      0 D2E=      0 Chk=     34 Scr=      2
 Normal termination of Gaussian 16 at Tue Feb 17 17:28:14 2026.
