 Entering Gaussian System, Link 0=g16
 Input=prod_5b_4.com
 Output=prod_5b_4.log
 Initial command:
 /uufs/chpc.utah.edu/sys/installdir/gaussian16/C01/AVX/g16/l1.exe "/scratch/general/vast/u1366379/GAUSSSCRDIR/11028632-notchpeak.peaks/Gau-598447.inp" -scrdir="/scratch/general/vast/u1366379/GAUSSSCRDIR/11028632-notchpeak.peaks/"
 Entering Link 1 = /uufs/chpc.utah.edu/sys/installdir/gaussian16/C01/AVX/g16/l1.exe PID=    598458.
  
 Copyright (c) 1988-2019, Gaussian, Inc.  All Rights Reserved.
  
 This is part of the Gaussian(R) 16 program.  It is based on
 the Gaussian(R) 09 system (copyright 2009, Gaussian, Inc.),
 the Gaussian(R) 03 system (copyright 2003, Gaussian, Inc.),
 the Gaussian(R) 98 system (copyright 1998, Gaussian, Inc.),
 the Gaussian(R) 94 system (copyright 1995, Gaussian, Inc.),
 the Gaussian 92(TM) system (copyright 1992, Gaussian, Inc.),
 the Gaussian 90(TM) system (copyright 1990, Gaussian, Inc.),
 the Gaussian 88(TM) system (copyright 1988, Gaussian, Inc.),
 the Gaussian 86(TM) system (copyright 1986, Carnegie Mellon
 University), and the Gaussian 82(TM) system (copyright 1983,
 Carnegie Mellon University). Gaussian is a federally registered
 trademark of Gaussian, Inc.
  
 This software contains proprietary and confidential information,
 including trade secrets, belonging to Gaussian, Inc.
  
 This software is provided under written license and may be
 used, copied, transmitted, or stored only in accord with that
 written license.
  
 The following legend is applicable only to US Government
 contracts under FAR:
  
                    RESTRICTED RIGHTS LEGEND
  
 Use, reproduction and disclosure by the US Government is
 subject to restrictions as set forth in subparagraphs (a)
 and (c) of the Commercial Computer Software - Restricted
 Rights clause in FAR 52.227-19.
  
 Gaussian, Inc.
 340 Quinnipiac St., Bldg. 40, Wallingford CT 06492
  
  
 ---------------------------------------------------------------
 Warning -- This program may not be used in any manner that
 competes with the business of Gaussian, Inc. or will provide
 assistance to any competitor of Gaussian, Inc.  The licensee
 of this program is prohibited from giving any competitor of
 Gaussian, Inc. access to this program.  By using this program,
 the user acknowledges that Gaussian, Inc. is engaged in the
 business of creating and licensing software in the field of
 computational chemistry and represents and warrants to the
 licensee that it is not a competitor of Gaussian, Inc. and that
 it will not use this program in any manner prohibited above.
 ---------------------------------------------------------------
  

 Cite this work as:
 Gaussian 16, Revision C.01,
 M. J. Frisch, G. W. Trucks, H. B. Schlegel, G. E. Scuseria, 
 M. A. Robb, J. R. Cheeseman, G. Scalmani, V. Barone, 
 G. A. Petersson, H. Nakatsuji, X. Li, M. Caricato, A. V. Marenich, 
 J. Bloino, B. G. Janesko, R. Gomperts, B. Mennucci, H. P. Hratchian, 
 J. V. Ortiz, A. F. Izmaylov, J. L. Sonnenberg, D. Williams-Young, 
 F. Ding, F. Lipparini, F. Egidi, J. Goings, B. Peng, A. Petrone, 
 T. Henderson, D. Ranasinghe, V. G. Zakrzewski, J. Gao, N. Rega, 
 G. Zheng, W. Liang, M. Hada, M. Ehara, K. Toyota, R. Fukuda, 
 J. Hasegawa, M. Ishida, T. Nakajima, Y. Honda, O. Kitao, H. Nakai, 
 T. Vreven, K. Throssell, J. A. Montgomery, Jr., J. E. Peralta, 
 F. Ogliaro, M. J. Bearpark, J. J. Heyd, E. N. Brothers, K. N. Kudin, 
 V. N. Staroverov, T. A. Keith, R. Kobayashi, J. Normand, 
 K. Raghavachari, A. P. Rendell, J. C. Burant, S. S. Iyengar, 
 J. Tomasi, M. Cossi, J. M. Millam, M. Klene, C. Adamo, R. Cammi, 
 J. W. Ochterski, R. L. Martin, K. Morokuma, O. Farkas, 
 J. B. Foresman, and D. J. Fox, Gaussian, Inc., Wallingford CT, 2019.
 
 ******************************************
 Gaussian 16:  ES64L-G16RevC.01  3-Jul-2019
                17-Feb-2026 
 ******************************************
 %NProcShared=8
 Will use up to    8 processors via shared memory.
 %Mem=8GB
 %chk=prod_5b_4.chk
 ------------------------------------------------------
 #N OPT FREQ=NORAMAN Integral(Ultrafine) wB97XD def2SVP
 ------------------------------------------------------
 1/18=20,19=15,26=4,38=1/1,3;
 2/9=110,12=2,17=6,18=5,40=1/2;
 3/5=43,7=101,11=2,25=1,30=1,71=1,74=-58,75=-5/1,2,3;
 4//1;
 5/5=2,38=5/2;
 6/7=2,8=2,9=2,10=2,28=1/1;
 7//1,2,3,16;
 1/18=20,19=15,26=4/3(2);
 2/9=110/2;
 99//99;
 2/9=110/2;
 3/5=43,7=101,11=2,25=1,30=1,71=1,74=-58,75=-5/1,2,3;
 4/5=5,16=3,69=1/1;
 5/5=2,38=5/2;
 7//1,2,3,16;
 1/18=20,19=15,26=4/3(-5);
 2/9=110/2;
 6/7=2,8=2,9=2,10=2,19=2,28=1/1;
 99/9=1/99;
 ---------
 prod_5b_4
 ---------
 Symbolic Z-matrix:
 Charge =  0 Multiplicity = 1
 F                     4.5204    0.76987  -0.91232 
 C                     3.29053   0.35826  -0.50298 
 C                     2.70686   0.9109    0.62423 
 C                     1.46176   0.50042   1.03872 
 C                     2.60716  -0.61586  -1.21064 
 C                     1.36214  -1.03217  -0.80183 
 C                     0.7676   -0.47986   0.33149 
 N                    -0.54684  -0.90084   0.75264 
 C                    -0.64448  -2.04917   1.65111 
 C                    -1.72335  -0.23782   0.30801 
 C                    -1.62329   0.84873  -0.55927 
 C                    -2.74812   1.50342  -1.00631 
 C                    -3.9991    1.08716  -0.59653 
 C                    -4.11842   0.01299   0.26299 
 C                    -2.99463  -0.64383   0.71186 
 H                     3.24817   1.66639   1.16546 
 H                     1.00463   0.93067   1.91244 
 H                     3.07087  -1.03655  -2.0851 
 H                     0.82704  -1.78567  -1.35263 
 H                     0.34959  -2.42966   1.87807 
 H                    -1.12233  -1.75736   2.58416 
 H                    -1.21942  -2.84574   1.18324 
 H                    -0.64802   1.17119  -0.87797 
 H                    -2.65253   2.34146  -1.67709 
 H                    -4.88022   1.59921  -0.94674 
 H                    -5.09481  -0.3121    0.58314 
 H                    -3.09705  -1.4791    1.38113 
 

 GradGradGradGradGradGradGradGradGradGradGradGradGradGradGradGradGradGrad
 Berny optimization.
 Initialization pass.
                           ----------------------------
                           !    Initial Parameters    !
                           ! (Angstroms and Degrees)  !
 --------------------------                            --------------------------
 ! Name  Definition              Value          Derivative Info.                !
 --------------------------------------------------------------------------------
 ! R1    R(1,2)                  1.36           estimate D2E/DX2                !
 ! R2    R(2,3)                  1.3844         estimate D2E/DX2                !
 ! R3    R(2,5)                  1.3844         estimate D2E/DX2                !
 ! R4    R(3,4)                  1.375          estimate D2E/DX2                !
 ! R5    R(3,16)                 1.0755         estimate D2E/DX2                !
 ! R6    R(4,7)                  1.3939         estimate D2E/DX2                !
 ! R7    R(4,17)                 1.0759         estimate D2E/DX2                !
 ! R8    R(5,6)                  1.375          estimate D2E/DX2                !
 ! R9    R(5,18)                 1.0755         estimate D2E/DX2                !
 ! R10   R(6,7)                  1.3939         estimate D2E/DX2                !
 ! R11   R(6,19)                 1.0759         estimate D2E/DX2                !
 ! R12   R(7,8)                  1.443          estimate D2E/DX2                !
 ! R13   R(8,9)                  1.4613         estimate D2E/DX2                !
 ! R14   R(8,10)                 1.4218         estimate D2E/DX2                !
 ! R15   R(9,20)                 1.0883         estimate D2E/DX2                !
 ! R16   R(9,21)                 1.0882         estimate D2E/DX2                !
 ! R17   R(9,22)                 1.0881         estimate D2E/DX2                !
 ! R18   R(10,11)                1.3938         estimate D2E/DX2                !
 ! R19   R(10,15)                1.3943         estimate D2E/DX2                !
 ! R20   R(11,12)                1.3761         estimate D2E/DX2                !
 ! R21   R(11,23)                1.0755         estimate D2E/DX2                !
 ! R22   R(12,13)                1.3806         estimate D2E/DX2                !
 ! R23   R(12,24)                1.0777         estimate D2E/DX2                !
 ! R24   R(13,14)                1.3809         estimate D2E/DX2                !
 ! R25   R(13,25)                1.0776         estimate D2E/DX2                !
 ! R26   R(14,15)                1.3769         estimate D2E/DX2                !
 ! R27   R(14,26)                1.0777         estimate D2E/DX2                !
 ! R28   R(15,27)                1.0752         estimate D2E/DX2                !
 ! A1    A(1,2,3)              120.3649         estimate D2E/DX2                !
 ! A2    A(1,2,5)              120.3636         estimate D2E/DX2                !
 ! A3    A(3,2,5)              119.2714         estimate D2E/DX2                !
 ! A4    A(2,3,4)              120.5334         estimate D2E/DX2                !
 ! A5    A(2,3,16)             118.5512         estimate D2E/DX2                !
 ! A6    A(4,3,16)             120.9154         estimate D2E/DX2                !
 ! A7    A(3,4,7)              120.5277         estimate D2E/DX2                !
 ! A8    A(3,4,17)             120.6763         estimate D2E/DX2                !
 ! A9    A(7,4,17)             118.7958         estimate D2E/DX2                !
 ! A10   A(2,5,6)              120.5321         estimate D2E/DX2                !
 ! A11   A(2,5,18)             118.5555         estimate D2E/DX2                !
 ! A12   A(6,5,18)             120.9124         estimate D2E/DX2                !
 ! A13   A(5,6,7)              120.5303         estimate D2E/DX2                !
 ! A14   A(5,6,19)             120.6774         estimate D2E/DX2                !
 ! A15   A(7,6,19)             118.7915         estimate D2E/DX2                !
 ! A16   A(4,7,6)              118.6051         estimate D2E/DX2                !
 ! A17   A(4,7,8)              120.7108         estimate D2E/DX2                !
 ! A18   A(6,7,8)              120.6785         estimate D2E/DX2                !
 ! A19   A(7,8,9)              118.0052         estimate D2E/DX2                !
 ! A20   A(7,8,10)             121.765          estimate D2E/DX2                !
 ! A21   A(9,8,10)             120.2277         estimate D2E/DX2                !
 ! A22   A(8,9,20)             109.9938         estimate D2E/DX2                !
 ! A23   A(8,9,21)             110.2311         estimate D2E/DX2                !
 ! A24   A(8,9,22)             110.2555         estimate D2E/DX2                !
 ! A25   A(20,9,21)            108.4239         estimate D2E/DX2                !
 ! A26   A(20,9,22)            108.4425         estimate D2E/DX2                !
 ! A27   A(21,9,22)            109.4498         estimate D2E/DX2                !
 ! A28   A(8,10,11)            119.9144         estimate D2E/DX2                !
 ! A29   A(8,10,15)            121.8775         estimate D2E/DX2                !
 ! A30   A(11,10,15)           118.2078         estimate D2E/DX2                !
 ! A31   A(10,11,12)           120.9521         estimate D2E/DX2                !
 ! A32   A(10,11,23)           118.8948         estimate D2E/DX2                !
 ! A33   A(12,11,23)           120.153          estimate D2E/DX2                !
 ! A34   A(11,12,13)           120.0513         estimate D2E/DX2                !
 ! A35   A(11,12,24)           119.9773         estimate D2E/DX2                !
 ! A36   A(13,12,24)           119.9714         estimate D2E/DX2                !
 ! A37   A(12,13,14)           119.8393         estimate D2E/DX2                !
 ! A38   A(12,13,25)           120.0768         estimate D2E/DX2                !
 ! A39   A(14,13,25)           120.0839         estimate D2E/DX2                !
 ! A40   A(13,14,15)           120.2299         estimate D2E/DX2                !
 ! A41   A(13,14,26)           119.8562         estimate D2E/DX2                !
 ! A42   A(15,14,26)           119.9139         estimate D2E/DX2                !
 ! A43   A(10,15,14)           120.7195         estimate D2E/DX2                !
 ! A44   A(10,15,27)           119.5609         estimate D2E/DX2                !
 ! A45   A(14,15,27)           119.7196         estimate D2E/DX2                !
 ! D1    D(1,2,3,4)            179.7894         estimate D2E/DX2                !
 ! D2    D(1,2,3,16)            -0.1733         estimate D2E/DX2                !
 ! D3    D(5,2,3,4)             -0.0664         estimate D2E/DX2                !
 ! D4    D(5,2,3,16)           179.9708         estimate D2E/DX2                !
 ! D5    D(1,2,5,6)           -179.8352         estimate D2E/DX2                !
 ! D6    D(1,2,5,18)             0.0792         estimate D2E/DX2                !
 ! D7    D(3,2,5,6)              0.0206         estimate D2E/DX2                !
 ! D8    D(3,2,5,18)           179.935          estimate D2E/DX2                !
 ! D9    D(2,3,4,7)              0.0694         estimate D2E/DX2                !
 ! D10   D(2,3,4,17)          -179.7939         estimate D2E/DX2                !
 ! D11   D(16,3,4,7)          -179.9687         estimate D2E/DX2                !
 ! D12   D(16,3,4,17)            0.168          estimate D2E/DX2                !
 ! D13   D(3,4,7,6)             -0.0259         estimate D2E/DX2                !
 ! D14   D(3,4,7,8)           -179.1662         estimate D2E/DX2                !
 ! D15   D(17,4,7,6)           179.8399         estimate D2E/DX2                !
 ! D16   D(17,4,7,8)             0.6996         estimate D2E/DX2                !
 ! D17   D(2,5,6,7)              0.0222         estimate D2E/DX2                !
 ! D18   D(2,5,6,19)           179.7103         estimate D2E/DX2                !
 ! D19   D(18,5,6,7)          -179.8902         estimate D2E/DX2                !
 ! D20   D(18,5,6,19)           -0.2021         estimate D2E/DX2                !
 ! D21   D(5,6,7,4)             -0.0197         estimate D2E/DX2                !
 ! D22   D(5,6,7,8)            179.1209         estimate D2E/DX2                !
 ! D23   D(19,6,7,4)          -179.7136         estimate D2E/DX2                !
 ! D24   D(19,6,7,8)            -0.573          estimate D2E/DX2                !
 ! D25   D(4,7,8,9)            -92.579          estimate D2E/DX2                !
 ! D26   D(4,7,8,10)            87.9577         estimate D2E/DX2                !
 ! D27   D(6,7,8,9)             88.2986         estimate D2E/DX2                !
 ! D28   D(6,7,8,10)           -91.1647         estimate D2E/DX2                !
 ! D29   D(7,8,9,20)             0.1293         estimate D2E/DX2                !
 ! D30   D(7,8,9,21)           119.6358         estimate D2E/DX2                !
 ! D31   D(7,8,9,22)          -119.4155         estimate D2E/DX2                !
 ! D32   D(10,8,9,20)          179.6011         estimate D2E/DX2                !
 ! D33   D(10,8,9,21)          -60.8924         estimate D2E/DX2                !
 ! D34   D(10,8,9,22)           60.0563         estimate D2E/DX2                !
 ! D35   D(7,8,10,11)            0.0756         estimate D2E/DX2                !
 ! D36   D(7,8,10,15)          179.9027         estimate D2E/DX2                !
 ! D37   D(9,8,10,11)         -179.3759         estimate D2E/DX2                !
 ! D38   D(9,8,10,15)            0.4512         estimate D2E/DX2                !
 ! D39   D(8,10,11,12)         179.792          estimate D2E/DX2                !
 ! D40   D(8,10,11,23)          -0.1581         estimate D2E/DX2                !
 ! D41   D(15,10,11,12)         -0.0414         estimate D2E/DX2                !
 ! D42   D(15,10,11,23)       -179.9914         estimate D2E/DX2                !
 ! D43   D(8,10,15,14)        -179.7858         estimate D2E/DX2                !
 ! D44   D(8,10,15,27)           0.2138         estimate D2E/DX2                !
 ! D45   D(11,10,15,14)          0.0442         estimate D2E/DX2                !
 ! D46   D(11,10,15,27)       -179.9563         estimate D2E/DX2                !
 ! D47   D(10,11,12,13)          0.0089         estimate D2E/DX2                !
 ! D48   D(10,11,12,24)       -179.967          estimate D2E/DX2                !
 ! D49   D(23,11,12,13)        179.9583         estimate D2E/DX2                !
 ! D50   D(23,11,12,24)         -0.0177         estimate D2E/DX2                !
 ! D51   D(11,12,13,14)          0.0219         estimate D2E/DX2                !
 ! D52   D(11,12,13,25)       -179.9685         estimate D2E/DX2                !
 ! D53   D(24,12,13,14)        179.9978         estimate D2E/DX2                !
 ! D54   D(24,12,13,25)          0.0075         estimate D2E/DX2                !
 ! D55   D(12,13,14,15)         -0.0191         estimate D2E/DX2                !
 ! D56   D(12,13,14,26)        179.9924         estimate D2E/DX2                !
 ! D57   D(25,13,14,15)        179.9713         estimate D2E/DX2                !
 ! D58   D(25,13,14,26)         -0.0173         estimate D2E/DX2                !
 ! D59   D(13,14,15,10)         -0.0145         estimate D2E/DX2                !
 ! D60   D(13,14,15,27)        179.9859         estimate D2E/DX2                !
 ! D61   D(26,14,15,10)        179.974          estimate D2E/DX2                !
 ! D62   D(26,14,15,27)         -0.0256         estimate D2E/DX2                !
 --------------------------------------------------------------------------------
 Trust Radius=3.00D-01 FncErr=1.00D-07 GrdErr=1.00D-06 EigMax=2.50D+02 EigMin=1.00D-04
 Number of steps in this run=    145 maximum allowed number of steps=    162.
 GradGradGradGradGradGradGradGradGradGradGradGradGradGradGradGradGradGrad

                          Input orientation:                          
 ---------------------------------------------------------------------
 Center     Atomic      Atomic             Coordinates (Angstroms)
 Number     Number       Type             X           Y           Z
 ---------------------------------------------------------------------
      1          9           0        4.520400    0.769870   -0.912320
      2          6           0        3.290530    0.358260   -0.502980
      3          6           0        2.706860    0.910900    0.624230
      4          6           0        1.461760    0.500420    1.038720
      5          6           0        2.607160   -0.615860   -1.210640
      6          6           0        1.362140   -1.032170   -0.801830
      7          6           0        0.767600   -0.479860    0.331490
      8          7           0       -0.546840   -0.900840    0.752640
      9          6           0       -0.644480   -2.049170    1.651110
     10          6           0       -1.723350   -0.237820    0.308010
     11          6           0       -1.623290    0.848730   -0.559270
     12          6           0       -2.748120    1.503420   -1.006310
     13          6           0       -3.999100    1.087160   -0.596530
     14          6           0       -4.118420    0.012990    0.262990
     15          6           0       -2.994630   -0.643830    0.711860
     16          1           0        3.248170    1.666390    1.165460
     17          1           0        1.004630    0.930670    1.912440
     18          1           0        3.070870   -1.036550   -2.085100
     19          1           0        0.827040   -1.785670   -1.352630
     20          1           0        0.349590   -2.429660    1.878070
     21          1           0       -1.122330   -1.757360    2.584160
     22          1           0       -1.219420   -2.845740    1.183240
     23          1           0       -0.648020    1.171190   -0.877970
     24          1           0       -2.652530    2.341460   -1.677090
     25          1           0       -4.880220    1.599210   -0.946740
     26          1           0       -5.094810   -0.312100    0.583140
     27          1           0       -3.097050   -1.479100    1.381130
 ---------------------------------------------------------------------
                    Distance matrix (angstroms):
                    1          2          3          4          5
     1  F    0.000000
     2  C    1.359986   0.000000
     3  C    2.381135   1.384444   0.000000
     4  C    3.637917   2.396132   1.374980   0.000000
     5  C    2.381119   1.384445   2.389076   2.760008   0.000000
     6  C    3.637879   2.396100   2.759971   2.397161   1.374960
     7  C    4.146371   2.786389   2.404296   1.393909   2.404297
     8  N    5.589301   4.229341   3.726319   2.465734   3.726043
     9  C    6.418267   5.091181   4.587807   3.363284   4.562582
    10  C    6.441200   5.113903   4.587626   3.350203   4.604620
    11  C    6.154331   4.938558   4.489403   3.491765   4.523938
    12  C    7.306046   6.166849   5.724207   4.786569   5.762996
    13  C    8.531253   7.326578   6.818447   5.730558   6.849823
    14  C    8.751196   7.456438   6.893561   5.654888   6.913788
    15  C    7.817428   6.479449   5.910317   4.612543   5.922570
    16  H    2.596052   2.120540   1.075505   2.137010   3.356398
    17  H    4.512844   3.374499   2.134821   1.075858   3.835816
    18  H    2.596094   2.120578   3.356417   3.835331   1.075494
    19  H    4.512822   3.374481   3.835777   3.368625   2.134817
    20  H    5.951380   4.700109   4.276468   3.244503   4.233984
    21  H    7.103004   5.786157   5.061979   3.763439   5.441748
    22  H    7.099968   5.783477   5.462647   4.290268   5.034455
    23  H    5.184091   4.039016   3.685048   2.928277   3.728326
    24  H    7.382797   6.374290   6.005467   5.262360   6.052079
    25  H    9.437195   8.276354   7.778528   6.735733   7.812620
    26  H    9.790777   8.481920   7.897055   6.622413   7.913928
    27  H    8.267002   6.908469   6.322212   4.981816   6.324592
                    6          7          8          9         10
     6  C    0.000000
     7  C    1.393893   0.000000
     8  N    2.465325   1.443033   0.000000
     9  C    3.328322   2.489599   1.461316   0.000000
    10  C    3.373868   2.502792   1.421783   2.499773   0.000000
    11  C    3.536865   2.876623   2.437385   3.773814   1.393836
    12  C    4.833763   4.252458   3.704052   4.909998   2.410292
    13  C    5.768588   5.102764   4.206008   5.112918   2.784386
    14  C    5.680030   4.911292   3.719009   4.271726   2.408587
    15  C    4.628554   3.784963   2.461583   2.894888   1.394307
    16  H    3.835305   3.384542   4.600347   5.403144   5.392332
    17  H    3.368652   2.131943   2.665825   3.415743   3.373639
    18  H    2.136951   3.384503   4.599893   5.365491   5.417517
    19  H    1.075860   2.131885   2.665076   3.355184   3.414389
    20  H    3.187491   2.523561   2.099398   1.088328   3.400931
    21  H    4.261856   3.205989   2.102209   1.088153   2.801979
    22  H    3.727464   3.204858   2.102479   1.088109   2.796644
    23  H    2.983511   2.488522   2.638643   4.094750   2.132649
    24  H    5.316487   4.867395   4.566183   5.864027   3.384772
    25  H    6.775856   6.152583   5.283590   6.164495   3.861982
    26  H    6.642955   5.870206   4.589050   4.895244   3.383483
    27  H    4.984921   4.127438   2.689415   2.532384   2.139957
                   11         12         13         14         15
    11  C    0.000000
    12  C    1.376120   0.000000
    13  C    2.388035   1.380631   0.000000
    14  C    2.756854   2.389608   1.380889   0.000000
    15  C    2.392505   2.761079   2.391061   1.376881   0.000000
    16  H    5.232054   6.379548   7.480845   7.603607   6.671988
    17  H    3.608605   4.788557   5.599708   5.459713   4.462569
    18  H    5.283709   6.440177   7.530635   7.635506   6.690852
    19  H    3.684237   4.870300   5.667139   5.504814   4.491222
    20  H    4.536598   5.777939   6.115781   5.342110   3.966490
    21  H    4.113857   5.115404   5.146250   4.183124   2.872449
    22  H    4.104700   5.103552   5.134385   4.174134   2.867399
    23  H    1.075501   2.130086   3.363927   3.832348   3.365774
    24  H    2.130047   1.077680   2.134041   3.366677   3.838759
    25  H    3.364661   2.135082   1.077597   2.135388   3.367140
    26  H    3.834590   3.365920   2.133103   1.077737   2.130110
    27  H    3.369854   3.836280   3.363112   2.125974   1.075215
                   16         17         18         19         20
    16  H    0.000000
    17  H    2.476436   0.000000
    18  H    4.231248   4.911174   0.000000
    19  H    4.911147   4.250967   2.476382   0.000000
    20  H    5.068255   3.423752   5.005281   3.328679   0.000000
    21  H    5.730274   3.492946   6.316999   4.393081   1.765531
    22  H    6.349724   4.442905   5.688744   3.426716   1.765702
    23  H    4.427316   3.251998   4.490147   3.338282   4.642963
    24  H    6.584381   5.315061   6.658433   5.407946   6.664493
    25  H    8.398609   6.576725   8.453575   6.647930   7.180686
    26  H    8.594116   6.365115   8.621059   6.402103   5.983510
    27  H    7.085368   4.786759   7.088994   4.792276   3.609687
                   21         22         23         24         25
    21  H    0.000000
    22  H    1.776675   0.000000
    23  H    4.559355   4.550913   0.000000
    24  H    6.107380   6.094451   2.454829   0.000000
    25  H    6.152687   6.139695   4.254345   2.459054   0.000000
    26  H    4.676907   4.668843   4.910085   4.256143   2.457578
    27  H    2.328997   2.330742   4.257384   4.913958   4.251431
                   26         27
    26  H    0.000000
    27  H    2.447391   0.000000
 Stoichiometry    C13H12FN
 Framework group  C1[X(C13H12FN)]
 Deg. of freedom    75
 Full point group                 C1      NOp   1
 Largest Abelian subgroup         C1      NOp   1
 Largest concise Abelian subgroup C1      NOp   1
                         Standard orientation:                         
 ---------------------------------------------------------------------
 Center     Atomic      Atomic             Coordinates (Angstroms)
 Number     Number       Type             X           Y           Z
 ---------------------------------------------------------------------
      1          9           0       -4.649674   -0.969843   -0.012944
      2          6           0       -3.390821   -0.455274   -0.004741
      3          6           0       -2.730745   -0.239529    1.192939
      4          6           0       -1.456336    0.276518    1.205093
      5          6           0       -2.754170   -0.144246   -1.194121
      6          6           0       -1.480214    0.372991   -1.190007
      7          6           0       -0.808853    0.592167    0.011731
      8          7           0        0.535262    1.117187    0.019067
      9          6           0        0.704948    2.568594    0.027418
     10          6           0        1.672282    0.263661    0.006991
     11          6           0        1.502832   -1.119676   -0.014084
     12          6           0        2.588187   -1.965516   -0.030367
     13          6           0        3.868157   -1.448022   -0.025773
     14          6           0        4.056176   -0.080161   -0.004349
     15          6           0        2.972003    0.768428    0.012033
     16          1           0       -3.236341   -0.484803    2.109958
     17          1           0       -0.940007    0.442014    2.134332
     18          1           0       -3.277176   -0.317458   -2.117782
     19          1           0       -0.981516    0.611190   -2.113065
     20          1           0       -0.267658    3.056953    0.029073
     21          1           0        1.247118    2.878942    0.918380
     22          1           0        1.249652    2.889292   -0.858263
     23          1           0        0.505030   -1.521017   -0.018310
     24          1           0        2.438993   -3.032687   -0.047110
     25          1           0        4.718358   -2.109987   -0.039032
     26          1           0        5.055216    0.324092   -0.000634
     27          1           0        3.127883    1.832150    0.028899
 ---------------------------------------------------------------------
 Rotational constants (GHZ):           1.4270848           0.3156747           0.2841783
 Standard basis: def2SVP (5D, 7F)
 There are   285 symmetry adapted cartesian basis functions of A   symmetry.
 There are   270 symmetry adapted basis functions of A   symmetry.
   270 basis functions,   459 primitive gaussians,   285 cartesian basis functions
    53 alpha electrons       53 beta electrons
       nuclear repulsion energy       913.6819399843 Hartrees.
 NAtoms=   27 NActive=   27 NUniq=   27 SFac= 1.00D+00 NAtFMM=   60 NAOKFM=F Big=F
 Integral buffers will be    131072 words long.
 Raffenetti 2 integral format.
 Two-electron integral symmetry is turned on.
 Nuclear repulsion after empirical dispersion term =      913.6644094956 Hartrees.
 One-electron integrals computed using PRISM.
   1 Symmetry operations used in ECPInt.
 ECPInt:  NShTT=    8001 NPrTT=   29151 LenC2=    7546 LenP2D=   20172.
 LDataN:  DoStor=T MaxTD1= 4 Len=   56
 NBasis=   270 RedAO= T EigKep=  2.22D-04  NBF=   270
 NBsUse=   270 1.00D-06 EigRej= -1.00D+00 NBFU=   270
 ExpMin= 1.22D-01 ExpMax= 2.89D+03 ExpMxC= 4.35D+02 IAcc=3 IRadAn=         5 AccDes= 0.00D+00
 Harris functional with IExCor= 4639 and IRadAn=       5 diagonalized for initial guess.
 HarFok:  IExCor= 4639 AccDes= 0.00D+00 IRadAn=         5 IDoV= 1 UseB2=F ITyADJ=14
 ICtDFT=  3500011 ScaDFX=  1.000000  1.000000  1.000000  1.000000
 FoFCou: FMM=F IPFlag=           0 FMFlag=      100000 FMFlg1=           0
         NFxFlg=           0 DoJE=T BraDBF=F KetDBF=T FulRan=T
         wScrn=  0.000000 ICntrl=       500 IOpCl=  0 I1Cent=   200000004 NGrid=           0
         NMat0=    1 NMatS0=      1 NMatT0=    0 NMatD0=    1 NMtDS0=    0 NMtDT0=    0
 Petite list used in FoFCou.
 Requested convergence on RMS density matrix=1.00D-08 within 128 cycles.
 Requested convergence on MAX density matrix=1.00D-06.
 Requested convergence on             energy=1.00D-06.
 No special actions if energy rises.
 Integral accuracy reduced to 1.0D-05 until final iterations.
 Initial convergence to 1.0D-05 achieved.  Increase integral accuracy.
 SCF Done:  E(RwB97XD) =  -656.501234426     A.U. after   15 cycles
            NFock= 15  Conv=0.51D-08     -V/T= 2.0099

 **********************************************************************

            Population analysis using the SCF Density.

 **********************************************************************

 Orbital symmetries:
       Occupied  (A) (A) (A) (A) (A) (A) (A) (A) (A) (A) (A) (A)
                 (A) (A) (A) (A) (A) (A) (A) (A) (A) (A) (A) (A)
                 (A) (A) (A) (A) (A) (A) (A) (A) (A) (A) (A) (A)
                 (A) (A) (A) (A) (A) (A) (A) (A) (A) (A) (A) (A)
                 (A) (A) (A) (A) (A)
       Virtual   (A) (A) (A) (A) (A) (A) (A) (A) (A) (A) (A) (A)
                 (A) (A) (A) (A) (A) (A) (A) (A) (A) (A) (A) (A)
                 (A) (A) (A) (A) (A) (A) (A) (A) (A) (A) (A) (A)
                 (A) (A) (A) (A) (A) (A) (A) (A) (A) (A) (A) (A)
                 (A) (A) (A) (A) (A) (A) (A) (A) (A) (A) (A) (A)
                 (A) (A) (A) (A) (A) (A) (A) (A) (A) (A) (A) (A)
                 (A) (A) (A) (A) (A) (A) (A) (A) (A) (A) (A) (A)
                 (A) (A) (A) (A) (A) (A) (A) (A) (A) (A) (A) (A)
                 (A) (A) (A) (A) (A) (A) (A) (A) (A) (A) (A) (A)
                 (A) (A) (A) (A) (A) (A) (A) (A) (A) (A) (A) (A)
                 (A) (A) (A) (A) (A) (A) (A) (A) (A) (A) (A) (A)
                 (A) (A) (A) (A) (A) (A) (A) (A) (A) (A) (A) (A)
                 (A) (A) (A) (A) (A) (A) (A) (A) (A) (A) (A) (A)
                 (A) (A) (A) (A) (A) (A) (A) (A) (A) (A) (A) (A)
                 (A) (A) (A) (A) (A) (A) (A) (A) (A) (A) (A) (A)
                 (A) (A) (A) (A) (A) (A) (A) (A) (A) (A) (A) (A)
                 (A) (A) (A) (A) (A) (A) (A) (A) (A) (A) (A) (A)
                 (A) (A) (A) (A) (A) (A) (A) (A) (A) (A) (A) (A)
                 (A)
 The electronic state is 1-A.
 Alpha  occ. eigenvalues --  -24.82875 -14.46202 -10.39277 -10.34615 -10.33847
 Alpha  occ. eigenvalues --  -10.33102 -10.31603 -10.31594 -10.31450 -10.31446
 Alpha  occ. eigenvalues --  -10.29229 -10.29120 -10.28733 -10.28434 -10.28067
 Alpha  occ. eigenvalues --   -1.30737  -1.04152  -0.97022  -0.94053  -0.86469
 Alpha  occ. eigenvalues --   -0.85547  -0.83946  -0.82932  -0.77189  -0.72826
 Alpha  occ. eigenvalues --   -0.71634  -0.69057  -0.66954  -0.64505  -0.62623
 Alpha  occ. eigenvalues --   -0.59923  -0.58853  -0.56119  -0.55527  -0.54517
 Alpha  occ. eigenvalues --   -0.53325  -0.53070  -0.52733  -0.52705  -0.50581
 Alpha  occ. eigenvalues --   -0.49632  -0.49544  -0.47293  -0.46226  -0.46142
 Alpha  occ. eigenvalues --   -0.43863  -0.43487  -0.41678  -0.37358  -0.35451
 Alpha  occ. eigenvalues --   -0.33317  -0.32836  -0.26954
 Alpha virt. eigenvalues --    0.04445   0.05183   0.07211   0.08638   0.13355
 Alpha virt. eigenvalues --    0.14860   0.16437   0.17712   0.18550   0.19631
 Alpha virt. eigenvalues --    0.20514   0.21357   0.21894   0.22445   0.22919
 Alpha virt. eigenvalues --    0.23440   0.23571   0.25026   0.25499   0.25507
 Alpha virt. eigenvalues --    0.31011   0.32565   0.35915   0.36870   0.37702
 Alpha virt. eigenvalues --    0.38004   0.39104   0.40559   0.41429   0.43170
 Alpha virt. eigenvalues --    0.43926   0.45114   0.46323   0.46946   0.49474
 Alpha virt. eigenvalues --    0.50006   0.50221   0.51588   0.53292   0.54382
 Alpha virt. eigenvalues --    0.55902   0.56003   0.56188   0.57849   0.57964
 Alpha virt. eigenvalues --    0.58365   0.59642   0.60139   0.60963   0.62040
 Alpha virt. eigenvalues --    0.63341   0.63982   0.65720   0.66015   0.67933
 Alpha virt. eigenvalues --    0.69802   0.71116   0.71525   0.72354   0.72723
 Alpha virt. eigenvalues --    0.73696   0.74807   0.75160   0.75374   0.75451
 Alpha virt. eigenvalues --    0.76855   0.77937   0.78438   0.78959   0.79695
 Alpha virt. eigenvalues --    0.80085   0.81221   0.81762   0.81864   0.83169
 Alpha virt. eigenvalues --    0.84991   0.86024   0.87205   0.87264   0.89146
 Alpha virt. eigenvalues --    0.91355   0.91431   0.93129   0.93714   0.96882
 Alpha virt. eigenvalues --    0.97926   1.01472   1.04987   1.07937   1.09699
 Alpha virt. eigenvalues --    1.10643   1.16501   1.18037   1.19069   1.25041
 Alpha virt. eigenvalues --    1.25742   1.26126   1.30168   1.30500   1.31265
 Alpha virt. eigenvalues --    1.32180   1.33415   1.33767   1.34346   1.36325
 Alpha virt. eigenvalues --    1.37805   1.38181   1.39329   1.40208   1.41155
 Alpha virt. eigenvalues --    1.42298   1.48064   1.55007   1.55964   1.58021
 Alpha virt. eigenvalues --    1.60812   1.61583   1.65552   1.66613   1.71563
 Alpha virt. eigenvalues --    1.74593   1.76647   1.77351   1.78253   1.78431
 Alpha virt. eigenvalues --    1.81082   1.82390   1.82921   1.83514   1.83810
 Alpha virt. eigenvalues --    1.84446   1.85900   1.86099   1.87036   1.87313
 Alpha virt. eigenvalues --    1.88388   1.89498   1.90216   1.90650   1.91457
 Alpha virt. eigenvalues --    1.92428   1.95207   1.95618   1.97953   1.98971
 Alpha virt. eigenvalues --    1.99451   2.00569   2.05185   2.06309   2.06405
 Alpha virt. eigenvalues --    2.08762   2.09972   2.11503   2.14246   2.15767
 Alpha virt. eigenvalues --    2.15849   2.17568   2.20083   2.22686   2.24821
 Alpha virt. eigenvalues --    2.25379   2.26334   2.27715   2.27990   2.30253
 Alpha virt. eigenvalues --    2.31444   2.32536   2.33902   2.35397   2.37629
 Alpha virt. eigenvalues --    2.40397   2.41537   2.43335   2.43396   2.44936
 Alpha virt. eigenvalues --    2.45750   2.46561   2.50069   2.55753   2.56930
 Alpha virt. eigenvalues --    2.58110   2.64961   2.69704   2.69816   2.70838
 Alpha virt. eigenvalues --    2.70986   2.72139   2.74737   2.75535   2.79134
 Alpha virt. eigenvalues --    2.82410   2.85256   2.85484   2.86022   2.88891
 Alpha virt. eigenvalues --    2.90869   2.95183   2.99870   3.00734   3.02403
 Alpha virt. eigenvalues --    3.03698   3.05532   3.06079   3.07998   3.16521
 Alpha virt. eigenvalues --    3.18855   3.18983   3.21884   3.28832   3.30017
 Alpha virt. eigenvalues --    3.30303   3.38899   3.45453   3.63301   3.64293
 Alpha virt. eigenvalues --    3.80457   3.97630
          Condensed to atoms (all electrons):
               1          2          3          4          5          6
     1  F    8.977097   0.363172  -0.064684   0.004835  -0.064687   0.004834
     2  C    0.363172   4.908956   0.215774   0.130653   0.216018   0.130473
     3  C   -0.064684   0.215774   5.360107   0.157049   0.044041  -0.131204
     4  C    0.004835   0.130653   0.157049   5.141412  -0.131232   0.048558
     5  C   -0.064687   0.216018   0.044041  -0.131232   5.358904   0.157515
     6  C    0.004834   0.130473  -0.131204   0.048558   0.157515   5.141111
     7  C   -0.000278  -0.183342   0.125031   0.282366   0.125061   0.282801
     8  N    0.000000  -0.000395   0.010986  -0.074567   0.010981  -0.075396
     9  C   -0.000000   0.000012  -0.000064  -0.004987  -0.000092  -0.005644
    10  C    0.000000   0.000082  -0.000410  -0.001794  -0.000403  -0.001293
    11  C   -0.000000   0.000022  -0.000519  -0.002931  -0.000418  -0.002513
    12  C    0.000000   0.000000   0.000017   0.000022   0.000013  -0.000003
    13  C   -0.000000   0.000000   0.000000  -0.000033   0.000000  -0.000030
    14  C   -0.000000   0.000000   0.000000   0.000022   0.000000   0.000022
    15  C    0.000000   0.000001  -0.000008  -0.000392  -0.000006  -0.000376
    16  H    0.001116  -0.066379   0.437089  -0.058827   0.017797  -0.003208
    17  H   -0.000044   0.014641  -0.072403   0.457420  -0.003715   0.017549
    18  H    0.001116  -0.066269   0.017769  -0.003196   0.436856  -0.058644
    19  H   -0.000045   0.014654  -0.003725   0.017577  -0.072203   0.457163
    20  H   -0.000000   0.000006  -0.000366  -0.000274  -0.000394  -0.000184
    21  H    0.000000  -0.000000  -0.000167   0.001842   0.000067  -0.000420
    22  H    0.000000   0.000000   0.000065  -0.000449  -0.000175   0.001985
    23  H   -0.000001   0.000283  -0.000525  -0.002106  -0.000449  -0.002092
    24  H    0.000000   0.000000  -0.000002   0.000016  -0.000001   0.000014
    25  H    0.000000  -0.000000   0.000000   0.000000   0.000000   0.000000
    26  H    0.000000  -0.000000   0.000000  -0.000000   0.000000  -0.000000
    27  H    0.000000  -0.000000   0.000001  -0.000029   0.000001  -0.000026
               7          8          9         10         11         12
     1  F   -0.000278   0.000000  -0.000000   0.000000  -0.000000   0.000000
     2  C   -0.183342  -0.000395   0.000012   0.000082   0.000022   0.000000
     3  C    0.125031   0.010986  -0.000064  -0.000410  -0.000519   0.000017
     4  C    0.282366  -0.074567  -0.004987  -0.001794  -0.002931   0.000022
     5  C    0.125061   0.010981  -0.000092  -0.000403  -0.000418   0.000013
     6  C    0.282801  -0.075396  -0.005644  -0.001293  -0.002513  -0.000003
     7  C    5.222988   0.272458  -0.040736  -0.037559  -0.000193  -0.002704
     8  N    0.272458   6.843628   0.337191   0.348381  -0.089922   0.009218
     9  C   -0.040736   0.337191   4.431424  -0.051934   0.006313  -0.000286
    10  C   -0.037559   0.348381  -0.051934   5.033624   0.276557   0.122428
    11  C   -0.000193  -0.089922   0.006313   0.276557   5.178213   0.274013
    12  C   -0.002704   0.009218  -0.000286   0.122428   0.274013   5.059809
    13  C    0.000178  -0.000743   0.000080  -0.166194   0.090765   0.269355
    14  C   -0.000310   0.008020   0.000407   0.122709  -0.156781   0.105519
    15  C    0.009035  -0.094043   0.003605   0.253642   0.077387  -0.158270
    16  H    0.014973  -0.000148   0.000003  -0.000002   0.000003  -0.000000
    17  H   -0.063091  -0.006595   0.000003   0.001378  -0.000679  -0.000062
    18  H    0.014941  -0.000150   0.000002  -0.000000   0.000002  -0.000000
    19  H   -0.063254  -0.006617   0.000145   0.001131  -0.000615  -0.000047
    20  H    0.004754  -0.022932   0.396763   0.005975  -0.000174   0.000004
    21  H    0.002427  -0.031058   0.400267  -0.009285  -0.000168   0.000031
    22  H    0.002079  -0.031288   0.400237  -0.009135  -0.000138   0.000029
    23  H    0.014654  -0.019724  -0.000110  -0.067696   0.458006  -0.076904
    24  H   -0.000028  -0.000098   0.000007   0.015374  -0.069877   0.454821
    25  H   -0.000000   0.000012  -0.000000  -0.001407   0.014906  -0.070788
    26  H    0.000007  -0.000088  -0.000038   0.015470  -0.001927   0.014326
    27  H   -0.000183  -0.016387   0.012388  -0.078859   0.016709  -0.002508
              13         14         15         16         17         18
     1  F   -0.000000  -0.000000   0.000000   0.001116  -0.000044   0.001116
     2  C    0.000000   0.000000   0.000001  -0.066379   0.014641  -0.066269
     3  C    0.000000   0.000000  -0.000008   0.437089  -0.072403   0.017769
     4  C   -0.000033   0.000022  -0.000392  -0.058827   0.457420  -0.003196
     5  C    0.000000   0.000000  -0.000006   0.017797  -0.003715   0.436856
     6  C   -0.000030   0.000022  -0.000376  -0.003208   0.017549  -0.058644
     7  C    0.000178  -0.000310   0.009035   0.014973  -0.063091   0.014941
     8  N   -0.000743   0.008020  -0.094043  -0.000148  -0.006595  -0.000150
     9  C    0.000080   0.000407   0.003605   0.000003   0.000003   0.000002
    10  C   -0.166194   0.122709   0.253642  -0.000002   0.001378  -0.000000
    11  C    0.090765  -0.156781   0.077387   0.000003  -0.000679   0.000002
    12  C    0.269355   0.105519  -0.158270  -0.000000  -0.000062  -0.000000
    13  C    5.119691   0.279640   0.089793   0.000000   0.000005   0.000000
    14  C    0.279640   5.045354   0.269467  -0.000000   0.000002  -0.000000
    15  C    0.089793   0.269467   5.225216  -0.000000  -0.000206  -0.000000
    16  H    0.000000  -0.000000  -0.000000   0.644192  -0.012882  -0.000349
    17  H    0.000005   0.000002  -0.000206  -0.012882   0.659159   0.000031
    18  H    0.000000  -0.000000  -0.000000  -0.000349   0.000031   0.644246
    19  H    0.000004   0.000002  -0.000194   0.000031  -0.000236  -0.012893
    20  H    0.000004  -0.000051   0.000435   0.000004   0.000206   0.000004
    21  H   -0.000072   0.000877   0.004936   0.000002  -0.000464  -0.000001
    22  H   -0.000076   0.000884   0.005079  -0.000001   0.000082   0.000003
    23  H    0.015616  -0.002613   0.016872   0.000008  -0.000113   0.000006
    24  H   -0.072378   0.014381  -0.001965  -0.000000   0.000000  -0.000000
    25  H    0.452555  -0.070783   0.014950   0.000000   0.000000   0.000000
    26  H   -0.070772   0.453616  -0.070211  -0.000000  -0.000000  -0.000000
    27  H    0.015758  -0.071488   0.459287  -0.000000  -0.000011  -0.000000
              19         20         21         22         23         24
     1  F   -0.000045  -0.000000   0.000000   0.000000  -0.000001   0.000000
     2  C    0.014654   0.000006  -0.000000   0.000000   0.000283   0.000000
     3  C   -0.003725  -0.000366  -0.000167   0.000065  -0.000525  -0.000002
     4  C    0.017577  -0.000274   0.001842  -0.000449  -0.002106   0.000016
     5  C   -0.072203  -0.000394   0.000067  -0.000175  -0.000449  -0.000001
     6  C    0.457163  -0.000184  -0.000420   0.001985  -0.002092   0.000014
     7  C   -0.063254   0.004754   0.002427   0.002079   0.014654  -0.000028
     8  N   -0.006617  -0.022932  -0.031058  -0.031288  -0.019724  -0.000098
     9  C    0.000145   0.396763   0.400267   0.400237  -0.000110   0.000007
    10  C    0.001131   0.005975  -0.009285  -0.009135  -0.067696   0.015374
    11  C   -0.000615  -0.000174  -0.000168  -0.000138   0.458006  -0.069877
    12  C   -0.000047   0.000004   0.000031   0.000029  -0.076904   0.454821
    13  C    0.000004   0.000004  -0.000072  -0.000076   0.015616  -0.072378
    14  C    0.000002  -0.000051   0.000877   0.000884  -0.002613   0.014381
    15  C   -0.000194   0.000435   0.004936   0.005079   0.016872  -0.001965
    16  H    0.000031   0.000004   0.000002  -0.000001   0.000008  -0.000000
    17  H   -0.000236   0.000206  -0.000464   0.000082  -0.000113   0.000000
    18  H   -0.012893   0.000004  -0.000001   0.000003   0.000006  -0.000000
    19  H    0.660066   0.000253   0.000092  -0.000531  -0.000109   0.000000
    20  H    0.000253   0.602976  -0.019135  -0.019440  -0.000007  -0.000000
    21  H    0.000092  -0.019135   0.652454  -0.040975  -0.000010  -0.000000
    22  H   -0.000531  -0.019440  -0.040975   0.653351  -0.000006  -0.000000
    23  H   -0.000109  -0.000007  -0.000010  -0.000006   0.677924  -0.013419
    24  H    0.000000  -0.000000  -0.000000  -0.000000  -0.013419   0.678082
    25  H    0.000000  -0.000000  -0.000000  -0.000000  -0.000260  -0.012524
    26  H   -0.000000  -0.000001   0.000011   0.000012   0.000020  -0.000270
    27  H   -0.000012  -0.000015  -0.001439  -0.001440  -0.000184   0.000024
              25         26         27
     1  F    0.000000   0.000000   0.000000
     2  C   -0.000000  -0.000000  -0.000000
     3  C    0.000000   0.000000   0.000001
     4  C    0.000000  -0.000000  -0.000029
     5  C    0.000000   0.000000   0.000001
     6  C    0.000000  -0.000000  -0.000026
     7  C   -0.000000   0.000007  -0.000183
     8  N    0.000012  -0.000088  -0.016387
     9  C   -0.000000  -0.000038   0.012388
    10  C   -0.001407   0.015470  -0.078859
    11  C    0.014906  -0.001927   0.016709
    12  C   -0.070788   0.014326  -0.002508
    13  C    0.452555  -0.070772   0.015758
    14  C   -0.070783   0.453616  -0.071488
    15  C    0.014950  -0.070211   0.459287
    16  H    0.000000  -0.000000  -0.000000
    17  H    0.000000  -0.000000  -0.000011
    18  H    0.000000  -0.000000  -0.000000
    19  H    0.000000  -0.000000  -0.000012
    20  H   -0.000000  -0.000001  -0.000015
    21  H   -0.000000   0.000011  -0.001439
    22  H   -0.000000   0.000012  -0.001440
    23  H   -0.000260   0.000020  -0.000184
    24  H   -0.012524  -0.000270   0.000024
    25  H    0.683915  -0.012575  -0.000265
    26  H   -0.012575   0.678783  -0.013833
    27  H   -0.000265  -0.013833   0.698393
 Mulliken charges:
               1
     1  F   -0.222432
     2  C    0.321638
     3  C   -0.093853
     4  C    0.039045
     5  C   -0.093479
     6  C    0.039007
     7  C    0.017925
     8  N   -0.370725
     9  C    0.115042
    10  C    0.229219
    11  C   -0.066039
    12  C    0.001969
    13  C   -0.023146
    14  C    0.001105
    15  C   -0.104031
    16  H    0.026578
    17  H    0.010029
    18  H    0.026526
    19  H    0.009364
    20  H    0.051588
    21  H    0.040187
    22  H    0.039848
    23  H    0.002940
    24  H    0.007843
    25  H    0.002265
    26  H    0.007470
    27  H   -0.015882
 Sum of Mulliken charges =  -0.00000
 Mulliken charges with hydrogens summed into heavy atoms:
               1
     1  F   -0.222432
     2  C    0.321638
     3  C   -0.067276
     4  C    0.049074
     5  C   -0.066952
     6  C    0.048371
     7  C    0.017925
     8  N   -0.370725
     9  C    0.246665
    10  C    0.229219
    11  C   -0.063099
    12  C    0.009813
    13  C   -0.020882
    14  C    0.008575
    15  C   -0.119913
 Electronic spatial extent (au):  <R**2>=           3763.7658
 Charge=             -0.0000 electrons
 Dipole moment (field-independent basis, Debye):
    X=              0.1258    Y=              1.5209    Z=              0.0133  Tot=              1.5261
 Quadrupole moment (field-independent basis, Debye-Ang):
   XX=            -92.8022   YY=            -82.0808   ZZ=            -84.1905
   XY=              0.0175   XZ=              0.0541   YZ=             -0.1856
 Traceless Quadrupole moment (field-independent basis, Debye-Ang):
   XX=             -6.4444   YY=              4.2770   ZZ=              2.1673
   XY=              0.0175   XZ=              0.0541   YZ=             -0.1856
 Octapole moment (field-independent basis, Debye-Ang**2):
  XXX=             25.5488  YYY=              0.5951  ZZZ=              0.1284  XYY=              3.8072
  XXY=              8.4335  XXZ=             -0.3197  XZZ=            -34.9373  YZZ=              1.6416
  YYZ=             -0.1259  XYZ=              1.0358
 Hexadecapole moment (field-independent basis, Debye-Ang**3):
 XXXX=          -3829.8306 YYYY=           -770.9004 ZZZZ=           -315.8233 XXXY=             -8.5097
 XXXZ=              0.7015 YYYX=             25.7971 YYYZ=              1.3797 ZZZX=              1.6458
 ZZZY=             -2.0159 XXYY=           -749.6151 XXZZ=           -676.3179 YYZZ=           -203.9811
 XXYZ=             -0.7866 YYXZ=             -0.7483 ZZXY=             27.8126
 N-N= 9.136644094956D+02 E-N=-3.353800065478D+03  KE= 6.500667686278D+02
   1 Symmetry operations used in ECPInt.
 ECPInt:  NShTT=    8001 NPrTT=   29151 LenC2=    7546 LenP2D=   20172.
 LDataN:  DoStor=T MaxTD1= 5 Len=  102
 Calling FoFJK, ICntrl=      2127 FMM=F ISym2X=0 I1Cent= 0 IOpClX= 0 NMat=1 NMatS=1 NMatT=0.
 ***** Axes restored to original set *****
 -------------------------------------------------------------------
 Center     Atomic                   Forces (Hartrees/Bohr)
 Number     Number              X              Y              Z
 -------------------------------------------------------------------
      1        9          -0.021707852   -0.007325005    0.007274317
      2        6           0.010004289    0.003554324   -0.003565540
      3        6           0.015521637    0.006549330   -0.002705395
      4        6          -0.009406631   -0.008758963   -0.002898715
      5        6           0.015469362    0.002858746   -0.006800572
      6        6          -0.008927149    0.002005404    0.009616451
      7        6          -0.019429153   -0.002229679    0.003058155
      8        7          -0.002590473    0.004072254   -0.002898556
      9        6           0.000984322    0.016865064   -0.013272483
     10        6           0.030876775   -0.013020005    0.008055424
     11        6           0.006005275    0.001124880   -0.001310991
     12        6          -0.000360750   -0.000734127    0.000680031
     13        6          -0.009160105    0.003424903   -0.002127371
     14        6          -0.001029451    0.003285126   -0.002506819
     15        6           0.006401116   -0.007484005    0.005577458
     16        1           0.005704907    0.008607785    0.006467773
     17        1          -0.004422053    0.005335996    0.008980187
     18        1           0.004832445   -0.005097146   -0.009974449
     19        1          -0.005229425   -0.007613591   -0.006597568
     20        1           0.005923036   -0.000568384    0.000076445
     21        1          -0.004914138   -0.000417330    0.009896893
     22        1          -0.005767583   -0.009376689   -0.001587980
     23        1           0.009721647    0.004311292   -0.004110811
     24        1           0.001824062    0.008056763   -0.006507362
     25        1          -0.008677566    0.004930063   -0.003344400
     26        1          -0.009049443   -0.003846177    0.003637767
     27        1          -0.002597103   -0.008510831    0.006888111
 -------------------------------------------------------------------
 Cartesian Forces:  Max     0.030876775 RMS     0.008181150

 GradGradGradGradGradGradGradGradGradGradGradGradGradGradGradGradGradGrad
 Berny optimization.
 FormGI is forming the generalized inverse of G from B-inverse, IUseBI=4.
 Internal  Forces:  Max     0.025311305 RMS     0.006335519
 Search for a local minimum.
 Step number   1 out of a maximum of  145
 All quantities printed in internal units (Hartrees-Bohrs-Radians)
 Mixed Optimization -- RFO/linear search
 Second derivative matrix not updated -- first step.
 ITU=  0
     Eigenvalues ---    0.00881   0.01106   0.01123   0.01404   0.01851
     Eigenvalues ---    0.01937   0.02193   0.02194   0.02270   0.02278
     Eigenvalues ---    0.02292   0.02295   0.02297   0.02336   0.02337
     Eigenvalues ---    0.02339   0.02343   0.02359   0.02366   0.02371
     Eigenvalues ---    0.02371   0.02378   0.07425   0.07508   0.16000
     Eigenvalues ---    0.16000   0.16000   0.16000   0.16000   0.16000
     Eigenvalues ---    0.16000   0.16000   0.16000   0.16000   0.16000
     Eigenvalues ---    0.16000   0.22000   0.22000   0.22000   0.22965
     Eigenvalues ---    0.23467   0.23999   0.24997   0.24999   0.24999
     Eigenvalues ---    0.25000   0.25000   0.35007   0.35027   0.35032
     Eigenvalues ---    0.36269   0.36276   0.36286   0.36499   0.36499
     Eigenvalues ---    0.36543   0.36543   0.36544   0.36579   0.36800
     Eigenvalues ---    0.39172   0.42193   0.43164   0.43195   0.43821
     Eigenvalues ---    0.43846   0.47347   0.47425   0.47601   0.48026
     Eigenvalues ---    0.48844   0.49151   0.49751   0.50033   0.52950
 RFO step:  Lambda=-1.34032642D-02 EMin= 8.80690664D-03
 Linear search not attempted -- first point.
 Iteration  1 RMS(Cart)=  0.02709398 RMS(Int)=  0.00022125
 Iteration  2 RMS(Cart)=  0.00030420 RMS(Int)=  0.00008010
 Iteration  3 RMS(Cart)=  0.00000008 RMS(Int)=  0.00008010
 Variable       Old X    -DE/DX   Delta X   Delta X   Delta X     New X
                                 (Linear)    (Quad)   (Total)
    R1        2.57000  -0.02404   0.00000  -0.04428  -0.04428   2.52573
    R2        2.61622   0.00492   0.00000   0.01014   0.01019   2.62641
    R3        2.61622   0.00486   0.00000   0.01002   0.01007   2.62629
    R4        2.59834   0.01624   0.00000   0.03161   0.03161   2.62994
    R5        2.03241   0.01217   0.00000   0.03213   0.03213   2.06454
    R6        2.63411   0.00554   0.00000   0.01131   0.01125   2.64536
    R7        2.03308   0.01131   0.00000   0.02988   0.02988   2.06296
    R8        2.59830   0.01628   0.00000   0.03169   0.03169   2.62999
    R9        2.03239   0.01219   0.00000   0.03217   0.03217   2.06456
   R10        2.63408   0.00554   0.00000   0.01131   0.01125   2.64533
   R11        2.03308   0.01131   0.00000   0.02989   0.02989   2.06297
   R12        2.72694  -0.01747   0.00000  -0.04312  -0.04312   2.68381
   R13        2.76149  -0.00786   0.00000  -0.02061  -0.02061   2.74087
   R14        2.68678  -0.02531   0.00000  -0.05814  -0.05814   2.62864
   R15        2.05664   0.00562   0.00000   0.01548   0.01548   2.07212
   R16        2.05631   0.01053   0.00000   0.02896   0.02896   2.08527
   R17        2.05623   0.01059   0.00000   0.02913   0.02913   2.08536
   R18        2.63397   0.01410   0.00000   0.02926   0.02926   2.66322
   R19        2.63486   0.01146   0.00000   0.02374   0.02373   2.65859
   R20        2.60049   0.01507   0.00000   0.02951   0.02951   2.63000
   R21        2.03240   0.01133   0.00000   0.02990   0.02990   2.06230
   R22        2.60902   0.01522   0.00000   0.03041   0.03041   2.63943
   R23        2.03652   0.01048   0.00000   0.02785   0.02785   2.06437
   R24        2.60950   0.01266   0.00000   0.02530   0.02530   2.63480
   R25        2.03636   0.01052   0.00000   0.02797   0.02797   2.06433
   R26        2.60193   0.01705   0.00000   0.03337   0.03337   2.63530
   R27        2.03663   0.01044   0.00000   0.02776   0.02776   2.06439
   R28        2.03186   0.01115   0.00000   0.02940   0.02940   2.06126
    A1        2.10076  -0.00532   0.00000  -0.02116  -0.02122   2.07954
    A2        2.10074  -0.00532   0.00000  -0.02115  -0.02121   2.07953
    A3        2.08168   0.01064   0.00000   0.04231   0.04244   2.12411
    A4        2.10370  -0.00695   0.00000  -0.02813  -0.02806   2.07564
    A5        2.06911   0.00403   0.00000   0.01727   0.01723   2.08634
    A6        2.11037   0.00292   0.00000   0.01086   0.01083   2.12120
    A7        2.10361  -0.00006   0.00000   0.00043   0.00038   2.10399
    A8        2.10620  -0.00074   0.00000  -0.00464  -0.00461   2.10159
    A9        2.07338   0.00080   0.00000   0.00420   0.00423   2.07761
   A10        2.10368  -0.00698   0.00000  -0.02823  -0.02817   2.07552
   A11        2.06918   0.00404   0.00000   0.01727   0.01724   2.08642
   A12        2.11032   0.00294   0.00000   0.01096   0.01093   2.12125
   A13        2.10365  -0.00004   0.00000   0.00053   0.00047   2.10412
   A14        2.10622  -0.00080   0.00000  -0.00496  -0.00494   2.10128
   A15        2.07330   0.00084   0.00000   0.00445   0.00447   2.07778
   A16        2.07005   0.00338   0.00000   0.01309   0.01293   2.08298
   A17        2.10680  -0.00171   0.00000  -0.00652  -0.00651   2.10029
   A18        2.10624  -0.00166   0.00000  -0.00633  -0.00633   2.09991
   A19        2.05958   0.00307   0.00000   0.01167   0.01167   2.07125
   A20        2.12520  -0.00411   0.00000  -0.01561  -0.01561   2.10959
   A21        2.09837   0.00104   0.00000   0.00394   0.00394   2.10231
   A22        1.91975  -0.00453   0.00000  -0.02850  -0.02831   1.89145
   A23        1.92390   0.00456   0.00000   0.02743   0.02723   1.95113
   A24        1.92432   0.00460   0.00000   0.02776   0.02757   1.95189
   A25        1.89235  -0.00054   0.00000  -0.00556  -0.00537   1.88698
   A26        1.89268  -0.00051   0.00000  -0.00517  -0.00498   1.88770
   A27        1.91026  -0.00375   0.00000  -0.01711  -0.01763   1.89263
   A28        2.09290   0.00386   0.00000   0.01489   0.01490   2.10780
   A29        2.12716  -0.00548   0.00000  -0.02057  -0.02056   2.10660
   A30        2.06312   0.00161   0.00000   0.00568   0.00567   2.06878
   A31        2.11101  -0.00203   0.00000  -0.00871  -0.00872   2.10229
   A32        2.07511   0.00234   0.00000   0.01201   0.01201   2.08712
   A33        2.09707  -0.00031   0.00000  -0.00330  -0.00330   2.09377
   A34        2.09529   0.00308   0.00000   0.01376   0.01377   2.10906
   A35        2.09400  -0.00245   0.00000  -0.01216  -0.01216   2.08184
   A36        2.09390  -0.00062   0.00000  -0.00160  -0.00160   2.09229
   A37        2.09159  -0.00402   0.00000  -0.01648  -0.01646   2.07513
   A38        2.09574   0.00214   0.00000   0.00898   0.00897   2.10471
   A39        2.09586   0.00188   0.00000   0.00750   0.00749   2.10335
   A40        2.09841   0.00294   0.00000   0.01288   0.01289   2.11130
   A41        2.09189  -0.00048   0.00000  -0.00074  -0.00075   2.09114
   A42        2.09289  -0.00246   0.00000  -0.01214  -0.01214   2.08075
   A43        2.10695  -0.00159   0.00000  -0.00713  -0.00714   2.09981
   A44        2.08673   0.00236   0.00000   0.01261   0.01261   2.09934
   A45        2.08950  -0.00077   0.00000  -0.00547  -0.00547   2.08403
    D1        3.13792   0.00006   0.00000   0.00178   0.00177   3.13969
    D2       -0.00303   0.00006   0.00000   0.00172   0.00171  -0.00131
    D3       -0.00116   0.00003   0.00000   0.00062   0.00060  -0.00056
    D4        3.14108   0.00003   0.00000   0.00057   0.00054  -3.14156
    D5       -3.13872   0.00002   0.00000   0.00043   0.00042  -3.13830
    D6        0.00138  -0.00006   0.00000  -0.00152  -0.00152  -0.00013
    D7        0.00036   0.00006   0.00000   0.00158   0.00159   0.00195
    D8        3.14046  -0.00002   0.00000  -0.00037  -0.00034   3.14011
    D9        0.00121   0.00001   0.00000  -0.00002  -0.00004   0.00117
   D10       -3.13800   0.00004   0.00000   0.00084   0.00083  -3.13716
   D11       -3.14105   0.00001   0.00000   0.00004   0.00002  -3.14103
   D12        0.00293   0.00004   0.00000   0.00090   0.00089   0.00383
   D13       -0.00045  -0.00013   0.00000  -0.00275  -0.00271  -0.00316
   D14       -3.12704  -0.00068   0.00000  -0.02054  -0.02055   3.13559
   D15        3.13880  -0.00016   0.00000  -0.00361  -0.00359   3.13521
   D16        0.01221  -0.00071   0.00000  -0.02139  -0.02143  -0.00922
   D17        0.00039  -0.00017   0.00000  -0.00439  -0.00435  -0.00397
   D18        3.13654  -0.00009   0.00000  -0.00213  -0.00210   3.13443
   D19       -3.13968  -0.00009   0.00000  -0.00240  -0.00238   3.14113
   D20       -0.00353  -0.00001   0.00000  -0.00014  -0.00013  -0.00366
   D21       -0.00034   0.00021   0.00000   0.00493   0.00493   0.00458
   D22        3.12625   0.00076   0.00000   0.02271   0.02276  -3.13417
   D23       -3.13659   0.00013   0.00000   0.00274   0.00274  -3.13386
   D24       -0.01000   0.00068   0.00000   0.02052   0.02057   0.01057
   D25       -1.61581   0.00029   0.00000   0.00865   0.00857  -1.60723
   D26        1.53515   0.00028   0.00000   0.00854   0.00847   1.54362
   D27        1.54110  -0.00031   0.00000  -0.00968  -0.00961   1.53150
   D28       -1.59112  -0.00032   0.00000  -0.00979  -0.00971  -1.60084
   D29        0.00226   0.00003   0.00000   0.00028   0.00027   0.00253
   D30        2.08804  -0.00064   0.00000  -0.00734  -0.00762   2.08042
   D31       -2.08419   0.00064   0.00000   0.00722   0.00750  -2.07670
   D32        3.13463   0.00001   0.00000   0.00027   0.00027   3.13490
   D33       -1.06277  -0.00066   0.00000  -0.00735  -0.00762  -1.07039
   D34        1.04818   0.00062   0.00000   0.00722   0.00749   1.05567
   D35        0.00132   0.00005   0.00000   0.00163   0.00163   0.00295
   D36        3.13990   0.00010   0.00000   0.00319   0.00319  -3.14010
   D37       -3.13070   0.00003   0.00000   0.00148   0.00149  -3.12921
   D38        0.00787   0.00008   0.00000   0.00304   0.00304   0.01092
   D39        3.13796   0.00007   0.00000   0.00223   0.00224   3.14021
   D40       -0.00276   0.00006   0.00000   0.00195   0.00197  -0.00079
   D41       -0.00072   0.00003   0.00000   0.00077   0.00077   0.00005
   D42       -3.14144   0.00002   0.00000   0.00050   0.00049  -3.14095
   D43       -3.13785  -0.00008   0.00000  -0.00222  -0.00221  -3.14006
   D44        0.00373  -0.00006   0.00000  -0.00168  -0.00167   0.00206
   D45        0.00077  -0.00003   0.00000  -0.00067  -0.00067   0.00010
   D46       -3.14083  -0.00000   0.00000  -0.00013  -0.00013  -3.14096
   D47        0.00016  -0.00002   0.00000  -0.00037  -0.00036  -0.00021
   D48       -3.14102  -0.00001   0.00000  -0.00031  -0.00031  -3.14133
   D49        3.14086  -0.00001   0.00000  -0.00008  -0.00008   3.14079
   D50       -0.00031  -0.00000   0.00000  -0.00003  -0.00002  -0.00033
   D51        0.00038  -0.00001   0.00000  -0.00016  -0.00016   0.00022
   D52       -3.14104  -0.00000   0.00000  -0.00012  -0.00012  -3.14116
   D53        3.14155  -0.00001   0.00000  -0.00022  -0.00022   3.14134
   D54        0.00013  -0.00001   0.00000  -0.00018  -0.00018  -0.00005
   D55       -0.00033   0.00001   0.00000   0.00026   0.00026  -0.00007
   D56        3.14146   0.00000   0.00000   0.00002   0.00002   3.14148
   D57        3.14109   0.00001   0.00000   0.00022   0.00022   3.14131
   D58       -0.00030  -0.00000   0.00000  -0.00003  -0.00003  -0.00033
   D59       -0.00025   0.00001   0.00000   0.00017   0.00017  -0.00009
   D60        3.14135  -0.00002   0.00000  -0.00038  -0.00037   3.14098
   D61        3.14114   0.00002   0.00000   0.00041   0.00041   3.14155
   D62       -0.00045  -0.00001   0.00000  -0.00013  -0.00012  -0.00057
         Item               Value     Threshold  Converged?
 Maximum Force            0.025311     0.000450     NO 
 RMS     Force            0.006336     0.000300     NO 
 Maximum Displacement     0.068727     0.001800     NO 
 RMS     Displacement     0.027157     0.001200     NO 
 Predicted change in Energy=-6.958361D-03
 GradGradGradGradGradGradGradGradGradGradGradGradGradGradGradGradGradGrad

                          Input orientation:                          
 ---------------------------------------------------------------------
 Center     Atomic      Atomic             Coordinates (Angstroms)
 Number     Number       Type             X           Y           Z
 ---------------------------------------------------------------------
      1          9           0        4.487775    0.736401   -0.879647
      2          6           0        3.272186    0.342833   -0.487432
      3          6           0        2.705179    0.920870    0.642181
      4          6           0        1.438266    0.509236    1.045092
      5          6           0        2.607190   -0.632715   -1.220616
      6          6           0        1.340003   -1.036104   -0.810216
      7          6           0        0.746583   -0.472116    0.325276
      8          7           0       -0.543032   -0.894044    0.744653
      9          6           0       -0.646766   -2.033372    1.636196
     10          6           0       -1.687320   -0.237909    0.303047
     11          6           0       -1.594993    0.860538   -0.575055
     12          6           0       -2.744280    1.511172   -1.014077
     13          6           0       -4.008954    1.091092   -0.595776
     14          6           0       -4.104866    0.004767    0.272966
     15          6           0       -2.962965   -0.657809    0.722189
     16          1           0        3.259526    1.684949    1.192144
     17          1           0        0.968261    0.949989    1.926326
     18          1           0        3.085533   -1.062382   -2.103886
     19          1           0        0.793226   -1.795755   -1.372110
     20          1           0        0.364974   -2.397920    1.850295
     21          1           0       -1.123550   -1.762196    2.593695
     22          1           0       -1.220855   -2.859092    1.181915
     23          1           0       -0.614031    1.200332   -0.911560
     24          1           0       -2.650475    2.360410   -1.694793
     25          1           0       -4.908398    1.604518   -0.943236
     26          1           0       -5.086510   -0.336343    0.609735
     27          1           0       -3.067565   -1.504409    1.401975
 ---------------------------------------------------------------------
                    Distance matrix (angstroms):
                    1          2          3          4          5
     1  F    0.000000
     2  C    1.336557   0.000000
     3  C    2.351093   1.389838   0.000000
     4  C    3.613271   2.395743   1.391707   0.000000
     5  C    2.351030   1.389775   2.427600   2.793540   0.000000
     6  C    3.613179   2.395619   2.793369   2.416588   1.391730
     7  C    4.112040   2.775484   2.424240   1.399862   2.424342
     8  N    5.532243   4.195686   3.722268   2.446425   3.722159
     9  C    6.353316   5.051172   4.577242   3.340901   4.550983
    10  C    6.362377   5.055573   4.555417   3.298203   4.573864
    11  C    6.091655   4.895420   4.469539   3.456725   4.506096
    12  C    7.274680   6.151442   5.726103   4.768411   5.768634
    13  C    8.508866   7.320289   6.829429   5.718672   6.865515
    14  C    8.700419   7.423840   6.881299   5.619340   6.905713
    15  C    7.747466   6.429742   5.884427   4.564767   5.899301
    16  H    2.588563   2.149980   1.092510   2.172767   3.408596
    17  H    4.506227   3.391598   2.160268   1.091669   3.885137
    18  H    2.588564   2.149975   3.408643   3.885812   1.092517
    19  H    4.505999   3.391380   3.884969   3.401753   2.160110
    20  H    5.854403   4.629101   4.236799   3.201853   4.192132
    21  H    7.056490   5.766020   5.066202   3.757721   5.453725
    22  H    7.054507   5.764240   5.476602   4.293632   5.038138
    23  H    5.122955   4.002233   3.675508   2.918565   3.719118
    24  H    7.365900   6.372304   6.018036   5.258481   6.068499
    25  H    9.436405   8.289847   7.806887   6.740418   7.846414
    26  H    9.748639   8.457710   7.892531   6.593727   7.913977
    27  H    8.204278   6.868377   6.307442   4.948195   6.311947
                    6          7          8          9         10
     6  C    0.000000
     7  C    1.399847   0.000000
     8  N    2.446143   1.420213   0.000000
     9  C    3.305560   2.469302   1.450407   0.000000
    10  C    3.322823   2.445246   1.391015   2.466521   0.000000
    11  C    3.502393   2.840694   2.434504   3.763441   1.409317
    12  C    4.817836   4.232425   3.704550   4.897684   2.431310
    13  C    5.760407   5.089900   4.213090   5.103752   2.822076
    14  C    5.648300   4.875111   3.703649   4.239206   2.429882
    15  C    4.583329   3.735340   2.431541   2.844708   1.406864
    16  H    3.885634   3.423343   4.616372   5.411304   5.381372
    17  H    3.401679   2.152879   2.660980   3.404840   3.331403
    18  H    2.172821   3.423439   4.616167   5.372253   5.408624
    19  H    1.091677   2.152978   2.660705   3.343643   3.374336
    20  H    3.143810   2.485966   2.075708   1.096518   3.357310
    21  H    4.264143   3.210518   2.123593   1.103478   2.808621
    22  H    3.721541   3.209719   2.124161   1.103523   2.803675
    23  H    2.971559   2.485581   2.671047   4.116913   2.166970
    24  H    5.314386   4.862498   4.580795   5.866487   3.416182
    25  H    6.784769   6.156325   5.305488   6.168406   3.914474
    26  H    6.618609   5.841602   4.579566   4.862597   3.414416
    27  H    4.953761   4.095440   2.679158   2.488961   2.171805
                   11         12         13         14         15
    11  C    0.000000
    12  C    1.391735   0.000000
    13  C    2.425034   1.396726   0.000000
    14  C    2.784052   2.403524   1.394278   0.000000
    15  C    2.420654   2.786920   2.426887   1.394542   0.000000
    16  H    5.231539   6.398695   7.508670   7.609348   6.665491
    17  H    3.582622   4.769052   5.581539   5.418825   4.414692
    18  H    5.286046   6.465106   7.565950   7.647881   6.688402
    19  H    3.659888   4.855708   5.656634   5.471696   4.448593
    20  H    4.510138   5.757872   6.106367   5.314165   3.921197
    21  H    4.140286   5.133977   5.161350   4.170874   2.847043
    22  H    4.130687   5.122735   5.151469   4.164781   2.844634
    23  H    1.091322   2.155248   3.411328   3.875359   3.411644
    24  H    2.148830   1.092419   2.159739   3.396525   3.879317
    25  H    3.415804   2.167288   1.092399   2.164258   3.417086
    26  H    3.876460   3.396486   2.156839   1.092426   2.150680
    27  H    3.416151   3.877570   3.407910   2.151342   1.090771
                   16         17         18         19         20
    16  H    0.000000
    17  H    2.515767   0.000000
    18  H    4.294406   4.977458   0.000000
    19  H    4.977282   4.295280   2.515553   0.000000
    20  H    5.047912   3.402681   4.982033   3.306039   0.000000
    21  H    5.749652   3.489556   6.346132   4.404857   1.781149
    22  H    6.381397   4.455949   5.706982   3.422024   1.781647
    23  H    4.434508   3.258821   4.497587   3.342008   4.640443
    24  H    6.612017   5.310089   6.692134   5.407116   6.655997
    25  H    8.442825   6.572512   8.506610   6.652391   7.185526
    26  H    8.607040   6.328373   8.641363   6.374079   5.958839
    27  H    7.088590   4.752568   7.095567   4.762996   3.575147
                   21         22         23         24         25
    21  H    0.000000
    22  H    1.790468   0.000000
    23  H    4.617683   4.607580   0.000000
    24  H    6.141540   6.128822   2.471101   0.000000
    25  H    6.178165   6.167500   4.313463   2.496883   0.000000
    26  H    4.655556   4.651337   4.967774   4.303207   2.492065
    27  H    2.294743   2.300854   4.322950   4.969986   4.307449
                   26         27
    26  H    0.000000
    27  H    2.463364   0.000000
 Stoichiometry    C13H12FN
 Framework group  C1[X(C13H12FN)]
 Deg. of freedom    75
 Full point group                 C1      NOp   1
 Largest Abelian subgroup         C1      NOp   1
 Largest concise Abelian subgroup C1      NOp   1
                         Standard orientation:                         
 ---------------------------------------------------------------------
 Center     Atomic      Atomic             Coordinates (Angstroms)
 Number     Number       Type             X           Y           Z
 ---------------------------------------------------------------------
      1          9           0       -4.612808   -0.944369   -0.011146
      2          6           0       -3.371362   -0.449251   -0.003853
      3          6           0       -2.728665   -0.251199    1.212439
      4          6           0       -1.435209    0.262429    1.214509
      5          6           0       -2.755929   -0.147242   -1.212781
      6          6           0       -1.461703    0.364349   -1.199784
      7          6           0       -0.792198    0.575930    0.011235
      8          7           0        0.525094    1.106674    0.018908
      9          6           0        0.695010    2.547055    0.029489
     10          6           0        1.633335    0.266115    0.005307
     11          6           0        1.475883   -1.134150   -0.020020
     12          6           0        2.589311   -1.969000   -0.035176
     13          6           0        3.881641   -1.439246   -0.025902
     14          6           0        4.041972   -0.054444   -0.000838
     15          6           0        2.936668    0.795737    0.014770
     16          1           0       -3.245811   -0.500918    2.141836
     17          1           0       -0.906189    0.423777    2.155703
     18          1           0       -3.293448   -0.318259   -2.148419
     19          1           0       -0.952959    0.603672   -2.135553
     20          1           0       -0.297966    3.012180    0.032388
     21          1           0        1.236727    2.889046    0.927959
     22          1           0        1.238767    2.902761   -0.862455
     23          1           0        0.472576   -1.563439   -0.028305
     24          1           0        2.445083   -3.051675   -0.055010
     25          1           0        4.752735   -2.098320   -0.038270
     26          1           0        5.045981    0.376021    0.006821
     27          1           0        3.091590    1.875263    0.034888
 ---------------------------------------------------------------------
 Rotational constants (GHZ):           1.4263366           0.3182603           0.2869396
 Standard basis: def2SVP (5D, 7F)
 There are   285 symmetry adapted cartesian basis functions of A   symmetry.
 There are   270 symmetry adapted basis functions of A   symmetry.
   270 basis functions,   459 primitive gaussians,   285 cartesian basis functions
    53 alpha electrons       53 beta electrons
       nuclear repulsion energy       913.8656151716 Hartrees.
 NAtoms=   27 NActive=   27 NUniq=   27 SFac= 1.00D+00 NAtFMM=   60 NAOKFM=F Big=F
 Integral buffers will be    131072 words long.
 Raffenetti 2 integral format.
 Two-electron integral symmetry is turned on.
 Nuclear repulsion after empirical dispersion term =      913.8480267343 Hartrees.
 One-electron integrals computed using PRISM.
   1 Symmetry operations used in ECPInt.
 ECPInt:  NShTT=    8001 NPrTT=   29151 LenC2=    7549 LenP2D=   20188.
 LDataN:  DoStor=T MaxTD1= 4 Len=   56
 NBasis=   270 RedAO= T EigKep=  2.40D-04  NBF=   270
 NBsUse=   270 1.00D-06 EigRej= -1.00D+00 NBFU=   270
 Initial guess from the checkpoint file:  "prod_5b_4.chk"
 B after Tr=     0.000000    0.000000   -0.000000
         Rot=    0.999999   -0.000790   -0.000073   -0.000916 Ang=  -0.14 deg.
 ExpMin= 1.22D-01 ExpMax= 2.89D+03 ExpMxC= 4.35D+02 IAcc=3 IRadAn=         5 AccDes= 0.00D+00
 Harris functional with IExCor= 4639 and IRadAn=       5 diagonalized for initial guess.
 HarFok:  IExCor= 4639 AccDes= 0.00D+00 IRadAn=         5 IDoV= 1 UseB2=F ITyADJ=14
 ICtDFT=  3500011 ScaDFX=  1.000000  1.000000  1.000000  1.000000
 FoFCou: FMM=F IPFlag=           0 FMFlag=      100000 FMFlg1=           0
         NFxFlg=           0 DoJE=T BraDBF=F KetDBF=T FulRan=T
         wScrn=  0.000000 ICntrl=       500 IOpCl=  0 I1Cent=   200000004 NGrid=           0
         NMat0=    1 NMatS0=      1 NMatT0=    0 NMatD0=    1 NMtDS0=    0 NMtDT0=    0
 Petite list used in FoFCou.
 Requested convergence on RMS density matrix=1.00D-08 within 128 cycles.
 Requested convergence on MAX density matrix=1.00D-06.
 Requested convergence on             energy=1.00D-06.
 No special actions if energy rises.
 Integral accuracy reduced to 1.0D-05 until final iterations.
 Initial convergence to 1.0D-05 achieved.  Increase integral accuracy.
 SCF Done:  E(RwB97XD) =  -656.507980255     A.U. after   13 cycles
            NFock= 13  Conv=0.46D-08     -V/T= 2.0106
   1 Symmetry operations used in ECPInt.
 ECPInt:  NShTT=    8001 NPrTT=   29151 LenC2=    7549 LenP2D=   20188.
 LDataN:  DoStor=T MaxTD1= 5 Len=  102
 Calling FoFJK, ICntrl=      2127 FMM=F ISym2X=0 I1Cent= 0 IOpClX= 0 NMat=1 NMatS=1 NMatT=0.
 ***** Axes restored to original set *****
 -------------------------------------------------------------------
 Center     Atomic                   Forces (Hartrees/Bohr)
 Number     Number              X              Y              Z
 -------------------------------------------------------------------
      1        9          -0.002834296   -0.000990424    0.000980549
      2        6           0.002342396    0.000817603   -0.000852396
      3        6           0.001230212    0.001468290    0.000889378
      4        6          -0.000403151   -0.001621556   -0.001064875
      5        6           0.001179573   -0.000665926   -0.001668564
      6        6          -0.000346909    0.000844147    0.001846242
      7        6           0.000390094    0.000058660   -0.000118272
      8        7          -0.003654378   -0.002002037    0.001803930
      9        6           0.002623818    0.003657584   -0.003082088
     10        6           0.004990774   -0.001748095    0.001091538
     11        6          -0.001976843    0.001675450   -0.001245454
     12        6           0.000103681   -0.002155492    0.001725180
     13        6          -0.000584094   -0.000123848    0.000139276
     14        6           0.001689466    0.001111183   -0.000988512
     15        6          -0.002429825    0.000697686   -0.000348948
     16        1          -0.000309186   -0.000711074   -0.000670091
     17        1          -0.000125816    0.000112372   -0.000188182
     18        1          -0.000221882    0.000532374    0.000855272
     19        1          -0.000113702    0.000207793   -0.000084366
     20        1           0.000093785   -0.000644566    0.000518677
     21        1          -0.000396377   -0.000483447    0.000551550
     22        1          -0.000432745   -0.000594308    0.000360967
     23        1          -0.000903733    0.000212505   -0.000154003
     24        1           0.000405524    0.000055338   -0.000076669
     25        1           0.000553343   -0.000256989    0.000179703
     26        1           0.000018944   -0.000342851    0.000272266
     27        1          -0.000888674    0.000889628   -0.000672108
 -------------------------------------------------------------------
 Cartesian Forces:  Max     0.004990774 RMS     0.001359241

 GradGradGradGradGradGradGradGradGradGradGradGradGradGradGradGradGradGrad
 Berny optimization.
 Using GEDIIS/GDIIS optimizer.
 FormGI is forming the generalized inverse of G from B-inverse, IUseBI=4.
 Internal  Forces:  Max     0.003156810 RMS     0.000759836
 Search for a local minimum.
 Step number   2 out of a maximum of  145
 All quantities printed in internal units (Hartrees-Bohrs-Radians)
 Mixed Optimization -- En-DIIS/RFO-DIIS
 Update second derivatives using D2CorX and points    1    2
 DE= -6.75D-03 DEPred=-6.96D-03 R= 9.69D-01
 TightC=F SS=  1.41D+00  RLast= 1.95D-01 DXNew= 5.0454D-01 5.8606D-01
 Trust test= 9.69D-01 RLast= 1.95D-01 DXMaxT set to 5.05D-01
 ITU=  1  0
 Use linear search instead of GDIIS.
     Eigenvalues ---    0.00881   0.01103   0.01123   0.01404   0.01858
[...]
 Alpha virt. eigenvalues --   22.78052  22.84198  22.85015  22.93915  23.00581
 Alpha virt. eigenvalues --   23.32211  23.38121  33.14779  57.43191
          Condensed to atoms (all electrons):
               1          2          3          4          5          6
     1  F    9.032926   0.269337  -0.058561   0.012373  -0.059701   0.012564
     2  C    0.269337   4.652829   0.405632   0.075010   0.419803   0.056597
     3  C   -0.058561   0.405632   5.194808   0.267022  -0.018684  -0.057405
     4  C    0.012373   0.075010   0.267022   5.203402  -0.061967   0.027233
     5  C   -0.059701   0.419803  -0.018684  -0.061967   5.153061   0.306976
     6  C    0.012564   0.056597  -0.057405   0.027233   0.306976   5.142640
     7  C   -0.002416  -0.103508   0.006449   0.402427  -0.005231   0.438132
     8  N   -0.000003   0.000403   0.010678  -0.052515   0.006657  -0.034959
     9  C   -0.000001  -0.000311   0.000900  -0.005523   0.000722  -0.009265
    10  C   -0.000002   0.000785  -0.003511   0.025579   0.000729  -0.009633
    11  C    0.000005   0.000188  -0.003337  -0.004126  -0.000770   0.004917
    12  C    0.000000  -0.000037  -0.000032   0.002737  -0.000117   0.000139
    13  C   -0.000000   0.000003  -0.000009  -0.000009   0.000004   0.000077
    14  C    0.000000  -0.000004   0.000082   0.000305  -0.000008  -0.000096
    15  C   -0.000000   0.000078  -0.000918   0.000574   0.000066   0.001043
    16  H    0.000601  -0.053897   0.437799  -0.052414   0.014092  -0.005168
    17  H   -0.000056   0.004652  -0.032869   0.418889  -0.002341   0.009701
    18  H    0.000363  -0.054777   0.015028  -0.006198   0.439599  -0.054362
    19  H   -0.000039   0.005514  -0.003137   0.010487  -0.028911   0.417101
    20  H   -0.000000  -0.000221   0.000529   0.000349  -0.000261  -0.006610
    21  H    0.000000   0.000067  -0.001073   0.002389   0.000212   0.004203
    22  H    0.000000  -0.000026   0.000164  -0.000878  -0.000291  -0.001070
    23  H   -0.000008   0.000410  -0.000738  -0.002019   0.000238  -0.000101
    24  H    0.000000  -0.000005   0.000010  -0.000041   0.000003  -0.000018
    25  H   -0.000000   0.000000  -0.000000   0.000001  -0.000000   0.000000
    26  H    0.000000   0.000000  -0.000000  -0.000003   0.000000   0.000000
    27  H    0.000000  -0.000001  -0.000008   0.000178   0.000009  -0.000031
               7          8          9         10         11         12
     1  F   -0.002416  -0.000003  -0.000001  -0.000002   0.000005   0.000000
     2  C   -0.103508   0.000403  -0.000311   0.000785   0.000188  -0.000037
     3  C    0.006449   0.010678   0.000900  -0.003511  -0.003337  -0.000032
     4  C    0.402427  -0.052515  -0.005523   0.025579  -0.004126   0.002737
     5  C   -0.005231   0.006657   0.000722   0.000729  -0.000770  -0.000117
     6  C    0.438132  -0.034959  -0.009265  -0.009633   0.004917   0.000139
     7  C    5.113501   0.231520  -0.073388  -0.143457   0.011323  -0.001156
     8  N    0.231520   6.452198   0.312162   0.426466  -0.067245   0.003394
     9  C   -0.073388   0.312162   4.933265  -0.077774   0.012743  -0.000501
    10  C   -0.143457   0.426466  -0.077774   4.931933   0.398666  -0.017095
    11  C    0.011323  -0.067245   0.012743   0.398666   5.075868   0.471201
    12  C   -0.001156   0.003394  -0.000501  -0.017095   0.471201   4.903936
    13  C    0.000090   0.000151   0.000397  -0.069264  -0.001847   0.458111
    14  C   -0.000163   0.002938  -0.002230  -0.002236  -0.057442  -0.000508
    15  C    0.003673  -0.093171  -0.009415   0.386413   0.025183  -0.072147
    16  H    0.012914  -0.000176  -0.000000   0.000057  -0.000103  -0.000014
    17  H   -0.033848  -0.003762   0.000089   0.000792   0.000490  -0.000024
    18  H    0.014698  -0.000198   0.000031  -0.000027   0.000010   0.000001
    19  H   -0.044435   0.006197  -0.002227   0.001230  -0.000242  -0.000012
    20  H   -0.005057  -0.027702   0.406866   0.007240  -0.000515   0.000062
    21  H   -0.006601  -0.053536   0.408543  -0.003371   0.000072  -0.000225
    22  H    0.014353  -0.044185   0.413299  -0.007979   0.000488   0.000036
    23  H    0.001605  -0.004838  -0.000320  -0.047071   0.431919  -0.039382
    24  H    0.000115  -0.000156   0.000017   0.013275  -0.055657   0.439732
    25  H   -0.000001   0.000021  -0.000001  -0.003628   0.012222  -0.059540
    26  H    0.000028  -0.000109  -0.000020   0.013114  -0.002698   0.009997
    27  H   -0.001015  -0.005011   0.004895  -0.056248   0.002969  -0.000403
              13         14         15         16         17         18
     1  F   -0.000000   0.000000  -0.000000   0.000601  -0.000056   0.000363
     2  C    0.000003  -0.000004   0.000078  -0.053897   0.004652  -0.054777
     3  C   -0.000009   0.000082  -0.000918   0.437799  -0.032869   0.015028
     4  C   -0.000009   0.000305   0.000574  -0.052414   0.418889  -0.006198
     5  C    0.000004  -0.000008   0.000066   0.014092  -0.002341   0.439599
     6  C    0.000077  -0.000096   0.001043  -0.005168   0.009701  -0.054362
     7  C    0.000090  -0.000163   0.003673   0.012914  -0.033848   0.014698
     8  N    0.000151   0.002938  -0.093171  -0.000176  -0.003762  -0.000198
     9  C    0.000397  -0.002230  -0.009415  -0.000000   0.000089   0.000031
    10  C   -0.069264  -0.002236   0.386413   0.000057   0.000792  -0.000027
    11  C   -0.001847  -0.057442   0.025183  -0.000103   0.000490   0.000010
    12  C    0.458111  -0.000508  -0.072147  -0.000014  -0.000024   0.000001
    13  C    4.942291   0.475216   0.013674  -0.000000   0.000012  -0.000000
    14  C    0.475216   4.867080   0.450400   0.000000  -0.000051   0.000000
    15  C    0.013674   0.450400   5.198927   0.000003   0.001111  -0.000002
    16  H   -0.000000   0.000000   0.000003   0.513872  -0.005936  -0.000088
    17  H    0.000012  -0.000051   0.001111  -0.005936   0.491855   0.000010
    18  H   -0.000000   0.000000  -0.000002  -0.000088   0.000010   0.516184
    19  H    0.000004  -0.000009   0.000034   0.000024  -0.000146  -0.006730
    20  H   -0.000021   0.000120   0.000536   0.000003  -0.000191   0.000030
    21  H    0.000175  -0.001269   0.007748   0.000002   0.000517  -0.000008
    22  H   -0.000282   0.001736  -0.002620  -0.000000  -0.000036   0.000006
    23  H    0.007167  -0.001838   0.007039   0.000004  -0.000409  -0.000009
    24  H   -0.056682   0.010758  -0.003346   0.000001  -0.000004   0.000000
    25  H    0.446539  -0.059063   0.012933   0.000000   0.000001  -0.000000
    26  H   -0.054482   0.436386  -0.054958   0.000000  -0.000001  -0.000000
    27  H    0.005358  -0.021104   0.428827   0.000000   0.000001  -0.000000
              19         20         21         22         23         24
     1  F   -0.000039  -0.000000   0.000000   0.000000  -0.000008   0.000000
     2  C    0.005514  -0.000221   0.000067  -0.000026   0.000410  -0.000005
     3  C   -0.003137   0.000529  -0.001073   0.000164  -0.000738   0.000010
     4  C    0.010487   0.000349   0.002389  -0.000878  -0.002019  -0.000041
     5  C   -0.028911  -0.000261   0.000212  -0.000291   0.000238   0.000003
     6  C    0.417101  -0.006610   0.004203  -0.001070  -0.000101  -0.000018
     7  C   -0.044435  -0.005057  -0.006601   0.014353   0.001605   0.000115
     8  N    0.006197  -0.027702  -0.053536  -0.044185  -0.004838  -0.000156
     9  C   -0.002227   0.406866   0.408543   0.413299  -0.000320   0.000017
    10  C    0.001230   0.007240  -0.003371  -0.007979  -0.047071   0.013275
    11  C   -0.000242  -0.000515   0.000072   0.000488   0.431919  -0.055657
    12  C   -0.000012   0.000062  -0.000225   0.000036  -0.039382   0.439732
    13  C    0.000004  -0.000021   0.000175  -0.000282   0.007167  -0.056682
    14  C   -0.000009   0.000120  -0.001269   0.001736  -0.001838   0.010758
    15  C    0.000034   0.000536   0.007748  -0.002620   0.007039  -0.003346
    16  H    0.000024   0.000003   0.000002  -0.000000   0.000004   0.000001
    17  H   -0.000146  -0.000191   0.000517  -0.000036  -0.000409  -0.000004
    18  H   -0.006730   0.000030  -0.000008   0.000006  -0.000009   0.000000
    19  H    0.503445  -0.002339   0.000550  -0.000690   0.000022  -0.000000
    20  H   -0.002339   0.518102  -0.025864  -0.012791  -0.000015  -0.000000
    21  H    0.000550  -0.025864   0.585796  -0.048333   0.000033  -0.000001
    22  H   -0.000690  -0.012791  -0.048333   0.556743  -0.000002  -0.000000
    23  H    0.000022  -0.000015   0.000033  -0.000002   0.508317  -0.007079
    24  H   -0.000000  -0.000000  -0.000001  -0.000000  -0.007079   0.549426
    25  H    0.000000  -0.000000   0.000001  -0.000001  -0.000105  -0.006896
    26  H    0.000000  -0.000000  -0.000006  -0.000015   0.000031  -0.000175
    27  H    0.000006   0.000441   0.002650  -0.006994  -0.000155   0.000038
              25         26         27
     1  F   -0.000000   0.000000   0.000000
     2  C    0.000000   0.000000  -0.000001
     3  C   -0.000000  -0.000000  -0.000008
     4  C    0.000001  -0.000003   0.000178
     5  C   -0.000000   0.000000   0.000009
     6  C    0.000000   0.000000  -0.000031
     7  C   -0.000001   0.000028  -0.001015
     8  N    0.000021  -0.000109  -0.005011
     9  C   -0.000001  -0.000020   0.004895
    10  C   -0.003628   0.013114  -0.056248
    11  C    0.012222  -0.002698   0.002969
    12  C   -0.059540   0.009997  -0.000403
    13  C    0.446539  -0.054482   0.005358
    14  C   -0.059063   0.436386  -0.021104
    15  C    0.012933  -0.054958   0.428827
    16  H    0.000000   0.000000   0.000000
    17  H    0.000001  -0.000001   0.000001
    18  H   -0.000000  -0.000000  -0.000000
    19  H    0.000000   0.000000   0.000006
    20  H   -0.000000  -0.000000   0.000441
    21  H    0.000001  -0.000006   0.002650
    22  H   -0.000001  -0.000015  -0.006994
    23  H   -0.000105   0.000031  -0.000155
    24  H   -0.006896  -0.000175   0.000038
    25  H    0.550659  -0.006960  -0.000146
    26  H   -0.006960   0.551688  -0.006670
    27  H   -0.000146  -0.006670   0.521959
 Mulliken charges:
               1
     1  F   -0.207380
     2  C    0.321479
     3  C   -0.158820
     4  C   -0.263261
     5  C   -0.163889
     6  C   -0.242607
     7  C    0.169445
     8  N   -0.065218
     9  C   -0.312954
    10  C    0.235018
    11  C   -0.254282
    12  C   -0.098154
    13  C   -0.166673
    14  C   -0.099001
    15  C   -0.301686
    16  H    0.138425
    17  H    0.151554
    18  H    0.136439
    19  H    0.144303
    20  H    0.147308
    21  H    0.127327
    22  H    0.139369
    23  H    0.147304
    24  H    0.116684
    25  H    0.113963
    26  H    0.114853
    27  H    0.130455
 Sum of Mulliken charges =  -0.00000
 Mulliken charges with hydrogens summed into heavy atoms:
               1
     1  F   -0.207380
     2  C    0.321479
     3  C   -0.020396
     4  C   -0.111707
     5  C   -0.027450
     6  C   -0.098304
     7  C    0.169445
     8  N   -0.065218
     9  C    0.101051
    10  C    0.235018
    11  C   -0.106978
    12  C    0.018529
    13  C   -0.052710
    14  C    0.015852
    15  C   -0.171230
 Electronic spatial extent (au):  <R**2>=           3751.4760
 Charge=              0.0000 electrons
 Dipole moment (field-independent basis, Debye):
    X=              0.2695    Y=              1.3867    Z=              0.2010  Tot=              1.4268
 Quadrupole moment (field-independent basis, Debye-Ang):
   XX=            -92.4641   YY=            -81.0718   ZZ=            -86.6709
   XY=             -1.2669   XZ=              3.2788   YZ=             -1.0365
 Traceless Quadrupole moment (field-independent basis, Debye-Ang):
   XX=             -5.7285   YY=              5.6638   ZZ=              0.0647
   XY=             -1.2669   XZ=              3.2788   YZ=             -1.0365
 Octapole moment (field-independent basis, Debye-Ang**2):
  XXX=             19.1682  YYY=              1.0020  ZZZ=              2.8735  XYY=             -1.1949
  XXY=              9.1462  XXZ=             -0.4784  XZZ=            -28.0645  YZZ=             -0.6571
  YYZ=             -2.3949  XYZ=             13.7801
 Hexadecapole moment (field-independent basis, Debye-Ang**3):
 XXXX=          -3823.0642 YYYY=           -819.5728 ZZZZ=           -316.3732 XXXY=            -39.9806
 XXXZ=             76.6575 YYYX=             30.9020 YYYZ=              7.2428 ZZZX=              4.4347
 ZZZY=            -18.0082 XXYY=           -748.4377 XXZZ=           -684.7860 YYZZ=           -187.5918
 XXYZ=             -3.2107 YYXZ=            -10.7319 ZZXY=             21.5845
 N-N= 9.142948742661D+02 E-N=-3.360144254750D+03  KE= 6.537677433827D+02
 Breneman (CHELPG) radii used.
 Read replacement radii for each type of atom:
 Atom Element Radius
    1     9    1.70
    2     6    1.50
    3     6    1.50
    4     6    1.50
    5     6    1.50
    6     6    1.50
    7     6    1.50
    8     7    1.70
    9     6    1.50
   10     6    1.50
   11     6    1.50
   12     6    1.50
   13     6    1.50
   14     6    1.50
   15     6    1.50
   16     1    1.45
   17     1    1.45
   18     1    1.45
   19     1    1.45
   20     1    1.45
   21     1    1.45
   22     1    1.45
   23     1    1.45
   24     1    1.45
   25     1    1.45
   26     1    1.45
   27     1    1.45
 Generate Potential Derived Charges using the Breneman model, NDens= 1.
 Grid spacing= 0.300 Box extension= 2.800
 NStep X,Y,Z=   52     40     31   Total possible points=       64480
 Number of Points to Fit=   17024

 **********************************************************************

            Electrostatic Properties Using The SCF Density.

 **********************************************************************

       Atomic Center    1 is at  -4.608088 -1.007749  0.126649
       Atomic Center    2 is at  -3.374577 -0.502308  0.079773
       Atomic Center    3 is at  -2.443420 -0.894171  1.034992
       Atomic Center    4 is at  -1.161121 -0.356600  0.988232
       Atomic Center    5 is at  -3.048353  0.401522 -0.923163
       Atomic Center    6 is at  -1.754458  0.914717 -0.972922
       Atomic Center    7 is at  -0.800032  0.549545 -0.017446
       Atomic Center    8 is at   0.501194  1.114611 -0.059870
       Atomic Center    9 is at   0.631063  2.518684  0.263737
       Atomic Center   10 is at   1.630507  0.297223 -0.067614
       Atomic Center   11 is at   1.558601 -1.025973 -0.550307
       Atomic Center   12 is at   2.688633 -1.832502 -0.582296
       Atomic Center   13 is at   3.926519 -1.354316 -0.147948
       Atomic Center   14 is at   4.008193 -0.047121  0.321074
       Atomic Center   15 is at   2.881001  0.772557  0.367636
       Atomic Center   16 is at  -2.735985 -1.603771  1.810472
       Atomic Center   17 is at  -0.419342 -0.648225  1.734470
       Atomic Center   18 is at  -3.801669  0.680348 -1.661454
       Atomic Center   19 is at  -1.471749  1.607180 -1.768490
       Atomic Center   20 is at  -0.325615  3.021546  0.076009
       Atomic Center   21 is at   0.898480  2.689570  1.324297
       Atomic Center   22 is at   1.397200  2.997987 -0.365626
       Atomic Center   23 is at   0.606599 -1.417242 -0.911784
       Atomic Center   24 is at   2.600345 -2.852446 -0.964182
       Atomic Center   25 is at   4.811639 -1.992075 -0.178469
       Atomic Center   26 is at   4.965126  0.350833  0.667303
       Atomic Center   27 is at   2.984055  1.786222  0.754219
   17024 points will be used for fitting atomic charges
 Fitting point charges to electrostatic potential
 Charges from ESP fit, RMS=   0.00370 RRMS=   0.37291:
 ESP charges:
               1
     1  F   -0.217965
     2  C    0.345153
     3  C   -0.269474
     4  C   -0.081178
     5  C   -0.237676
     6  C   -0.161144
     7  C    0.272025
     8  N   -0.434847
     9  C    0.093519
    10  C    0.390830
    11  C   -0.241764
    12  C   -0.056487
    13  C   -0.162363
    14  C   -0.064158
    15  C   -0.259024
    16  H    0.160675
    17  H    0.089387
    18  H    0.150684
    19  H    0.133708
    20  H    0.022636
    21  H    0.008731
    22  H    0.025902
    23  H    0.085207
    24  H    0.097973
    25  H    0.094804
    26  H    0.093339
    27  H    0.121506
 Sum of ESP charges =  -0.00000
 ESP charges with hydrogens summed into heavy atoms:
               1
     1  F   -0.217965
     2  C    0.345153
     3  C   -0.108798
     4  C    0.008209
     5  C   -0.086992
     6  C   -0.027437
     7  C    0.272025
     8  N   -0.434847
     9  C    0.150788
    10  C    0.390830
    11  C   -0.156556
    12  C    0.041486
    13  C   -0.067559
    14  C    0.029181
    15  C   -0.137519
 Charge=  -0.00000 Dipole=     0.3326     1.4229     0.1847 Tot=     1.4729
 -----------------------------------------------------------------

              Electrostatic Properties (Atomic Units)

 -----------------------------------------------------------------
    Center     Electric         -------- Electric Field --------
               Potential          X             Y             Z
 -----------------------------------------------------------------
    1 Atom    -26.580398
    2 Atom    -14.679223
    3 Atom    -14.755521
    4 Atom    -14.755087
    5 Atom    -14.755056
    6 Atom    -14.754280
    7 Atom    -14.721388
    8 Atom    -18.357142
    9 Atom    -14.732309
   10 Atom    -14.725715
   11 Atom    -14.777713
   12 Atom    -14.773139
   13 Atom    -14.782007
   14 Atom    -14.772619
   15 Atom    -14.776158
   16 Atom     -1.086312
   17 Atom     -1.092787
   18 Atom     -1.085436
   19 Atom     -1.090537
   20 Atom     -1.100865
   21 Atom     -1.111641
   22 Atom     -1.107331
   23 Atom     -1.110949
   24 Atom     -1.112787
   25 Atom     -1.115813
   26 Atom     -1.112113
   27 Atom     -1.107775
 -----------------------------------------------------------------
 Unable to Open any file for archive entry.
 1\1\GINC-NOTCH344\SP\RwB97XD\def2TZVP\C13H12F1N1\U1366379\17-Feb-2026\
 0\\#N Guess=Read Geom=Check Integral(Ultrafine) Density Pop=(ChelpG,Re
 adRadii) NMR wB97XD def2TZVP\\prod_5b_4\\0,1\F,0,4.532017225,0.8671716
 591,-0.5294702503\C,0,3.3010591119,0.4073874058,-0.3002142177\C,0,2.43
 96569501,1.1447841166,0.50432544\C,0,1.160218926,0.6562649418,0.748966
 2816\C,0,2.9076707995,-0.7956440376,-0.8722060388\C,0,1.6163212269,-1.
 2623711772,-0.6385599201\C,0,0.7318717127,-0.549164631,0.1777118614\N,
 0,-0.565981812,-1.0612081819,0.4378572781\C,0,-0.6645528402,-2.2431607
 853,1.2662780631\C,0,-1.6971991798,-0.2799331703,0.2065834495\C,0,-1.6
 675590228,0.7693815164,-0.7352597432\C,0,-2.8011965728,1.5316265235,-0
 .9849259378\C,0,-4.0017184508,1.2750513732,-0.3196453065\C,0,-4.042177
 908,0.2357656188,0.6042902957\C,0,-2.9102448518,-0.5332491198,0.872519
 6162\H,0,2.7839890131,2.0840797405,0.939818062\H,0,0.4730484733,1.2191
 729229,1.3838546619\H,0,3.6068568122,-1.343979343,-1.5052692152\H,0,1.
 2802687353,-2.1933854516,-1.0996875727\H,0,0.2786229664,-2.8006746872,
 1.2120515758\H,0,-0.8533407281,-2.0042029484,2.3305900909\H,0,-1.47181
 34788,-2.9041321039,0.9137971515\H,0,-0.7464095115,0.9784118001,-1.281
 0204571\H,0,-2.7462875153,2.3361097615,-1.7222920375\H,0,-4.8900910185
 ,1.8756782353,-0.5224944854\H,0,-4.9693168291,0.014999063,1.1387416786
 \H,0,-2.9795722329,-1.3298390413,1.6129396761\\Version=ES64L-G16RevC.0
 1\State=1-A\HF=-657.2143327\RMSD=2.143e-09\Dipole=-0.0971155,-0.475275
 ,0.2825135\Quadrupole=-4.5797487,4.2455283,0.3342204,-1.6428977,-1.610
 8565,-0.7146593\PG=C01 [X(C13H12F1N1)]\\@
 The archive entry for this job was punched.


 TOM, TOM, THE BURGLAR'S SON
 STOLE A MACHINE AND AWAY HE RUN
 THE JOB WAS NEAT, BUT TOM GOT BEAT
 BY THE TIME HE GOT HOME IT WAS OBSOLETE.
 Job cpu time:       0 days  0 hours 53 minutes 19.4 seconds.
 Elapsed time:       0 days  0 hours  6 minutes 51.0 seconds.
 File lengths (MBytes):  RWF=    179 Int=      0 D2E=      0 Chk=     27 Scr=      2
 Normal termination of Gaussian 16 at Tue Feb 17 16:27:31 2026.
