 Entering Gaussian System, Link 0=g16
 Input=prod_5h_3.com
 Output=prod_5h_3.log
 Initial command:
 /uufs/chpc.utah.edu/sys/installdir/gaussian16/C01/AVX/g16/l1.exe "/scratch/general/vast/u1366379/GAUSSSCRDIR/11028673-notchpeak.peaks/Gau-2594805.inp" -scrdir="/scratch/general/vast/u1366379/GAUSSSCRDIR/11028673-notchpeak.peaks/"
 Entering Link 1 = /uufs/chpc.utah.edu/sys/installdir/gaussian16/C01/AVX/g16/l1.exe PID=   2594806.
  
 Copyright (c) 1988-2019, Gaussian, Inc.  All Rights Reserved.
  
 This is part of the Gaussian(R) 16 program.  It is based on
 the Gaussian(R) 09 system (copyright 2009, Gaussian, Inc.),
 the Gaussian(R) 03 system (copyright 2003, Gaussian, Inc.),
 the Gaussian(R) 98 system (copyright 1998, Gaussian, Inc.),
 the Gaussian(R) 94 system (copyright 1995, Gaussian, Inc.),
 the Gaussian 92(TM) system (copyright 1992, Gaussian, Inc.),
 the Gaussian 90(TM) system (copyright 1990, Gaussian, Inc.),
 the Gaussian 88(TM) system (copyright 1988, Gaussian, Inc.),
 the Gaussian 86(TM) system (copyright 1986, Carnegie Mellon
 University), and the Gaussian 82(TM) system (copyright 1983,
 Carnegie Mellon University). Gaussian is a federally registered
 trademark of Gaussian, Inc.
  
 This software contains proprietary and confidential information,
 including trade secrets, belonging to Gaussian, Inc.
  
 This software is provided under written license and may be
 used, copied, transmitted, or stored only in accord with that
 written license.
  
 The following legend is applicable only to US Government
 contracts under FAR:
  
                    RESTRICTED RIGHTS LEGEND
  
 Use, reproduction and disclosure by the US Government is
 subject to restrictions as set forth in subparagraphs (a)
 and (c) of the Commercial Computer Software - Restricted
 Rights clause in FAR 52.227-19.
  
 Gaussian, Inc.
 340 Quinnipiac St., Bldg. 40, Wallingford CT 06492
  
  
 ---------------------------------------------------------------
 Warning -- This program may not be used in any manner that
 competes with the business of Gaussian, Inc. or will provide
 assistance to any competitor of Gaussian, Inc.  The licensee
 of this program is prohibited from giving any competitor of
 Gaussian, Inc. access to this program.  By using this program,
 the user acknowledges that Gaussian, Inc. is engaged in the
 business of creating and licensing software in the field of
 computational chemistry and represents and warrants to the
 licensee that it is not a competitor of Gaussian, Inc. and that
 it will not use this program in any manner prohibited above.
 ---------------------------------------------------------------
  

 Cite this work as:
 Gaussian 16, Revision C.01,
 M. J. Frisch, G. W. Trucks, H. B. Schlegel, G. E. Scuseria, 
 M. A. Robb, J. R. Cheeseman, G. Scalmani, V. Barone, 
 G. A. Petersson, H. Nakatsuji, X. Li, M. Caricato, A. V. Marenich, 
 J. Bloino, B. G. Janesko, R. Gomperts, B. Mennucci, H. P. Hratchian, 
 J. V. Ortiz, A. F. Izmaylov, J. L. Sonnenberg, D. Williams-Young, 
 F. Ding, F. Lipparini, F. Egidi, J. Goings, B. Peng, A. Petrone, 
 T. Henderson, D. Ranasinghe, V. G. Zakrzewski, J. Gao, N. Rega, 
 G. Zheng, W. Liang, M. Hada, M. Ehara, K. Toyota, R. Fukuda, 
 J. Hasegawa, M. Ishida, T. Nakajima, Y. Honda, O. Kitao, H. Nakai, 
 T. Vreven, K. Throssell, J. A. Montgomery, Jr., J. E. Peralta, 
 F. Ogliaro, M. J. Bearpark, J. J. Heyd, E. N. Brothers, K. N. Kudin, 
 V. N. Staroverov, T. A. Keith, R. Kobayashi, J. Normand, 
 K. Raghavachari, A. P. Rendell, J. C. Burant, S. S. Iyengar, 
 J. Tomasi, M. Cossi, J. M. Millam, M. Klene, C. Adamo, R. Cammi, 
 J. W. Ochterski, R. L. Martin, K. Morokuma, O. Farkas, 
 J. B. Foresman, and D. J. Fox, Gaussian, Inc., Wallingford CT, 2019.
 
 ******************************************
 Gaussian 16:  ES64L-G16RevC.01  3-Jul-2019
                17-Feb-2026 
 ******************************************
 %NProcShared=8
 Will use up to    8 processors via shared memory.
 %Mem=8GB
 %chk=prod_5h_3.chk
 ------------------------------------------------------
 #N OPT FREQ=NORAMAN Integral(Ultrafine) wB97XD def2SVP
 ------------------------------------------------------
 1/18=20,19=15,26=4,38=1/1,3;
 2/9=110,12=2,17=6,18=5,40=1/2;
 3/5=43,7=101,11=2,25=1,30=1,71=1,74=-58,75=-5/1,2,3;
 4//1;
 5/5=2,38=5/2;
 6/7=2,8=2,9=2,10=2,28=1/1;
 7//1,2,3,16;
 1/18=20,19=15,26=4/3(2);
 2/9=110/2;
 99//99;
 2/9=110/2;
 3/5=43,7=101,11=2,25=1,30=1,71=1,74=-58,75=-5/1,2,3;
 4/5=5,16=3,69=1/1;
 5/5=2,38=5/2;
 7//1,2,3,16;
 1/18=20,19=15,26=4/3(-5);
 2/9=110/2;
 6/7=2,8=2,9=2,10=2,19=2,28=1/1;
 99/9=1/99;
 ---------
 prod_5h_3
 ---------
 Symbolic Z-matrix:
 Charge =  0 Multiplicity = 1
 Cl                    4.56687  -0.72835   0.1302 
 C                     2.92765  -0.17024   0.0403 
 C                     2.57703   1.0444    0.60411 
 C                     1.27499   1.48742   0.53679 
 C                     1.96745  -0.93928  -0.59395 
 C                     0.66564  -0.49709  -0.6615 
 C                     0.29527   0.72192  -0.0948 
 N                    -1.06421   1.16988  -0.17664 
 C                    -1.31923   2.60889  -0.23454 
 C                    -2.1582    0.25648  -0.07093 
 C                    -3.34431   0.44865  -0.78116 
 C                    -4.38604  -0.44413  -0.66539 
 C                    -4.26926  -1.54596   0.15944 
 C                    -3.10219  -1.75415   0.86788 
 C                    -2.05818  -0.86484   0.75371 
 H                     3.33573   1.63021   1.09447 
 H                     1.00253   2.4257    0.98608 
 H                     2.25588  -1.88015  -1.03064 
 H                    -0.08254  -1.08514  -1.16335 
 H                    -2.31803   2.82026  -0.60722 
 H                    -0.59852   3.08886  -0.89394 
 H                    -1.23101   3.04072   0.76041 
 H                    -3.42889   1.28479  -1.45204 
 H                    -5.29411  -0.28577  -1.22387 
 H                    -5.08639  -2.24299   0.24834 
 H                    -3.00972  -2.61306   1.5122 
 H                    -1.15199  -1.01695   1.31348 
 

 GradGradGradGradGradGradGradGradGradGradGradGradGradGradGradGradGradGrad
 Berny optimization.
 Initialization pass.
                           ----------------------------
                           !    Initial Parameters    !
                           ! (Angstroms and Degrees)  !
 --------------------------                            --------------------------
 ! Name  Definition              Value          Derivative Info.                !
 --------------------------------------------------------------------------------
 ! R1    R(1,2)                  1.734          estimate D2E/DX2                !
 ! R2    R(2,3)                  1.3843         estimate D2E/DX2                !
 ! R3    R(2,5)                  1.3841         estimate D2E/DX2                !
 ! R4    R(3,4)                  1.377          estimate D2E/DX2                !
 ! R5    R(3,16)                 1.0767         estimate D2E/DX2                !
 ! R6    R(4,7)                  1.3945         estimate D2E/DX2                !
 ! R7    R(4,17)                 1.0754         estimate D2E/DX2                !
 ! R8    R(5,6)                  1.3765         estimate D2E/DX2                !
 ! R9    R(5,18)                 1.0766         estimate D2E/DX2                !
 ! R10   R(6,7)                  1.3944         estimate D2E/DX2                !
 ! R11   R(6,19)                 1.0758         estimate D2E/DX2                !
 ! R12   R(7,8)                  1.4337         estimate D2E/DX2                !
 ! R13   R(8,9)                  1.4626         estimate D2E/DX2                !
 ! R14   R(8,10)                 1.4291         estimate D2E/DX2                !
 ! R15   R(9,20)                 1.0868         estimate D2E/DX2                !
 ! R16   R(9,21)                 1.0884         estimate D2E/DX2                !
 ! R17   R(9,22)                 1.0882         estimate D2E/DX2                !
 ! R18   R(10,11)                1.3958         estimate D2E/DX2                !
 ! R19   R(10,15)                1.3955         estimate D2E/DX2                !
 ! R20   R(11,12)                1.3768         estimate D2E/DX2                !
 ! R21   R(11,23)                1.0753         estimate D2E/DX2                !
 ! R22   R(12,13)                1.3813         estimate D2E/DX2                !
 ! R23   R(12,24)                1.0778         estimate D2E/DX2                !
 ! R24   R(13,14)                1.381          estimate D2E/DX2                !
 ! R25   R(13,25)                1.0777         estimate D2E/DX2                !
 ! R26   R(14,15)                1.3762         estimate D2E/DX2                !
 ! R27   R(14,26)                1.0777         estimate D2E/DX2                !
 ! R28   R(15,27)                1.0759         estimate D2E/DX2                !
 ! A1    A(1,2,3)              120.0507         estimate D2E/DX2                !
 ! A2    A(1,2,5)              120.0502         estimate D2E/DX2                !
 ! A3    A(3,2,5)              119.8991         estimate D2E/DX2                !
 ! A4    A(2,3,4)              120.1257         estimate D2E/DX2                !
 ! A5    A(2,3,16)             118.9753         estimate D2E/DX2                !
 ! A6    A(4,3,16)             120.8988         estimate D2E/DX2                !
 ! A7    A(3,4,7)              120.6528         estimate D2E/DX2                !
 ! A8    A(3,4,17)             119.9903         estimate D2E/DX2                !
 ! A9    A(7,4,17)             119.3513         estimate D2E/DX2                !
 ! A10   A(2,5,6)              120.006          estimate D2E/DX2                !
 ! A11   A(2,5,18)             119.0507         estimate D2E/DX2                !
 ! A12   A(6,5,18)             120.9432         estimate D2E/DX2                !
 ! A13   A(5,6,7)              120.8032         estimate D2E/DX2                !
 ! A14   A(5,6,19)             120.3312         estimate D2E/DX2                !
 ! A15   A(7,6,19)             118.8627         estimate D2E/DX2                !
 ! A16   A(4,7,6)              118.5123         estimate D2E/DX2                !
 ! A17   A(4,7,8)              121.366          estimate D2E/DX2                !
 ! A18   A(6,7,8)              120.1199         estimate D2E/DX2                !
 ! A19   A(7,8,9)              118.3597         estimate D2E/DX2                !
 ! A20   A(7,8,10)             121.4635         estimate D2E/DX2                !
 ! A21   A(9,8,10)             119.8876         estimate D2E/DX2                !
 ! A22   A(8,9,20)             111.418          estimate D2E/DX2                !
 ! A23   A(8,9,21)             110.0236         estimate D2E/DX2                !
 ! A24   A(8,9,22)             109.8832         estimate D2E/DX2                !
 ! A25   A(20,9,21)            108.3629         estimate D2E/DX2                !
 ! A26   A(20,9,22)            108.1105         estimate D2E/DX2                !
 ! A27   A(21,9,22)            108.9807         estimate D2E/DX2                !
 ! A28   A(8,10,11)            121.6605         estimate D2E/DX2                !
 ! A29   A(8,10,15)            120.1603         estimate D2E/DX2                !
 ! A30   A(11,10,15)           118.1789         estimate D2E/DX2                !
 ! A31   A(10,11,12)           120.7235         estimate D2E/DX2                !
 ! A32   A(10,11,23)           119.4289         estimate D2E/DX2                !
 ! A33   A(12,11,23)           119.8109         estimate D2E/DX2                !
 ! A34   A(11,12,13)           120.2304         estimate D2E/DX2                !
 ! A35   A(11,12,24)           119.91           estimate D2E/DX2                !
 ! A36   A(13,12,24)           119.8588         estimate D2E/DX2                !
 ! A37   A(12,13,14)           119.8683         estimate D2E/DX2                !
 ! A38   A(12,13,25)           120.0706         estimate D2E/DX2                !
 ! A39   A(14,13,25)           120.061          estimate D2E/DX2                !
 ! A40   A(13,14,15)           120.074          estimate D2E/DX2                !
 ! A41   A(13,14,26)           119.9567         estimate D2E/DX2                !
 ! A42   A(15,14,26)           119.9692         estimate D2E/DX2                !
 ! A43   A(10,15,14)           120.9244         estimate D2E/DX2                !
 ! A44   A(10,15,27)           118.7769         estimate D2E/DX2                !
 ! A45   A(14,15,27)           120.2928         estimate D2E/DX2                !
 ! D1    D(1,2,3,4)           -179.8236         estimate D2E/DX2                !
 ! D2    D(1,2,3,16)             0.0316         estimate D2E/DX2                !
 ! D3    D(5,2,3,4)              0.1012         estimate D2E/DX2                !
 ! D4    D(5,2,3,16)           179.9565         estimate D2E/DX2                !
 ! D5    D(1,2,5,6)            179.8172         estimate D2E/DX2                !
 ! D6    D(1,2,5,18)            -0.2808         estimate D2E/DX2                !
 ! D7    D(3,2,5,6)             -0.1076         estimate D2E/DX2                !
 ! D8    D(3,2,5,18)           179.7944         estimate D2E/DX2                !
 ! D9    D(2,3,4,7)              0.1185         estimate D2E/DX2                !
 ! D10   D(2,3,4,17)           179.2478         estimate D2E/DX2                !
 ! D11   D(16,3,4,7)          -179.734          estimate D2E/DX2                !
 ! D12   D(16,3,4,17)           -0.6047         estimate D2E/DX2                !
 ! D13   D(3,4,7,6)             -0.3245         estimate D2E/DX2                !
 ! D14   D(3,4,7,8)           -179.8448         estimate D2E/DX2                !
 ! D15   D(17,4,7,6)          -179.4593         estimate D2E/DX2                !
 ! D16   D(17,4,7,8)             1.0204         estimate D2E/DX2                !
 ! D17   D(2,5,6,7)             -0.1056         estimate D2E/DX2                !
 ! D18   D(2,5,6,19)           179.2741         estimate D2E/DX2                !
 ! D19   D(18,5,6,7)           179.9943         estimate D2E/DX2                !
 ! D20   D(18,5,6,19)           -0.626          estimate D2E/DX2                !
 ! D21   D(5,6,7,4)              0.3184         estimate D2E/DX2                !
 ! D22   D(5,6,7,8)            179.8448         estimate D2E/DX2                !
 ! D23   D(19,6,7,4)          -179.0703         estimate D2E/DX2                !
 ! D24   D(19,6,7,8)             0.4562         estimate D2E/DX2                !
 ! D25   D(4,7,8,9)             30.5775         estimate D2E/DX2                !
 ! D26   D(4,7,8,10)          -143.2371         estimate D2E/DX2                !
 ! D27   D(6,7,8,9)           -148.9351         estimate D2E/DX2                !
 ! D28   D(6,7,8,10)            37.2502         estimate D2E/DX2                !
 ! D29   D(7,8,9,20)           161.8182         estimate D2E/DX2                !
 ! D30   D(7,8,9,21)            41.611          estimate D2E/DX2                !
 ! D31   D(7,8,9,22)           -78.3839         estimate D2E/DX2                !
 ! D32   D(10,8,9,20)          -24.2666         estimate D2E/DX2                !
 ! D33   D(10,8,9,21)         -144.4738         estimate D2E/DX2                !
 ! D34   D(10,8,9,22)           95.5313         estimate D2E/DX2                !
 ! D35   D(7,8,10,11)         -146.2791         estimate D2E/DX2                !
 ! D36   D(7,8,10,15)           33.4994         estimate D2E/DX2                !
 ! D37   D(9,8,10,11)           39.9993         estimate D2E/DX2                !
 ! D38   D(9,8,10,15)         -140.2223         estimate D2E/DX2                !
 ! D39   D(8,10,11,12)         179.9652         estimate D2E/DX2                !
 ! D40   D(8,10,11,23)           2.17           estimate D2E/DX2                !
 ! D41   D(15,10,11,12)          0.1826         estimate D2E/DX2                !
 ! D42   D(15,10,11,23)       -177.6127         estimate D2E/DX2                !
 ! D43   D(8,10,15,14)         179.9601         estimate D2E/DX2                !
 ! D44   D(8,10,15,27)           0.8397         estimate D2E/DX2                !
 ! D45   D(11,10,15,14)         -0.2538         estimate D2E/DX2                !
 ! D46   D(11,10,15,27)       -179.3742         estimate D2E/DX2                !
 ! D47   D(10,11,12,13)          0.0176         estimate D2E/DX2                !
 ! D48   D(10,11,12,24)       -179.677          estimate D2E/DX2                !
 ! D49   D(23,11,12,13)        177.8045         estimate D2E/DX2                !
 ! D50   D(23,11,12,24)         -1.8902         estimate D2E/DX2                !
 ! D51   D(11,12,13,14)         -0.1525         estimate D2E/DX2                !
 ! D52   D(11,12,13,25)        179.9829         estimate D2E/DX2                !
 ! D53   D(24,12,13,14)        179.5423         estimate D2E/DX2                !
 ! D54   D(24,12,13,25)         -0.3223         estimate D2E/DX2                !
 ! D55   D(12,13,14,15)          0.0819         estimate D2E/DX2                !
 ! D56   D(12,13,14,26)        179.9697         estimate D2E/DX2                !
 ! D57   D(25,13,14,15)        179.9465         estimate D2E/DX2                !
 ! D58   D(25,13,14,26)         -0.1656         estimate D2E/DX2                !
 ! D59   D(13,14,15,10)          0.1244         estimate D2E/DX2                !
 ! D60   D(13,14,15,27)        179.2315         estimate D2E/DX2                !
 ! D61   D(26,14,15,10)       -179.7635         estimate D2E/DX2                !
 ! D62   D(26,14,15,27)         -0.6563         estimate D2E/DX2                !
 --------------------------------------------------------------------------------
 Trust Radius=3.00D-01 FncErr=1.00D-07 GrdErr=1.00D-06 EigMax=2.50D+02 EigMin=1.00D-04
 Number of steps in this run=    145 maximum allowed number of steps=    162.
 GradGradGradGradGradGradGradGradGradGradGradGradGradGradGradGradGradGrad

                          Input orientation:                          
 ---------------------------------------------------------------------
 Center     Atomic      Atomic             Coordinates (Angstroms)
 Number     Number       Type             X           Y           Z
 ---------------------------------------------------------------------
      1         17           0        4.566870   -0.728350    0.130200
      2          6           0        2.927650   -0.170240    0.040300
      3          6           0        2.577030    1.044400    0.604110
      4          6           0        1.274990    1.487420    0.536790
      5          6           0        1.967450   -0.939280   -0.593950
      6          6           0        0.665640   -0.497090   -0.661500
      7          6           0        0.295270    0.721920   -0.094800
      8          7           0       -1.064210    1.169880   -0.176640
      9          6           0       -1.319230    2.608890   -0.234540
     10          6           0       -2.158200    0.256480   -0.070930
     11          6           0       -3.344310    0.448650   -0.781160
     12          6           0       -4.386040   -0.444130   -0.665390
     13          6           0       -4.269260   -1.545960    0.159440
     14          6           0       -3.102190   -1.754150    0.867880
     15          6           0       -2.058180   -0.864840    0.753710
     16          1           0        3.335730    1.630210    1.094470
     17          1           0        1.002530    2.425700    0.986080
     18          1           0        2.255880   -1.880150   -1.030640
     19          1           0       -0.082540   -1.085140   -1.163350
     20          1           0       -2.318030    2.820260   -0.607220
     21          1           0       -0.598520    3.088860   -0.893940
     22          1           0       -1.231010    3.040720    0.760410
     23          1           0       -3.428890    1.284790   -1.452040
     24          1           0       -5.294110   -0.285770   -1.223870
     25          1           0       -5.086390   -2.242990    0.248340
     26          1           0       -3.009720   -2.613060    1.512200
     27          1           0       -1.151990   -1.016950    1.313480
 ---------------------------------------------------------------------
                    Distance matrix (angstroms):
                    1          2          3          4          5
     1  Cl   0.000000
     2  C    1.733958   0.000000
     3  C    2.706787   1.384257   0.000000
     4  C    3.988913   2.392828   1.376992   0.000000
     5  C    2.706634   1.384081   2.396231   2.765311   0.000000
     6  C    3.987464   2.390825   2.762494   2.396974   1.376519
     7  C    4.516688   2.782737   2.408090   1.394542   2.409341
     8  N    5.950335   4.216388   3.726117   2.466104   3.716674
     9  C    6.776163   5.082823   4.281566   2.929611   4.849840
    10  C    6.799773   5.104932   4.847566   3.697476   4.327168
    11  C    8.050011   6.355730   6.110332   4.914669   5.493286
    12  C    8.992683   7.352760   7.232682   6.101097   6.373156
    13  C    8.873924   7.328186   7.333443   6.331074   6.311276
    14  C    7.772446   6.289088   6.336797   5.456840   5.338746
    15  C    6.655725   5.084282   5.015252   4.085365   4.245872
    16  H    2.829899   2.125894   1.076686   2.139637   3.365298
    17  H    4.835812   3.367416   2.129070   1.075391   3.840658
    18  H    2.831054   2.126495   3.365789   3.841811   1.076627
    19  H    4.839172   3.368540   3.838251   3.369188   2.132592
    20  H    7.780634   6.072852   5.346271   3.999377   5.700847
    21  H    6.503938   4.891668   4.063015   2.849849   4.785406
    22  H    6.943952   5.303138   4.302429   2.956820   5.282503
    23  H    8.395737   6.689529   6.352686   5.111066   5.899431
    24  H    9.963348   8.319183   8.189366   7.028314   7.318069
    25  H    9.772079   8.280363   8.346347   7.380130   7.222588
    26  H    7.928857   6.586822   6.738948   6.010333   5.657705
    27  H    5.847119   4.356761   4.319486   3.572863   3.657216
                    6          7          8          9         10
     6  C    0.000000
     7  C    1.394385   0.000000
     8  N    2.450767   1.433720   0.000000
     9  C    3.710676   2.487327   1.462579   0.000000
    10  C    2.981730   2.497342   1.429087   2.502893   0.000000
    11  C    4.121704   3.713800   2.466672   3.011043   1.395784
    12  C    5.051959   4.857974   3.725380   4.348780   2.409877
    13  C    5.111488   5.103220   4.214390   5.110839   2.785397
    14  C    4.256260   4.312819   3.714073   4.840495   2.411455
    15  C    3.091481   2.962516   2.448186   3.686392   1.395490
    16  H    3.839038   3.388768   4.602944   4.938900   5.781744
    17  H    3.372049   2.138080   2.683359   2.629456   3.976556
    18  H    2.139622   3.389772   4.588572   5.793675   4.997032
    19  H    1.075839   2.133074   2.649979   4.004741   2.702164
    20  H    4.462067   3.390419   2.116889   1.086816   2.624142
    21  H    3.809352   2.653279   2.100921   1.088394   3.336514
    22  H    4.258545   2.904780   2.099030   1.088203   3.050049
    23  H    4.534890   4.003535   2.689156   2.772402   2.139986
    24  H    5.989953   5.790631   4.594308   5.015725   3.384854
    25  H    6.079624   6.153918   5.292090   6.161608   3.863105
    26  H    4.765561   4.962610   4.576879   5.760002   3.386096
    27  H    2.733968   2.664861   2.647714   3.946017   2.133231
                   11         12         13         14         15
    11  C    0.000000
    12  C    1.376830   0.000000
    13  C    2.391387   1.381308   0.000000
    14  C    2.762297   2.390678   1.381044   0.000000
    15  C    2.394830   2.758582   2.388714   1.376177   0.000000
    16  H    7.038253   8.186924   8.294469   7.276816   5.952786
    17  H    5.091845   6.324552   6.652006   5.859509   4.499955
    18  H    6.070229   6.805194   6.641192   5.685874   4.777643
    19  H    3.624600   4.379380   4.414833   3.700237   2.761667
    20  H    2.589988   3.864750   4.843443   4.869913   3.936955
    21  H    3.810878   5.184550   6.005456   5.729496   4.525163
    22  H    3.682567   4.912362   5.534416   5.148169   3.992199
    23  H    1.075344   2.126998   3.363961   3.837176   3.371215
    24  H    2.130043   1.077761   2.133528   3.366908   3.836325
    25  H    3.367438   2.135718   1.077708   2.135379   3.365227
    26  H    3.839989   3.367553   2.134269   1.077694   2.130025
    27  H    3.367754   3.834466   3.365863   2.131972   1.075946
                   16         17         18         19         20
    16  H    0.000000
    17  H    2.467463   0.000000
    18  H    4.243206   4.917153   0.000000
    19  H    4.914819   4.257161   2.473431   0.000000
    20  H    6.023037   3.704106   6.572198   4.534186   0.000000
    21  H    4.643249   2.556877   5.732133   4.214391   1.763822
    22  H    4.791268   2.327633   6.291361   4.694950   1.760860
    23  H    7.236305   5.184939   6.520049   4.110714   2.074946
    24  H    9.138918   7.203029   7.718921   5.272866   4.345657
    25  H    9.308583   7.708169   7.461660   5.326537   5.833721
    26  H    7.644905   6.462511   5.893194   4.249881   5.872933
    27  H    5.214888   4.074431   4.225351   2.698715   4.446675
                   21         22         23         24         25
    21  H    0.000000
    22  H    1.771789   0.000000
    23  H    3.402519   3.578953   0.000000
    24  H    5.791852   5.613527   2.449034   0.000000
    25  H    7.062181   6.560774   4.252509   2.457897   0.000000
    26  H    6.641934   5.974464   4.914840   4.256853   2.459035
    27  H    4.694327   4.095951   4.257979   4.912222   4.256431
                   26         27
    26  H    0.000000
    27  H    2.457278   0.000000
 Stoichiometry    C13H12ClN
 Framework group  C1[X(C13H12ClN)]
 Deg. of freedom    75
 Full point group                 C1      NOp   1
 Largest Abelian subgroup         C1      NOp   1
 Largest concise Abelian subgroup C1      NOp   1
                         Standard orientation:                         
 ---------------------------------------------------------------------
 Center     Atomic      Atomic             Coordinates (Angstroms)
 Number     Number       Type             X           Y           Z
 ---------------------------------------------------------------------
      1         17           0        4.647266   -0.855907   -0.072843
      2          6           0        3.018881   -0.260126   -0.068558
      3          6           0        2.712694    0.915686    0.594678
      4          6           0        1.419378    1.388324    0.602135
      5          6           0        2.022942   -0.960319   -0.726976
      6          6           0        0.729831   -0.488496   -0.719818
      7          6           0        0.404092    0.691849   -0.052744
      8          7           0       -0.946955    1.171641   -0.057554
      9          6           0       -1.171565    2.615741   -0.000428
     10          6           0       -2.057252    0.274847    0.015158
     11          6           0       -3.259886    0.543159   -0.640504
     12          6           0       -4.317196   -0.334870   -0.557911
     13          6           0       -4.199863   -1.497404    0.178811
     14          6           0       -3.016666   -1.781175    0.832112
     15          6           0       -1.957107   -0.906771    0.750784
     16          1           0        3.498818    1.447969    1.102550
     17          1           0        1.181662    2.295613    1.128236
     18          1           0        2.276943   -1.871450   -1.241223
     19          1           0       -0.046182   -1.022363   -1.239646
     20          1           0       -2.176310    2.874225   -0.324221
     21          1           0       -0.460789    3.129241   -0.645189
     22          1           0       -1.043492    2.970114    1.020455
     23          1           0       -3.346258    1.428646   -1.244505
     24          1           0       -5.238115   -0.117148   -1.073734
     25          1           0       -5.029199   -2.182730    0.241935
     26          1           0       -2.923726   -2.687534    1.407699
     27          1           0       -1.037887   -1.118320    1.268416
 ---------------------------------------------------------------------
 Rotational constants (GHZ):           1.3488504           0.2540628           0.2250585
 Standard basis: def2SVP (5D, 7F)
 There are   289 symmetry adapted cartesian basis functions of A   symmetry.
 There are   274 symmetry adapted basis functions of A   symmetry.
   274 basis functions,   471 primitive gaussians,   289 cartesian basis functions
    57 alpha electrons       57 beta electrons
       nuclear repulsion energy       992.4262911363 Hartrees.
 NAtoms=   27 NActive=   27 NUniq=   27 SFac= 1.00D+00 NAtFMM=   60 NAOKFM=F Big=F
 Integral buffers will be    131072 words long.
 Raffenetti 2 integral format.
 Two-electron integral symmetry is turned on.
 Nuclear repulsion after empirical dispersion term =      992.4084251945 Hartrees.
 One-electron integrals computed using PRISM.
   1 Symmetry operations used in ECPInt.
 ECPInt:  NShTT=    8256 NPrTT=   30622 LenC2=    7743 LenP2D=   20950.
 LDataN:  DoStor=T MaxTD1= 4 Len=   56
 NBasis=   274 RedAO= T EigKep=  2.27D-04  NBF=   274
 NBsUse=   274 1.00D-06 EigRej= -1.00D+00 NBFU=   274
 ExpMin= 1.22D-01 ExpMax= 1.04D+04 ExpMxC= 1.57D+03 IAcc=3 IRadAn=         5 AccDes= 0.00D+00
 Harris functional with IExCor= 4639 and IRadAn=       5 diagonalized for initial guess.
 HarFok:  IExCor= 4639 AccDes= 0.00D+00 IRadAn=         5 IDoV= 1 UseB2=F ITyADJ=14
 ICtDFT=  3500011 ScaDFX=  1.000000  1.000000  1.000000  1.000000
 FoFCou: FMM=F IPFlag=           0 FMFlag=      100000 FMFlg1=           0
         NFxFlg=           0 DoJE=T BraDBF=F KetDBF=T FulRan=T
         wScrn=  0.000000 ICntrl=       500 IOpCl=  0 I1Cent=   200000004 NGrid=           0
         NMat0=    1 NMatS0=      1 NMatT0=    0 NMatD0=    1 NMtDS0=    0 NMtDT0=    0
 Petite list used in FoFCou.
 Requested convergence on RMS density matrix=1.00D-08 within 128 cycles.
 Requested convergence on MAX density matrix=1.00D-06.
 Requested convergence on             energy=1.00D-06.
 No special actions if energy rises.
 Integral accuracy reduced to 1.0D-05 until final iterations.
 Initial convergence to 1.0D-05 achieved.  Increase integral accuracy.
 SCF Done:  E(RwB97XD) =  -1016.82243881     A.U. after   16 cycles
            NFock= 16  Conv=0.53D-08     -V/T= 2.0067

 **********************************************************************

            Population analysis using the SCF Density.

 **********************************************************************

 Orbital symmetries:
       Occupied  (A) (A) (A) (A) (A) (A) (A) (A) (A) (A) (A) (A)
                 (A) (A) (A) (A) (A) (A) (A) (A) (A) (A) (A) (A)
                 (A) (A) (A) (A) (A) (A) (A) (A) (A) (A) (A) (A)
                 (A) (A) (A) (A) (A) (A) (A) (A) (A) (A) (A) (A)
                 (A) (A) (A) (A) (A) (A) (A) (A) (A)
       Virtual   (A) (A) (A) (A) (A) (A) (A) (A) (A) (A) (A) (A)
                 (A) (A) (A) (A) (A) (A) (A) (A) (A) (A) (A) (A)
                 (A) (A) (A) (A) (A) (A) (A) (A) (A) (A) (A) (A)
                 (A) (A) (A) (A) (A) (A) (A) (A) (A) (A) (A) (A)
                 (A) (A) (A) (A) (A) (A) (A) (A) (A) (A) (A) (A)
                 (A) (A) (A) (A) (A) (A) (A) (A) (A) (A) (A) (A)
                 (A) (A) (A) (A) (A) (A) (A) (A) (A) (A) (A) (A)
                 (A) (A) (A) (A) (A) (A) (A) (A) (A) (A) (A) (A)
                 (A) (A) (A) (A) (A) (A) (A) (A) (A) (A) (A) (A)
                 (A) (A) (A) (A) (A) (A) (A) (A) (A) (A) (A) (A)
                 (A) (A) (A) (A) (A) (A) (A) (A) (A) (A) (A) (A)
                 (A) (A) (A) (A) (A) (A) (A) (A) (A) (A) (A) (A)
                 (A) (A) (A) (A) (A) (A) (A) (A) (A) (A) (A) (A)
                 (A) (A) (A) (A) (A) (A) (A) (A) (A) (A) (A) (A)
                 (A) (A) (A) (A) (A) (A) (A) (A) (A) (A) (A) (A)
                 (A) (A) (A) (A) (A) (A) (A) (A) (A) (A) (A) (A)
                 (A) (A) (A) (A) (A) (A) (A) (A) (A) (A) (A) (A)
                 (A) (A) (A) (A) (A) (A) (A) (A) (A) (A) (A) (A)
                 (A)
 The electronic state is 1-A.
 Alpha  occ. eigenvalues -- -101.67137 -14.47049 -10.35011 -10.34880 -10.34485
 Alpha  occ. eigenvalues --  -10.33519 -10.31096 -10.31012 -10.30689 -10.30472
 Alpha  occ. eigenvalues --  -10.30129 -10.30014 -10.29895 -10.29588 -10.29355
 Alpha  occ. eigenvalues --   -9.57946  -7.33327  -7.32351  -7.32335  -1.04748
 Alpha  occ. eigenvalues --   -0.98852  -0.95417  -0.92798  -0.85960  -0.84839
 Alpha  occ. eigenvalues --   -0.84426  -0.82820  -0.77273  -0.71777  -0.70887
 Alpha  occ. eigenvalues --   -0.69795  -0.67007  -0.63657  -0.60684  -0.57914
 Alpha  occ. eigenvalues --   -0.56520  -0.56285  -0.54327  -0.53822  -0.52860
 Alpha  occ. eigenvalues --   -0.52270  -0.51881  -0.51141  -0.48942  -0.48433
 Alpha  occ. eigenvalues --   -0.46783  -0.46496  -0.44941  -0.43925  -0.42890
 Alpha  occ. eigenvalues --   -0.42431  -0.38816  -0.37680  -0.34769  -0.33670
 Alpha  occ. eigenvalues --   -0.33114  -0.26514
 Alpha virt. eigenvalues --    0.04550   0.04883   0.06682   0.08154   0.12122
 Alpha virt. eigenvalues --    0.13976   0.15724   0.17629   0.18372   0.18820
 Alpha virt. eigenvalues --    0.19876   0.20706   0.21236   0.21838   0.22679
 Alpha virt. eigenvalues --    0.23217   0.23808   0.24360   0.25485   0.27390
 Alpha virt. eigenvalues --    0.30919   0.33093   0.35064   0.36156   0.36388
 Alpha virt. eigenvalues --    0.37434   0.39157   0.40147   0.40555   0.42104
 Alpha virt. eigenvalues --    0.42390   0.44269   0.45847   0.47552   0.48460
 Alpha virt. eigenvalues --    0.49000   0.50227   0.51152   0.53100   0.53265
 Alpha virt. eigenvalues --    0.54394   0.54772   0.56221   0.56625   0.56905
 Alpha virt. eigenvalues --    0.57652   0.58301   0.59307   0.60518   0.62026
 Alpha virt. eigenvalues --    0.62819   0.64122   0.64601   0.66087   0.66503
 Alpha virt. eigenvalues --    0.67755   0.69141   0.69517   0.71661   0.72261
 Alpha virt. eigenvalues --    0.72990   0.73324   0.73601   0.74247   0.74601
 Alpha virt. eigenvalues --    0.75537   0.75991   0.76382   0.76723   0.77947
 Alpha virt. eigenvalues --    0.78601   0.80234   0.80803   0.81611   0.82380
 Alpha virt. eigenvalues --    0.82748   0.84322   0.85029   0.86424   0.87050
 Alpha virt. eigenvalues --    0.87506   0.88363   0.89845   0.90094   0.90918
 Alpha virt. eigenvalues --    0.92334   0.92768   0.94608   0.95368   0.98070
 Alpha virt. eigenvalues --    0.99267   1.02304   1.03101   1.04062   1.05416
 Alpha virt. eigenvalues --    1.09916   1.13378   1.16057   1.17146   1.17553
 Alpha virt. eigenvalues --    1.19900   1.25060   1.27460   1.29472   1.31874
 Alpha virt. eigenvalues --    1.32134   1.32489   1.33235   1.34402   1.34981
 Alpha virt. eigenvalues --    1.36118   1.37343   1.37563   1.38910   1.39978
 Alpha virt. eigenvalues --    1.40964   1.43824   1.45640   1.47017   1.56770
 Alpha virt. eigenvalues --    1.58508   1.59222   1.61500   1.63449   1.68131
 Alpha virt. eigenvalues --    1.70574   1.75989   1.77227   1.78481   1.78789
 Alpha virt. eigenvalues --    1.80070   1.81240   1.81926   1.82904   1.83811
 Alpha virt. eigenvalues --    1.84457   1.85251   1.85919   1.86719   1.87513
 Alpha virt. eigenvalues --    1.88664   1.89289   1.90066   1.91128   1.91166
 Alpha virt. eigenvalues --    1.92698   1.94481   1.95367   1.97650   1.99080
 Alpha virt. eigenvalues --    2.01315   2.01945   2.04108   2.04851   2.07039
 Alpha virt. eigenvalues --    2.07620   2.08626   2.10366   2.12311   2.15617
 Alpha virt. eigenvalues --    2.16811   2.17156   2.20595   2.22964   2.23250
 Alpha virt. eigenvalues --    2.24323   2.26378   2.26936   2.28194   2.28644
 Alpha virt. eigenvalues --    2.32086   2.33681   2.36682   2.38125   2.38434
 Alpha virt. eigenvalues --    2.39651   2.40831   2.43449   2.44917   2.45479
 Alpha virt. eigenvalues --    2.45976   2.47554   2.48629   2.53190   2.56476
 Alpha virt. eigenvalues --    2.61497   2.65217   2.69473   2.70470   2.71595
 Alpha virt. eigenvalues --    2.72682   2.74019   2.75126   2.76209   2.77098
 Alpha virt. eigenvalues --    2.83225   2.84582   2.85050   2.86490   2.91628
 Alpha virt. eigenvalues --    2.93564   2.96308   2.99674   3.00123   3.00614
 Alpha virt. eigenvalues --    3.03989   3.04731   3.06840   3.07953   3.19356
 Alpha virt. eigenvalues --    3.21766   3.27733   3.28474   3.37752   3.45343
 Alpha virt. eigenvalues --    3.71528   3.79216
          Condensed to atoms (all electrons):
               1          2          3          4          5          6
     1  Cl  16.981505   0.221975  -0.052470   0.003230  -0.052349   0.003160
     2  C    0.221975   5.282965   0.282521   0.102130   0.269640   0.105503
     3  C   -0.052470   0.282521   5.025868   0.267503   0.095404  -0.142960
     4  C    0.003230   0.102130   0.267503   5.165115  -0.140657   0.064265
     5  C   -0.052349   0.269640   0.095404  -0.140657   5.031798   0.274483
     6  C    0.003160   0.105503  -0.142960   0.064265   0.274483   5.151484
     7  C    0.000941  -0.186340   0.118771   0.254228   0.122592   0.260326
     8  N    0.000001  -0.000149   0.007783  -0.081553   0.008397  -0.077655
     9  C   -0.000000   0.000094   0.000139   0.004128  -0.000224   0.005650
    10  C   -0.000000   0.000004  -0.000020   0.005728  -0.000193  -0.006200
    11  C    0.000000   0.000001   0.000002  -0.000505  -0.000057   0.000654
    12  C   -0.000000  -0.000000  -0.000000   0.000000   0.000005   0.000041
    13  C   -0.000000   0.000000  -0.000000   0.000001  -0.000004   0.000009
    14  C    0.000000  -0.000002   0.000003  -0.000068   0.000033  -0.001143
    15  C    0.000000   0.000058  -0.000055   0.000768  -0.001443  -0.005115
    16  H    0.001437  -0.073363   0.445680  -0.056975   0.014785  -0.002190
    17  H   -0.000129   0.016620  -0.070991   0.461773  -0.002842   0.016519
    18  H    0.001332  -0.075155   0.014850  -0.002199   0.447698  -0.057313
    19  H   -0.000117   0.015770  -0.002701   0.015881  -0.069201   0.461394
    20  H   -0.000000   0.000003  -0.000024   0.000581  -0.000001  -0.000070
    21  H    0.000000  -0.000082   0.000688   0.003272  -0.000130   0.000711
    22  H    0.000000  -0.000041   0.000457   0.002676   0.000077  -0.000841
    23  H    0.000000   0.000000  -0.000000   0.000001   0.000001  -0.000036
    24  H    0.000000   0.000000   0.000000  -0.000000  -0.000000  -0.000001
    25  H    0.000000  -0.000000   0.000000   0.000000   0.000000  -0.000000
    26  H    0.000000  -0.000000  -0.000000   0.000001   0.000003   0.000041
    27  H    0.000001   0.000114  -0.000020  -0.000758  -0.001049   0.003097
               7          8          9         10         11         12
     1  Cl   0.000941   0.000001  -0.000000  -0.000000   0.000000  -0.000000
     2  C   -0.186340  -0.000149   0.000094   0.000004   0.000001  -0.000000
     3  C    0.118771   0.007783   0.000139  -0.000020   0.000002  -0.000000
     4  C    0.254228  -0.081553   0.004128   0.005728  -0.000505   0.000000
     5  C    0.122592   0.008397  -0.000224  -0.000193  -0.000057   0.000005
     6  C    0.260326  -0.077655   0.005650  -0.006200   0.000654   0.000041
     7  C    5.134516   0.320590  -0.053545  -0.047031   0.005612  -0.000204
     8  N    0.320590   6.821824   0.338446   0.308780  -0.076870   0.007548
     9  C   -0.053545   0.338446   4.433772  -0.045138  -0.008378   0.000887
    10  C   -0.047031   0.308780  -0.045138   5.094190   0.275775   0.110972
    11  C    0.005612  -0.076870  -0.008378   0.275775   5.167211   0.296963
    12  C   -0.000204   0.007548   0.000887   0.110972   0.296963   5.022116
    13  C    0.000061  -0.000433  -0.000034  -0.163047   0.082546   0.287846
    14  C   -0.000329   0.009352  -0.000122   0.117488  -0.148358   0.097500
    15  C   -0.003509  -0.080702   0.004257   0.282075   0.058245  -0.147011
    16  H    0.014915  -0.000115  -0.000016   0.000007  -0.000000   0.000000
    17  H   -0.076787  -0.015030   0.009674  -0.000175  -0.000000   0.000000
    18  H    0.015014  -0.000122   0.000005  -0.000006   0.000000  -0.000000
    19  H   -0.069121  -0.013407  -0.000032   0.006012  -0.000813  -0.000005
    20  H    0.005721  -0.018417   0.401694  -0.010950   0.003263   0.000483
    21  H   -0.004832  -0.025453   0.400349   0.004070   0.000752  -0.000037
    22  H   -0.009497  -0.038265   0.404464   0.004067   0.000118  -0.000007
    23  H   -0.000254  -0.009916  -0.001387  -0.074004   0.451985  -0.063290
    24  H    0.000007  -0.000129  -0.000010   0.015307  -0.065592   0.450293
    25  H    0.000001   0.000009   0.000000  -0.001606   0.014656  -0.069886
    26  H   -0.000024  -0.000125   0.000005   0.015209  -0.002111   0.014312
    27  H    0.005802  -0.014928  -0.000150  -0.067027   0.016060  -0.002441
              13         14         15         16         17         18
     1  Cl  -0.000000   0.000000   0.000000   0.001437  -0.000129   0.001332
     2  C    0.000000  -0.000002   0.000058  -0.073363   0.016620  -0.075155
     3  C   -0.000000   0.000003  -0.000055   0.445680  -0.070991   0.014850
     4  C    0.000001  -0.000068   0.000768  -0.056975   0.461773  -0.002199
     5  C   -0.000004   0.000033  -0.001443   0.014785  -0.002842   0.447698
     6  C    0.000009  -0.001143  -0.005115  -0.002190   0.016519  -0.057313
     7  C    0.000061  -0.000329  -0.003509   0.014915  -0.076787   0.015014
     8  N   -0.000433   0.009352  -0.080702  -0.000115  -0.015030  -0.000122
     9  C   -0.000034  -0.000122   0.004257  -0.000016   0.009674   0.000005
    10  C   -0.163047   0.117488   0.282075   0.000007  -0.000175  -0.000006
    11  C    0.082546  -0.148358   0.058245  -0.000000  -0.000000   0.000000
    12  C    0.287846   0.097500  -0.147011   0.000000   0.000000  -0.000000
    13  C    5.101718   0.277908   0.085938   0.000000   0.000000  -0.000000
    14  C    0.277908   5.060355   0.270173  -0.000000  -0.000000   0.000001
    15  C    0.085938   0.270173   5.167284  -0.000001  -0.000019   0.000032
    16  H    0.000000  -0.000000  -0.000001   0.658338  -0.013317  -0.000298
    17  H    0.000000  -0.000000  -0.000019  -0.013317   0.679065   0.000025
    18  H   -0.000000   0.000001   0.000032  -0.000298   0.000025   0.656568
    19  H    0.000069  -0.000725   0.002515   0.000022  -0.000200  -0.012605
    20  H   -0.000046   0.000044  -0.000023  -0.000001  -0.000005  -0.000000
    21  H    0.000001   0.000020  -0.000436  -0.000006  -0.001173   0.000001
    22  H   -0.000006  -0.000082   0.001197   0.000025  -0.000780  -0.000000
    23  H    0.015052  -0.002523   0.016081  -0.000000  -0.000002  -0.000000
    24  H   -0.070485   0.014066  -0.001970  -0.000000  -0.000000   0.000000
    25  H    0.453110  -0.069699   0.014837   0.000000   0.000000   0.000000
    26  H   -0.071991   0.453519  -0.067262   0.000000   0.000000  -0.000000
    27  H    0.014768  -0.071061   0.459036  -0.000004  -0.000023  -0.000003
              19         20         21         22         23         24
     1  Cl  -0.000117  -0.000000   0.000000   0.000000   0.000000   0.000000
     2  C    0.015770   0.000003  -0.000082  -0.000041   0.000000   0.000000
     3  C   -0.002701  -0.000024   0.000688   0.000457  -0.000000   0.000000
     4  C    0.015881   0.000581   0.003272   0.002676   0.000001  -0.000000
     5  C   -0.069201  -0.000001  -0.000130   0.000077   0.000001  -0.000000
     6  C    0.461394  -0.000070   0.000711  -0.000841  -0.000036  -0.000001
     7  C   -0.069121   0.005721  -0.004832  -0.009497  -0.000254   0.000007
     8  N   -0.013407  -0.018417  -0.025453  -0.038265  -0.009916  -0.000129
     9  C   -0.000032   0.401694   0.400349   0.404464  -0.001387  -0.000010
    10  C    0.006012  -0.010950   0.004070   0.004067  -0.074004   0.015307
    11  C   -0.000813   0.003263   0.000752   0.000118   0.451985  -0.065592
    12  C   -0.000005   0.000483  -0.000037  -0.000007  -0.063290   0.450293
    13  C    0.000069  -0.000046   0.000001  -0.000006   0.015052  -0.070485
    14  C   -0.000725   0.000044   0.000020  -0.000082  -0.002523   0.014066
    15  C    0.002515  -0.000023  -0.000436   0.001197   0.016081  -0.001970
    16  H    0.000022  -0.000001  -0.000006   0.000025  -0.000000  -0.000000
    17  H   -0.000200  -0.000005  -0.001173  -0.000780  -0.000002  -0.000000
    18  H   -0.012605  -0.000000   0.000001  -0.000000  -0.000000   0.000000
    19  H    0.645126  -0.000015  -0.000002  -0.000011   0.000001  -0.000004
    20  H   -0.000015   0.607669  -0.014082  -0.026264   0.000831   0.000062
    21  H   -0.000002  -0.014082   0.627440  -0.037010  -0.000446   0.000000
    22  H   -0.000011  -0.026264  -0.037010   0.660659   0.000353  -0.000003
    23  H    0.000001   0.000831  -0.000446   0.000353   0.683179  -0.013567
    24  H   -0.000004   0.000062   0.000000  -0.000003  -0.013567   0.673156
    25  H    0.000000  -0.000001   0.000000  -0.000000  -0.000239  -0.012315
    26  H    0.000011  -0.000000  -0.000000   0.000001   0.000026  -0.000265
    27  H   -0.001734  -0.000041  -0.000012   0.000077  -0.000182   0.000020
              25         26         27
     1  Cl   0.000000   0.000000   0.000001
     2  C   -0.000000  -0.000000   0.000114
     3  C    0.000000  -0.000000  -0.000020
     4  C    0.000000   0.000001  -0.000758
     5  C    0.000000   0.000003  -0.001049
     6  C   -0.000000   0.000041   0.003097
     7  C    0.000001  -0.000024   0.005802
     8  N    0.000009  -0.000125  -0.014928
     9  C    0.000000   0.000005  -0.000150
    10  C   -0.001606   0.015209  -0.067027
    11  C    0.014656  -0.002111   0.016060
    12  C   -0.069886   0.014312  -0.002441
    13  C    0.453110  -0.071991   0.014768
    14  C   -0.069699   0.453519  -0.071061
    15  C    0.014837  -0.067262   0.459036
    16  H    0.000000   0.000000  -0.000004
    17  H    0.000000   0.000000  -0.000023
    18  H    0.000000  -0.000000  -0.000003
    19  H    0.000000   0.000011  -0.001734
    20  H   -0.000001  -0.000000  -0.000041
    21  H    0.000000  -0.000000  -0.000012
    22  H   -0.000000   0.000001   0.000077
    23  H   -0.000239   0.000026  -0.000182
    24  H   -0.012315  -0.000265   0.000020
    25  H    0.674438  -0.012319  -0.000231
    26  H   -0.012319   0.670428  -0.012594
    27  H   -0.000231  -0.012594   0.657204
 Mulliken charges:
               1
     1  Cl  -0.108516
     2  C    0.037732
     3  C    0.009572
     4  C   -0.068567
     5  C    0.003238
     6  C   -0.053811
     7  C    0.192376
     8  N   -0.369461
     9  C    0.105473
    10  C    0.175713
    11  C   -0.071162
    12  C   -0.006085
    13  C   -0.012983
    14  C   -0.006350
    15  C   -0.054952
    16  H    0.011076
    17  H   -0.002203
    18  H    0.012176
    19  H    0.023890
    20  H    0.049588
    21  H    0.046397
    22  H    0.038634
    23  H   -0.001663
    24  H    0.011428
    25  H    0.009244
    26  H    0.013136
    27  H    0.016080
 Sum of Mulliken charges =  -0.00000
 Mulliken charges with hydrogens summed into heavy atoms:
               1
     1  Cl  -0.108516
     2  C    0.037732
     3  C    0.020648
     4  C   -0.070770
     5  C    0.015414
     6  C   -0.029920
     7  C    0.192376
     8  N   -0.369461
     9  C    0.240091
    10  C    0.175713
    11  C   -0.072825
    12  C    0.005342
    13  C   -0.003739
    14  C    0.006786
    15  C   -0.038872
 Electronic spatial extent (au):  <R**2>=           4581.4555
 Charge=             -0.0000 electrons
 Dipole moment (field-independent basis, Debye):
    X=             -2.0035    Y=              1.3726    Z=              0.0215  Tot=              2.4287
 Quadrupole moment (field-independent basis, Debye-Ang):
   XX=            -98.2844   YY=            -85.8643   ZZ=            -95.3048
   XY=              1.4537   XZ=              3.2384   YZ=              0.4740
 Traceless Quadrupole moment (field-independent basis, Debye-Ang):
   XX=             -5.1332   YY=              7.2869   ZZ=             -2.1537
   XY=              1.4537   XZ=              3.2384   YZ=              0.4740
 Octapole moment (field-independent basis, Debye-Ang**2):
  XXX=            -36.8670  YYY=              8.7740  ZZZ=             -0.4143  XYY=             -2.0247
  XXY=              4.7232  XXZ=             -8.1619  XZZ=              9.8931  YZZ=             -0.4534
  YYZ=              4.2334  XYZ=             14.2262
 Hexadecapole moment (field-independent basis, Debye-Ang**3):
 XXXX=          -4871.2511 YYYY=           -927.2532 ZZZZ=           -283.6560 XXXY=             46.8743
 XXXZ=             92.6449 YYYX=            -23.4652 YYYZ=             -5.2168 ZZZX=              4.6234
 ZZZY=              1.7767 XXYY=           -932.6216 XXZZ=           -878.3879 YYZZ=           -195.9125
 XXYZ=             -8.6722 YYXZ=             -8.4390 ZZXY=            -11.2601
 N-N= 9.924084251945D+02 E-N=-4.367217546131D+03  KE= 1.010064773768D+03
   1 Symmetry operations used in ECPInt.
 ECPInt:  NShTT=    8256 NPrTT=   30622 LenC2=    7743 LenP2D=   20950.
 LDataN:  DoStor=T MaxTD1= 5 Len=  102
 Calling FoFJK, ICntrl=      2127 FMM=F ISym2X=0 I1Cent= 0 IOpClX= 0 NMat=1 NMatS=1 NMatT=0.
 ***** Axes restored to original set *****
 -------------------------------------------------------------------
 Center     Atomic                   Forces (Hartrees/Bohr)
 Number     Number              X              Y              Z
 -------------------------------------------------------------------
      1       17           0.004831074   -0.001620520    0.000199410
      2        6           0.002896071    0.001136076    0.001735003
      3        6           0.007706817   -0.002447013   -0.001243569
      4        6          -0.009389909    0.000257843   -0.003044327
      5        6           0.002905327   -0.002618888    0.000559145
      6        6          -0.002036049    0.003208714   -0.000354922
      7        6          -0.030564729    0.007529278    0.001156155
      8        7           0.004445813   -0.006529855   -0.005386281
      9        6           0.005873069   -0.018824661    0.004000778
     10        6           0.018273098    0.011292521   -0.001775259
     11        6           0.008859322    0.004537788   -0.000707184
     12        6          -0.002478805   -0.001801870    0.002026976
     13        6          -0.006228925   -0.004442430    0.000091022
     14        6          -0.001119628   -0.001672786   -0.001231663
     15        6           0.004253872    0.005841744    0.001170923
     16        1           0.006459863    0.006745232    0.005230018
     17        1          -0.001024517    0.009885572    0.005292038
     18        1           0.001482187   -0.009328702   -0.005112031
     19        1          -0.006545382   -0.007161372   -0.005421045
     20        1          -0.005336684   -0.000497127   -0.001896550
     21        1           0.004899593    0.003780335   -0.004782104
     22        1          -0.000409756    0.008527339    0.008781450
     23        1          -0.001980443    0.009097241   -0.007237766
     24        1          -0.008380558    0.002089054   -0.005847835
     25        1          -0.007954918   -0.006671511    0.000798944
     26        1           0.001500148   -0.007962628    0.006632511
     27        1           0.009064047   -0.002349373    0.006366165
 -------------------------------------------------------------------
 Cartesian Forces:  Max     0.030564729 RMS     0.006790551

 GradGradGradGradGradGradGradGradGradGradGradGradGradGradGradGradGradGrad
 Berny optimization.
 FormGI is forming the generalized inverse of G from B-inverse, IUseBI=4.
 Internal  Forces:  Max     0.023880019 RMS     0.005549692
 Search for a local minimum.
 Step number   1 out of a maximum of  145
 All quantities printed in internal units (Hartrees-Bohrs-Radians)
 Mixed Optimization -- RFO/linear search
 Second derivative matrix not updated -- first step.
 ITU=  0
     Eigenvalues ---    0.00864   0.01125   0.01246   0.01307   0.01884
     Eigenvalues ---    0.01893   0.02176   0.02186   0.02261   0.02265
     Eigenvalues ---    0.02284   0.02284   0.02298   0.02324   0.02328
     Eigenvalues ---    0.02334   0.02338   0.02352   0.02355   0.02358
     Eigenvalues ---    0.02369   0.02376   0.07331   0.07471   0.15989
     Eigenvalues ---    0.15998   0.15998   0.15999   0.16000   0.16000
     Eigenvalues ---    0.16000   0.16000   0.16000   0.16000   0.16000
     Eigenvalues ---    0.16000   0.22000   0.22000   0.22001   0.22968
     Eigenvalues ---    0.23467   0.24000   0.24875   0.24913   0.24999
     Eigenvalues ---    0.25000   0.25000   0.32095   0.34999   0.35021
     Eigenvalues ---    0.35183   0.36266   0.36273   0.36274   0.36398
     Eigenvalues ---    0.36405   0.36489   0.36502   0.36557   0.36563
     Eigenvalues ---    0.36643   0.40459   0.41121   0.42985   0.43143
     Eigenvalues ---    0.43709   0.43732   0.47258   0.47266   0.47597
     Eigenvalues ---    0.47894   0.48730   0.49097   0.49701   0.49749
 RFO step:  Lambda=-1.07302642D-02 EMin= 8.63979922D-03
 Linear search not attempted -- first point.
 Iteration  1 RMS(Cart)=  0.04155532 RMS(Int)=  0.00034711
 Iteration  2 RMS(Cart)=  0.00074612 RMS(Int)=  0.00009482
 Iteration  3 RMS(Cart)=  0.00000029 RMS(Int)=  0.00009482
 Variable       Old X    -DE/DX   Delta X   Delta X   Delta X     New X
                                 (Linear)    (Quad)   (Total)
    R1        3.27671   0.00510   0.00000   0.01537   0.01537   3.29208
    R2        2.61587   0.00858   0.00000   0.01754   0.01753   2.63339
    R3        2.61553   0.01164   0.00000   0.02372   0.02370   2.63923
    R4        2.60214   0.01513   0.00000   0.02983   0.02983   2.63197
    R5        2.03464   0.01060   0.00000   0.02830   0.02830   2.06294
    R6        2.63530   0.00780   0.00000   0.01622   0.01623   2.65154
    R7        2.03219   0.01110   0.00000   0.02949   0.02949   2.06168
    R8        2.60124   0.01240   0.00000   0.02440   0.02440   2.62564
    R9        2.03453   0.01062   0.00000   0.02834   0.02834   2.06287
   R10        2.63500   0.01011   0.00000   0.02104   0.02106   2.65606
   R11        2.03304   0.01099   0.00000   0.02926   0.02926   2.06230
   R12        2.70934  -0.02388   0.00000  -0.05750  -0.05750   2.65184
   R13        2.76387  -0.00802   0.00000  -0.02126  -0.02126   2.74261
   R14        2.70058  -0.01563   0.00000  -0.03705  -0.03705   2.66354
   R15        2.05378   0.00546   0.00000   0.01506   0.01506   2.06884
   R16        2.05677   0.00781   0.00000   0.02165   0.02165   2.07842
   R17        2.05641   0.01138   0.00000   0.03152   0.03152   2.08793
   R18        2.63765   0.00754   0.00000   0.01534   0.01533   2.65298
   R19        2.63709   0.00943   0.00000   0.01937   0.01936   2.65646
   R20        2.60183   0.01635   0.00000   0.03213   0.03214   2.63397
   R21        2.03210   0.01174   0.00000   0.03120   0.03120   2.06331
   R22        2.61029   0.01254   0.00000   0.02559   0.02560   2.63589
   R23        2.03667   0.01040   0.00000   0.02785   0.02785   2.06452
   R24        2.60980   0.01377   0.00000   0.02810   0.02810   2.63790
   R25        2.03657   0.01041   0.00000   0.02788   0.02788   2.06446
   R26        2.60060   0.01579   0.00000   0.03112   0.03111   2.63171
   R27        2.03655   0.01044   0.00000   0.02796   0.02796   2.06450
   R28        2.03324   0.01128   0.00000   0.03003   0.03003   2.06327
    A1        2.09528  -0.00037   0.00000  -0.00179  -0.00179   2.09349
    A2        2.09527  -0.00040   0.00000  -0.00191  -0.00191   2.09336
    A3        2.09263   0.00076   0.00000   0.00371   0.00368   2.09631
    A4        2.09659  -0.00104   0.00000  -0.00399  -0.00400   2.09259
    A5        2.07651   0.00201   0.00000   0.01069   0.01068   2.08719
    A6        2.11008  -0.00097   0.00000  -0.00672  -0.00672   2.10336
    A7        2.10579   0.00032   0.00000   0.00117   0.00119   2.10698
    A8        2.09423  -0.00209   0.00000  -0.01189  -0.01191   2.08231
    A9        2.08307   0.00178   0.00000   0.01082   0.01080   2.09387
   A10        2.09450  -0.00057   0.00000  -0.00200  -0.00203   2.09247
   A11        2.07783   0.00184   0.00000   0.01011   0.01008   2.08791
   A12        2.11086  -0.00127   0.00000  -0.00813  -0.00816   2.10270
   A13        2.10841  -0.00015   0.00000  -0.00091  -0.00088   2.10753
   A14        2.10018  -0.00157   0.00000  -0.00918  -0.00919   2.09098
   A15        2.07455   0.00172   0.00000   0.01013   0.01011   2.08466
   A16        2.06843   0.00068   0.00000   0.00196   0.00183   2.07026
   A17        2.11824  -0.00353   0.00000  -0.01335  -0.01353   2.10471
   A18        2.09649   0.00285   0.00000   0.01113   0.01092   2.10741
   A19        2.06577  -0.00242   0.00000  -0.01025  -0.01039   2.05538
   A20        2.11994   0.00018   0.00000  -0.00028  -0.00044   2.11950
   A21        2.09243   0.00218   0.00000   0.00747   0.00730   2.09973
   A22        1.94461  -0.00389   0.00000  -0.02626  -0.02623   1.91838
   A23        1.92027  -0.00005   0.00000  -0.00070  -0.00099   1.91929
   A24        1.91782   0.00726   0.00000   0.04639   0.04635   1.96417
   A25        1.89129   0.00046   0.00000  -0.00467  -0.00487   1.88642
   A26        1.88688  -0.00170   0.00000  -0.00926  -0.00900   1.87788
   A27        1.90207  -0.00221   0.00000  -0.00609  -0.00643   1.89565
   A28        2.12338  -0.00358   0.00000  -0.01274  -0.01278   2.11060
   A29        2.09719   0.00184   0.00000   0.00801   0.00797   2.10516
   A30        2.06261   0.00174   0.00000   0.00478   0.00471   2.06732
   A31        2.10702  -0.00034   0.00000  -0.00265  -0.00268   2.10434
   A32        2.08443   0.00116   0.00000   0.00729   0.00727   2.09170
   A33        2.09110  -0.00080   0.00000  -0.00419  -0.00422   2.08688
   A34        2.09842   0.00156   0.00000   0.00770   0.00769   2.10611
   A35        2.09282  -0.00159   0.00000  -0.00861  -0.00862   2.08420
   A36        2.09193   0.00003   0.00000   0.00086   0.00085   2.09278
   A37        2.09210  -0.00372   0.00000  -0.01382  -0.01381   2.07829
   A38        2.09563   0.00176   0.00000   0.00630   0.00629   2.10192
   A39        2.09546   0.00197   0.00000   0.00752   0.00752   2.10298
   A40        2.09569   0.00177   0.00000   0.00912   0.00908   2.10477
   A41        2.09364  -0.00011   0.00000  -0.00004  -0.00006   2.09358
   A42        2.09386  -0.00166   0.00000  -0.00910  -0.00913   2.08473
   A43        2.11053  -0.00100   0.00000  -0.00508  -0.00511   2.10542
   A44        2.07305   0.00151   0.00000   0.00851   0.00851   2.08156
   A45        2.09951  -0.00051   0.00000  -0.00334  -0.00333   2.09617
    D1       -3.13851   0.00011   0.00000   0.00304   0.00303  -3.13549
    D2        0.00055  -0.00015   0.00000  -0.00445  -0.00453  -0.00398
    D3        0.00177   0.00037   0.00000   0.01118   0.01118   0.01294
    D4        3.14083   0.00010   0.00000   0.00369   0.00362  -3.13873
    D5        3.13840   0.00031   0.00000   0.00914   0.00916  -3.13563
    D6       -0.00490  -0.00016   0.00000  -0.00484  -0.00494  -0.00984
    D7       -0.00188   0.00005   0.00000   0.00100   0.00101  -0.00087
    D8        3.13800  -0.00042   0.00000  -0.01299  -0.01309   3.12492
    D9        0.00207  -0.00034   0.00000  -0.00920  -0.00922  -0.00716
   D10        3.12846  -0.00007   0.00000  -0.00171  -0.00182   3.12665
   D11       -3.13695  -0.00008   0.00000  -0.00159  -0.00162  -3.13857
   D12       -0.01055   0.00020   0.00000   0.00590   0.00579  -0.00477
   D13       -0.00566  -0.00010   0.00000  -0.00480  -0.00478  -0.01044
   D14       -3.13888   0.00092   0.00000   0.03001   0.02980  -3.10909
   D15       -3.13216  -0.00034   0.00000  -0.01204  -0.01204   3.13899
   D16        0.01781   0.00068   0.00000   0.02277   0.02254   0.04035
   D17       -0.00184  -0.00050   0.00000  -0.01527  -0.01530  -0.01714
   D18        3.12892  -0.00033   0.00000  -0.01023  -0.01032   3.11860
   D19        3.14149  -0.00002   0.00000  -0.00104  -0.00111   3.14039
   D20       -0.01093   0.00015   0.00000   0.00400   0.00387  -0.00705
   D21        0.00556   0.00052   0.00000   0.01706   0.01708   0.02264
   D22        3.13888  -0.00051   0.00000  -0.01743  -0.01767   3.12121
   D23       -3.12537   0.00037   0.00000   0.01221   0.01224  -3.11313
   D24        0.00796  -0.00066   0.00000  -0.02227  -0.02251  -0.01455
   D25        0.53368  -0.00128   0.00000  -0.05400  -0.05389   0.47979
   D26       -2.49996  -0.00070   0.00000  -0.02185  -0.02191  -2.52187
   D27       -2.59941  -0.00024   0.00000  -0.01859  -0.01853  -2.61794
   D28        0.65014   0.00034   0.00000   0.01356   0.01345   0.66359
   D29        2.82426  -0.00039   0.00000   0.00610   0.00628   2.83054
   D30        0.72625   0.00158   0.00000   0.02950   0.02954   0.75579
   D31       -1.36806  -0.00023   0.00000   0.00826   0.00802  -1.36003
   D32       -0.42353  -0.00109   0.00000  -0.02599  -0.02580  -0.44933
   D33       -2.52154   0.00089   0.00000  -0.00260  -0.00254  -2.52409
   D34        1.66734  -0.00093   0.00000  -0.02384  -0.02406   1.64328
   D35       -2.55305   0.00030   0.00000   0.01637   0.01631  -2.53674
   D36        0.58467   0.00088   0.00000   0.03589   0.03579   0.62047
   D37        0.69812   0.00117   0.00000   0.05009   0.05019   0.74831
   D38       -2.44734   0.00175   0.00000   0.06961   0.06967  -2.37767
   D39        3.14099   0.00058   0.00000   0.01822   0.01807  -3.12413
   D40        0.03787   0.00013   0.00000   0.00463   0.00447   0.04235
   D41        0.00319   0.00001   0.00000  -0.00094  -0.00101   0.00218
   D42       -3.09993  -0.00044   0.00000  -0.01453  -0.01460  -3.11453
   D43        3.14090  -0.00005   0.00000  -0.00303  -0.00322   3.13768
   D44        0.01466  -0.00027   0.00000  -0.00968  -0.00984   0.00482
   D45       -0.00443   0.00050   0.00000   0.01579   0.01575   0.01132
   D46       -3.13067   0.00028   0.00000   0.00913   0.00913  -3.12154
   D47        0.00031  -0.00042   0.00000  -0.01192  -0.01197  -0.01166
   D48       -3.13596  -0.00011   0.00000  -0.00293  -0.00295  -3.13891
   D49        3.10327   0.00008   0.00000   0.00197   0.00184   3.10512
   D50       -0.03299   0.00038   0.00000   0.01096   0.01086  -0.02213
   D51       -0.00266   0.00034   0.00000   0.01018   0.01018   0.00752
   D52        3.14129   0.00021   0.00000   0.00603   0.00605  -3.13584
   D53        3.13361   0.00003   0.00000   0.00117   0.00110   3.13470
   D54       -0.00562  -0.00010   0.00000  -0.00299  -0.00304  -0.00866
   D55        0.00143   0.00016   0.00000   0.00456   0.00460   0.00603
   D56        3.14106  -0.00031   0.00000  -0.00937  -0.00940   3.13166
   D57        3.14066   0.00029   0.00000   0.00871   0.00874  -3.13379
   D58       -0.00289  -0.00017   0.00000  -0.00522  -0.00527  -0.00816
   D59        0.00217  -0.00059   0.00000  -0.01774  -0.01775  -0.01558
   D60        3.12818  -0.00035   0.00000  -0.01089  -0.01097   3.11721
   D61       -3.13746  -0.00013   0.00000  -0.00382  -0.00383  -3.14129
   D62       -0.01146   0.00011   0.00000   0.00304   0.00295  -0.00850
         Item               Value     Threshold  Converged?
 Maximum Force            0.023880     0.000450     NO 
 RMS     Force            0.005550     0.000300     NO 
 Maximum Displacement     0.131535     0.001800     NO 
 RMS     Displacement     0.041860     0.001200     NO 
 Predicted change in Energy=-5.622184D-03
 GradGradGradGradGradGradGradGradGradGradGradGradGradGradGradGradGradGrad

                          Input orientation:                          
 ---------------------------------------------------------------------
 Center     Atomic      Atomic             Coordinates (Angstroms)
 Number     Number       Type             X           Y           Z
 ---------------------------------------------------------------------
      1         17           0        4.601915   -0.674995    0.090734
      2          6           0        2.943557   -0.146143    0.019658
      3          6           0        2.578426    1.075960    0.580973
      4          6           0        1.250960    1.494367    0.529967
      5          6           0        1.983727   -0.943987   -0.607021
      6          6           0        0.662724   -0.517863   -0.669340
      7          6           0        0.272882    0.701767   -0.089652
      8          7           0       -1.056378    1.143611   -0.173767
      9          6           0       -1.293173    2.575400   -0.189854
     10          6           0       -2.137563    0.244976   -0.073087
     11          6           0       -3.313707    0.445404   -0.812981
     12          6           0       -4.386244   -0.436534   -0.692034
     13          6           0       -4.306546   -1.541802    0.155109
     14          6           0       -3.138398   -1.750168    0.890358
     15          6           0       -2.068504   -0.864656    0.787172
     16          1           0        3.336133    1.694008    1.066383
     17          1           0        0.973213    2.446325    0.984834
     18          1           0        2.281322   -1.892593   -1.057831
     19          1           0       -0.081991   -1.132256   -1.178169
     20          1           0       -2.299030    2.782793   -0.569055
     21          1           0       -0.569174    3.068367   -0.855047
     22          1           0       -1.214820    3.028934    0.814603
     23          1           0       -3.382545    1.285479   -1.507017
     24          1           0       -5.291592   -0.263998   -1.278656
     25          1           0       -5.147565   -2.233513    0.242843
     26          1           0       -3.064014   -2.606055    1.565234
     27          1           0       -1.167394   -1.022750    1.383085
 ---------------------------------------------------------------------
                    Distance matrix (angstroms):
                    1          2          3          4          5
     1  Cl   0.000000
     2  C    1.742093   0.000000
     3  C    2.720420   1.393532   0.000000
     4  C    4.015963   2.411757   1.392779   0.000000
     5  C    2.722889   1.396623   2.417681   2.788415   0.000000
     6  C    4.014926   2.411450   2.788094   2.415249   1.389429
     7  C    4.546267   2.804176   2.430081   1.403132   2.429644
     8  N    5.949249   4.207179   3.712951   2.437638   3.713221
     9  C    6.737645   5.039898   4.222769   2.856464   4.826820
    10  C    6.803951   5.096995   4.833103   3.661521   4.322471
    11  C    8.045438   6.340077   6.087524   4.872373   5.480478
    12  C    9.025330   7.369994   7.239807   6.082740   6.390717
    13  C    8.950764   7.384457   7.378135   6.343872   6.364413
    14  C    7.855434   6.349897   6.384732   5.470224   5.397058
    15  C    6.709359   5.121142   5.040087   4.080440   4.286099
    16  H    2.857669   2.153115   1.091662   2.162301   3.404159
    17  H    4.869243   3.396279   2.148886   1.090996   3.879350
    18  H    2.861276   2.156299   3.403859   3.879980   1.091625
    19  H    4.874236   3.400169   3.879255   3.404942   2.151475
    20  H    7.746913   6.034067   5.293904   3.933233   5.677353
    21  H    6.453481   4.841225   3.992396   2.776442   4.762122
    22  H    6.933792   5.291989   4.272868   2.918216   5.294886
    23  H    8.375432   6.663320   6.319555   5.065797   5.880254
    24  H    9.996280   8.337696   8.197005   7.011986   7.337829
    25  H    9.874436   8.359018   8.411771   7.410847   7.296607
    26  H    8.041742   6.673147   6.809048   6.041873   5.741154
    27  H    5.922502   4.418970   4.367967   3.593344   3.727773
                    6          7          8          9         10
     6  C    0.000000
     7  C    1.405529   0.000000
     8  N    2.441598   1.403293   0.000000
     9  C    3.691032   2.443986   1.451327   0.000000
    10  C    2.962946   2.453401   1.409483   2.481432   0.000000
    11  C    4.093962   3.667771   2.447780   3.001288   1.403898
    12  C    5.049674   4.833843   3.722024   4.346380   2.429839
    13  C    5.140215   5.105356   4.228853   5.113782   2.819421
    14  C    4.289494   4.313842   3.720366   4.825169   2.431151
    15  C    3.114691   2.950354   2.445596   3.659195   1.405738
    16  H    3.879719   3.421179   4.597288   4.877033   5.775762
    17  H    3.408681   2.165287   2.675567   2.555985   3.955004
    18  H    2.158858   3.420805   4.597863   5.787345   5.006543
    19  H    1.091323   2.162045   2.671670   4.023734   2.709862
    20  H    4.435806   3.342937   2.094602   1.094785   2.590863
    21  H    3.796460   2.625963   2.099094   1.099851   3.323077
    22  H    4.278671   2.906310   2.134577   1.104883   3.064289
    23  H    4.507543   3.963809   2.684909   2.786447   2.165359
    24  H    5.990792   5.771464   4.597736   5.023447   3.414725
    25  H    6.126581   6.173141   5.321311   6.178124   3.911884
    26  H    4.821041   4.981486   4.595075   5.750103   3.416253
    27  H    2.795834   2.686505   2.670062   3.928949   2.160739
                   11         12         13         14         15
    11  C    0.000000
    12  C    1.393836   0.000000
    13  C    2.423204   1.394855   0.000000
    14  C    2.784356   2.405560   1.395915   0.000000
    15  C    2.413976   2.782670   2.422160   1.392641   0.000000
    16  H    7.022207   8.201606   8.349336   7.335726   5.986219
    17  H    5.060979   6.312411   6.668542   5.875783   4.500412
    18  H    6.068817   6.834497   6.707778   5.760997   4.835461
    19  H    3.614743   4.387134   4.448845   3.741957   2.807207
    20  H    2.559776   3.838704   4.822515   4.835510   3.898253
    21  H    3.796599   5.184681   6.020134   5.732855   4.518135
    22  H    3.705265   4.933290   5.557457   5.152253   3.986173
    23  H    1.091856   2.153355   3.407339   3.875844   3.407798
    24  H    2.152239   1.092497   2.158421   3.398466   3.875142
    25  H    3.413854   2.163964   1.092463   2.165560   3.413309
    26  H    3.876810   3.398584   2.159854   1.092489   2.151485
    27  H    3.403652   3.874373   3.410515   2.157956   1.091836
                   16         17         18         19         20
    16  H    0.000000
    17  H    2.481133   0.000000
    18  H    4.299839   4.970899   0.000000
    19  H    4.970850   4.312572   2.485527   0.000000
    20  H    5.967845   3.638043   6.563365   4.540252   0.000000
    21  H    4.564228   2.480132   5.725170   4.241106   1.776442
    22  H    4.749377   2.270660   6.320636   4.750783   1.774995
    23  H    7.206241   5.150680   6.510092   4.104539   2.072613
    24  H    9.152629   7.191454   7.749200   5.282415   4.329191
    25  H    9.384922   7.740501   7.549592   5.375136   5.825518
    26  H    7.726660   6.493274   5.996842   4.311705   5.846372
    27  H    5.269044   4.095764   4.313739   2.783903   4.424207
                   21         22         23         24         25
    21  H    0.000000
    22  H    1.790571   0.000000
    23  H    3.393937   3.623339   0.000000
    24  H    5.795285   5.643156   2.469309   0.000000
    25  H    7.090625   6.594448   4.308203   2.492929   0.000000
    26  H    6.654400   5.977965   4.968322   4.305234   2.495734
    27  H    4.701525   4.091646   4.311323   4.966848   4.313683
                   26         27
    26  H    0.000000
    27  H    2.477337   0.000000
 Stoichiometry    C13H12ClN
 Framework group  C1[X(C13H12ClN)]
 Deg. of freedom    75
 Full point group                 C1      NOp   1
 Largest Abelian subgroup         C1      NOp   1
 Largest concise Abelian subgroup C1      NOp   1
                         Standard orientation:                         
 ---------------------------------------------------------------------
 Center     Atomic      Atomic             Coordinates (Angstroms)
 Number     Number       Type             X           Y           Z
 ---------------------------------------------------------------------
      1         17           0        4.671933   -0.843708   -0.075435
      2          6           0        3.028771   -0.265078   -0.065806
      3          6           0        2.714547    0.926258    0.585279
      4          6           0        1.399248    1.384128    0.598534
      5          6           0        2.030008   -0.991813   -0.717637
      6          6           0        0.721109   -0.525667   -0.715330
      7          6           0        0.382586    0.662659   -0.045409
      8          7           0       -0.934649    1.146181   -0.063571
      9          6           0       -1.129079    2.581876    0.022032
     10          6           0       -2.039180    0.273416    0.006695
     11          6           0       -3.227273    0.555968   -0.685786
     12          6           0       -4.322149   -0.301749   -0.594432
     13          6           0       -4.253853   -1.463269    0.174872
     14          6           0       -3.074105   -1.753201    0.862412
     15          6           0       -1.981312   -0.893040    0.789083
     16          1           0        3.502401    1.488828    1.089787
     17          1           0        1.161598    2.310748    1.123099
     18          1           0        2.287693   -1.915918   -1.238476
     19          1           0       -0.054250   -1.083380   -1.243308
     20          1           0       -2.137637    2.842358   -0.314884
     21          1           0       -0.407882    3.097997   -0.628480
     22          1           0       -1.011754    2.964481    1.051893
     23          1           0       -3.288712    1.442400   -1.320304
     24          1           0       -5.236585   -0.064898   -1.143300
     25          1           0       -5.112575   -2.135509    0.239410
     26          1           0       -3.008081   -2.654270    1.476617
     27          1           0       -1.070444   -1.115993    1.348294
 ---------------------------------------------------------------------
 Rotational constants (GHZ):           1.3597884           0.2517539           0.2241143
 Standard basis: def2SVP (5D, 7F)
 There are   289 symmetry adapted cartesian basis functions of A   symmetry.
 There are   274 symmetry adapted basis functions of A   symmetry.
   274 basis functions,   471 primitive gaussians,   289 cartesian basis functions
    57 alpha electrons       57 beta electrons
       nuclear repulsion energy       989.3241979948 Hartrees.
 NAtoms=   27 NActive=   27 NUniq=   27 SFac= 1.00D+00 NAtFMM=   60 NAOKFM=F Big=F
 Integral buffers will be    131072 words long.
 Raffenetti 2 integral format.
 Two-electron integral symmetry is turned on.
 Nuclear repulsion after empirical dispersion term =      989.3063609491 Hartrees.
 One-electron integrals computed using PRISM.
   1 Symmetry operations used in ECPInt.
 ECPInt:  NShTT=    8256 NPrTT=   30622 LenC2=    7745 LenP2D=   20905.
 LDataN:  DoStor=T MaxTD1= 4 Len=   56
 NBasis=   274 RedAO= T EigKep=  2.46D-04  NBF=   274
 NBsUse=   274 1.00D-06 EigRej= -1.00D+00 NBFU=   274
 Initial guess from the checkpoint file:  "prod_5h_3.chk"
 B after Tr=    -0.000000    0.000000    0.000000
         Rot=    0.999994    0.002741    0.000916    0.001963 Ang=   0.40 deg.
 ExpMin= 1.22D-01 ExpMax= 1.04D+04 ExpMxC= 1.57D+03 IAcc=3 IRadAn=         5 AccDes= 0.00D+00
 Harris functional with IExCor= 4639 and IRadAn=       5 diagonalized for initial guess.
 HarFok:  IExCor= 4639 AccDes= 0.00D+00 IRadAn=         5 IDoV= 1 UseB2=F ITyADJ=14
 ICtDFT=  3500011 ScaDFX=  1.000000  1.000000  1.000000  1.000000
 FoFCou: FMM=F IPFlag=           0 FMFlag=      100000 FMFlg1=           0
         NFxFlg=           0 DoJE=T BraDBF=F KetDBF=T FulRan=T
         wScrn=  0.000000 ICntrl=       500 IOpCl=  0 I1Cent=   200000004 NGrid=           0
         NMat0=    1 NMatS0=      1 NMatT0=    0 NMatD0=    1 NMtDS0=    0 NMtDT0=    0
 Petite list used in FoFCou.
 Requested convergence on RMS density matrix=1.00D-08 within 128 cycles.
 Requested convergence on MAX density matrix=1.00D-06.
 Requested convergence on             energy=1.00D-06.
 No special actions if energy rises.
 Integral accuracy reduced to 1.0D-05 until final iterations.
 Initial convergence to 1.0D-05 achieved.  Increase integral accuracy.
 SCF Done:  E(RwB97XD) =  -1016.82774868     A.U. after   13 cycles
            NFock= 13  Conv=0.97D-08     -V/T= 2.0072
   1 Symmetry operations used in ECPInt.
 ECPInt:  NShTT=    8256 NPrTT=   30622 LenC2=    7745 LenP2D=   20905.
 LDataN:  DoStor=T MaxTD1= 5 Len=  102
 Calling FoFJK, ICntrl=      2127 FMM=F ISym2X=0 I1Cent= 0 IOpClX= 0 NMat=1 NMatS=1 NMatT=0.
 ***** Axes restored to original set *****
 -------------------------------------------------------------------
 Center     Atomic                   Forces (Hartrees/Bohr)
 Number     Number              X              Y              Z
 -------------------------------------------------------------------
      1       17           0.000778394   -0.000368010   -0.000004634
      2        6          -0.002521912    0.001962923    0.000370540
      3        6           0.001664477   -0.001704836   -0.000665772
      4        6           0.000831076   -0.000894275   -0.001024032
      5        6           0.000067272    0.000290194    0.000451288
      6        6           0.002221172   -0.000603397    0.000714314
      7        6          -0.004549145    0.001631983    0.000780392
      8        7           0.002539213    0.001765444   -0.002454711
      9        6          -0.000746606   -0.003436576    0.000654689
     10        6          -0.000163343    0.000275510    0.000426952
     11        6           0.000055779   -0.001703962   -0.000145257
     12        6           0.000601073   -0.000363863    0.000853240
     13        6           0.000405231    0.000552942   -0.000073958
     14        6          -0.000097145    0.000988376   -0.001162202
     15        6          -0.001363916    0.000334526    0.000274761
     16        1          -0.000546588    0.000046561   -0.000082253
     17        1           0.001272982   -0.000719306    0.000217552
     18        1          -0.000403612    0.000339188   -0.000065702
     19        1           0.000412224   -0.000261698    0.000224330
     20        1          -0.000275031    0.000828387    0.000366047
     21        1          -0.000112897    0.000636469    0.000148003
     22        1          -0.000307383    0.000459233    0.000329617
     23        1          -0.000414628   -0.000487470    0.000116760
     24        1           0.000218886    0.000226834   -0.000126053
     25        1           0.000504013    0.000355674   -0.000060430
     26        1           0.000281854    0.000180754    0.000075976
     27        1          -0.000351440   -0.000331605   -0.000139456
 -------------------------------------------------------------------
 Cartesian Forces:  Max     0.004549145 RMS     0.001075002

 GradGradGradGradGradGradGradGradGradGradGradGradGradGradGradGradGradGrad
 Berny optimization.
 Using GEDIIS/GDIIS optimizer.
 FormGI is forming the generalized inverse of G from B-inverse, IUseBI=4.
 Internal  Forces:  Max     0.003500244 RMS     0.000767207
 Search for a local minimum.
 Step number   2 out of a maximum of  145
 All quantities printed in internal units (Hartrees-Bohrs-Radians)
 Mixed Optimization -- En-DIIS/RFO-DIIS
 Update second derivatives using D2CorX and points    1    2
 DE= -5.31D-03 DEPred=-5.62D-03 R= 9.44D-01
 TightC=F SS=  1.41D+00  RLast= 2.19D-01 DXNew= 5.0454D-01 6.5662D-01
 Trust test= 9.44D-01 RLast= 2.19D-01 DXMaxT set to 5.05D-01
 ITU=  1  0
 Use linear search instead of GDIIS.
[...]
 Alpha virt. eigenvalues --   22.68766  22.72437  22.77505  22.83106  22.85420
 Alpha virt. eigenvalues --   22.90094  22.92824  23.28138  23.34583  26.00504
 Alpha virt. eigenvalues --   33.14585
          Condensed to atoms (all electrons):
               1          2          3          4          5          6
     1  Cl  16.889643   0.272652  -0.045342   0.020176  -0.045528   0.019878
     2  C    0.272652   5.052056   0.326469   0.093560   0.317598   0.077901
     3  C   -0.045342   0.326469   5.069128   0.351162   0.085346  -0.120474
     4  C    0.020176   0.093560   0.351162   5.290586  -0.130771   0.067028
     5  C   -0.045528   0.317598   0.085346  -0.130771   5.095552   0.371528
     6  C    0.019878   0.077901  -0.120474   0.067028   0.371528   5.165119
     7  C   -0.004859  -0.139502   0.062587   0.316653   0.047927   0.333309
     8  N   -0.000019  -0.000647   0.003737  -0.094683   0.003928  -0.067716
     9  C   -0.000003   0.000210  -0.002169  -0.008923  -0.000459   0.013035
    10  C   -0.000006  -0.000269   0.000625   0.001836  -0.002373   0.007591
    11  C    0.000000   0.000091  -0.000045   0.000523  -0.000018   0.005031
    12  C   -0.000000  -0.000000  -0.000006   0.000087  -0.000057  -0.000149
    13  C    0.000000   0.000002  -0.000004   0.000087   0.000003   0.000323
    14  C   -0.000000  -0.000013   0.000072  -0.000987   0.000141  -0.002004
    15  C    0.000000   0.000022   0.000105   0.001949   0.003317  -0.003335
    16  H    0.002045  -0.070397   0.443556  -0.054373   0.015926  -0.005581
    17  H   -0.000248   0.008180  -0.021939   0.432048  -0.000374   0.002781
    18  H    0.001893  -0.071618   0.016539  -0.006049   0.445661  -0.054391
    19  H   -0.000211   0.009201  -0.001790   0.006463  -0.038807   0.434174
    20  H   -0.000000  -0.000025   0.000113   0.000304   0.000069  -0.000399
    21  H    0.000001  -0.000235   0.001274  -0.003772  -0.000075   0.001193
    22  H    0.000000   0.000151  -0.000799   0.009710  -0.000089  -0.000858
    23  H    0.000000  -0.000000  -0.000001   0.000015   0.000012  -0.000184
    24  H   -0.000000  -0.000000   0.000000  -0.000003   0.000001   0.000009
    25  H    0.000000   0.000000  -0.000000   0.000000  -0.000000   0.000000
    26  H   -0.000000  -0.000001   0.000001   0.000004  -0.000011  -0.000093
    27  H    0.000001  -0.000015  -0.000045   0.001043   0.000025  -0.000752
               7          8          9         10         11         12
     1  Cl  -0.004859  -0.000019  -0.000003  -0.000006   0.000000  -0.000000
     2  C   -0.139502  -0.000647   0.000210  -0.000269   0.000091  -0.000000
     3  C    0.062587   0.003737  -0.002169   0.000625  -0.000045  -0.000006
     4  C    0.316653  -0.094683  -0.008923   0.001836   0.000523   0.000087
     5  C    0.047927   0.003928  -0.000459  -0.002373  -0.000018  -0.000057
     6  C    0.333309  -0.067716   0.013035   0.007591   0.005031  -0.000149
     7  C    5.006506   0.436934  -0.077793  -0.146509  -0.010509  -0.000227
     8  N    0.436934   6.417199   0.311342   0.255175  -0.040111   0.005279
     9  C   -0.077793   0.311342   4.936538  -0.075586  -0.007794   0.000656
    10  C   -0.146509   0.255175  -0.075586   5.079156   0.471140  -0.031571
    11  C   -0.010509  -0.040111  -0.007794   0.471140   5.031740   0.460328
    12  C   -0.000227   0.005279   0.000656  -0.031571   0.460328   4.874853
    13  C    0.001134   0.000913  -0.000113  -0.081728   0.009490   0.454482
    14  C   -0.003556   0.008384   0.000477  -0.015236  -0.053930  -0.002901
    15  C    0.026987  -0.052676  -0.002891   0.411345   0.020412  -0.057788
    16  H    0.016686  -0.000032   0.000042   0.000028  -0.000001   0.000000
    17  H   -0.062185  -0.004506   0.004499  -0.000960  -0.000057   0.000009
    18  H    0.016155  -0.000098   0.000014   0.000181  -0.000019   0.000003
    19  H   -0.050644  -0.003668  -0.000168   0.002126   0.000063   0.000280
    20  H    0.007657  -0.026556   0.407434  -0.007573  -0.004286  -0.000298
    21  H   -0.005524  -0.045988   0.413937   0.013857  -0.000602  -0.000296
    22  H   -0.008064  -0.050195   0.406830  -0.006341   0.003023   0.000233
    23  H    0.000750   0.005929  -0.002162  -0.052299   0.426990  -0.034015
    24  H   -0.000025  -0.000248   0.000026   0.014427  -0.054918   0.441462
    25  H    0.000005   0.000012  -0.000002  -0.003538   0.010857  -0.054929
    26  H    0.000055  -0.000219   0.000004   0.012846  -0.003347   0.010428
    27  H    0.001386  -0.003289   0.000116  -0.042465   0.008278  -0.002067
              13         14         15         16         17         18
     1  Cl   0.000000  -0.000000   0.000000   0.002045  -0.000248   0.001893
     2  C    0.000002  -0.000013   0.000022  -0.070397   0.008180  -0.071618
     3  C   -0.000004   0.000072   0.000105   0.443556  -0.021939   0.016539
     4  C    0.000087  -0.000987   0.001949  -0.054373   0.432048  -0.006049
     5  C    0.000003   0.000141   0.003317   0.015926  -0.000374   0.445661
     6  C    0.000323  -0.002004  -0.003335  -0.005581   0.002781  -0.054391
     7  C    0.001134  -0.003556   0.026987   0.016686  -0.062185   0.016155
     8  N    0.000913   0.008384  -0.052676  -0.000032  -0.004506  -0.000098
     9  C   -0.000113   0.000477  -0.002891   0.000042   0.004499   0.000014
    10  C   -0.081728  -0.015236   0.411345   0.000028  -0.000960   0.000181
    11  C    0.009490  -0.053930   0.020412  -0.000001  -0.000057  -0.000019
    12  C    0.454482  -0.002901  -0.057788   0.000000   0.000009   0.000003
    13  C    4.945725   0.435020   0.031809  -0.000000  -0.000001  -0.000004
    14  C    0.435020   4.930693   0.409504  -0.000000  -0.000006   0.000011
    15  C    0.031809   0.409504   5.109250  -0.000001   0.000178  -0.000049
    16  H   -0.000000  -0.000000  -0.000001   0.530064  -0.007287  -0.000007
    17  H   -0.000001  -0.000006   0.000178  -0.007287   0.518149   0.000035
    18  H   -0.000004   0.000011  -0.000049  -0.000007   0.000035   0.527497
    19  H    0.000108  -0.000316  -0.003785   0.000026  -0.000186  -0.007375
    20  H   -0.000121   0.000447   0.000103   0.000000   0.000402   0.000000
    21  H   -0.000029   0.000162  -0.001271  -0.000018  -0.006902  -0.000001
    22  H    0.000054  -0.000830   0.003449  -0.000006   0.002869  -0.000000
    23  H    0.008153  -0.002698   0.008752   0.000000   0.000003   0.000000
    24  H   -0.057000   0.011356  -0.004356  -0.000000  -0.000000   0.000000
    25  H    0.442951  -0.055215   0.011492   0.000000   0.000000  -0.000000
    26  H   -0.056134   0.440922  -0.054063   0.000000   0.000000   0.000001
    27  H    0.007826  -0.040252   0.431514  -0.000002  -0.000001  -0.000000
              19         20         21         22         23         24
     1  Cl  -0.000211  -0.000000   0.000001   0.000000   0.000000  -0.000000
     2  C    0.009201  -0.000025  -0.000235   0.000151  -0.000000  -0.000000
     3  C   -0.001790   0.000113   0.001274  -0.000799  -0.000001   0.000000
     4  C    0.006463   0.000304  -0.003772   0.009710   0.000015  -0.000003
     5  C   -0.038807   0.000069  -0.000075  -0.000089   0.000012   0.000001
     6  C    0.434174  -0.000399   0.001193  -0.000858  -0.000184   0.000009
     7  C   -0.050644   0.007657  -0.005524  -0.008064   0.000750  -0.000025
     8  N   -0.003668  -0.026556  -0.045988  -0.050195   0.005929  -0.000248
     9  C   -0.000168   0.407434   0.413937   0.406830  -0.002162   0.000026
    10  C    0.002126  -0.007573   0.013857  -0.006341  -0.052299   0.014427
    11  C    0.000063  -0.004286  -0.000602   0.003023   0.426990  -0.054918
    12  C    0.000280  -0.000298  -0.000296   0.000233  -0.034015   0.441462
    13  C    0.000108  -0.000121  -0.000029   0.000054   0.008153  -0.057000
    14  C   -0.000316   0.000447   0.000162  -0.000830  -0.002698   0.011356
    15  C   -0.003785   0.000103  -0.001271   0.003449   0.008752  -0.004356
    16  H    0.000026   0.000000  -0.000018  -0.000006   0.000000  -0.000000
    17  H   -0.000186   0.000402  -0.006902   0.002869   0.000003  -0.000000
    18  H   -0.007375   0.000000  -0.000001  -0.000000   0.000000   0.000000
    19  H    0.500202  -0.000015   0.000009   0.000010  -0.000048  -0.000005
    20  H   -0.000015   0.512046  -0.012653  -0.024455  -0.002719   0.000033
    21  H    0.000009  -0.012653   0.555981  -0.048700  -0.000713   0.000007
    22  H    0.000010  -0.024455  -0.048700   0.584653   0.000556  -0.000008
    23  H   -0.000048  -0.002719  -0.000713   0.000556   0.509538  -0.007045
    24  H   -0.000005   0.000033   0.000007  -0.000008  -0.007045   0.540266
    25  H    0.000003  -0.000001   0.000000  -0.000000  -0.000086  -0.006755
    26  H   -0.000002   0.000002  -0.000001   0.000002   0.000031  -0.000134
    27  H   -0.000774  -0.000161  -0.000023   0.000390  -0.000145   0.000017
              25         26         27
     1  Cl   0.000000  -0.000000   0.000001
     2  C    0.000000  -0.000001  -0.000015
     3  C   -0.000000   0.000001  -0.000045
     4  C    0.000000   0.000004   0.001043
     5  C   -0.000000  -0.000011   0.000025
     6  C    0.000000  -0.000093  -0.000752
     7  C    0.000005   0.000055   0.001386
     8  N    0.000012  -0.000219  -0.003289
     9  C   -0.000002   0.000004   0.000116
    10  C   -0.003538   0.012846  -0.042465
    11  C    0.010857  -0.003347   0.008278
    12  C   -0.054929   0.010428  -0.002067
    13  C    0.442951  -0.056134   0.007826
    14  C   -0.055215   0.440922  -0.040252
    15  C    0.011492  -0.054063   0.431514
    16  H    0.000000   0.000000  -0.000002
    17  H    0.000000   0.000000  -0.000001
    18  H   -0.000000   0.000001  -0.000000
    19  H    0.000003  -0.000002  -0.000774
    20  H   -0.000001   0.000002  -0.000161
    21  H    0.000000  -0.000001  -0.000023
    22  H   -0.000000   0.000002   0.000390
    23  H   -0.000086   0.000031  -0.000145
    24  H   -0.006755  -0.000134   0.000017
    25  H    0.538408  -0.006695  -0.000079
    26  H   -0.006695   0.537538  -0.006382
    27  H   -0.000079  -0.006382   0.498533
 Mulliken charges:
               1
     1  Cl  -0.110075
     2  C    0.124629
     3  C   -0.168099
     4  C   -0.293675
     5  C   -0.168472
     6  C   -0.242964
     7  C    0.234666
     8  N   -0.058181
     9  C   -0.317099
    10  C    0.196119
    11  C   -0.272329
    12  C   -0.063796
    13  C   -0.142944
    14  C   -0.059245
    15  C   -0.289973
    16  H    0.129329
    17  H    0.135497
    18  H    0.131620
    19  H    0.155127
    20  H    0.150650
    21  H    0.140380
    22  H    0.128415
    23  H    0.141385
    24  H    0.122893
    25  H    0.123570
    26  H    0.125247
    27  H    0.147323
 Sum of Mulliken charges =  -0.00000
 Mulliken charges with hydrogens summed into heavy atoms:
               1
     1  Cl  -0.110075
     2  C    0.124629
     3  C   -0.038770
     4  C   -0.158177
     5  C   -0.036852
     6  C   -0.087837
     7  C    0.234666
     8  N   -0.058181
     9  C    0.102347
    10  C    0.196119
    11  C   -0.130944
    12  C    0.059097
    13  C   -0.019373
    14  C    0.066002
    15  C   -0.142650
 Electronic spatial extent (au):  <R**2>=           4603.1087
 Charge=              0.0000 electrons
 Dipole moment (field-independent basis, Debye):
    X=             -3.2823    Y=              1.2303    Z=              0.2103  Tot=              3.5117
 Quadrupole moment (field-independent basis, Debye-Ang):
   XX=            -99.1384   YY=            -86.8567   ZZ=            -95.0979
   XY=              4.0209   XZ=              3.0103   YZ=             -0.3675
 Traceless Quadrupole moment (field-independent basis, Debye-Ang):
   XX=             -5.4407   YY=              6.8410   ZZ=             -1.4002
   XY=              4.0209   XZ=              3.0103   YZ=             -0.3675
 Octapole moment (field-independent basis, Debye-Ang**2):
  XXX=            -51.4143  YYY=             10.1235  ZZZ=              0.6197  XYY=              1.0144
  XXY=             -1.3723  XXZ=            -10.6827  XZZ=             -2.7052  YZZ=             -1.9646
  YYZ=              4.6445  XYZ=             13.2439
 Hexadecapole moment (field-independent basis, Debye-Ang**3):
 XXXX=          -4975.4056 YYYY=           -927.0646 ZZZZ=           -317.3683 XXXY=            115.5661
 XXXZ=             97.8876 YYYX=            -18.7037 YYYZ=              1.0386 ZZZX=              7.1706
 ZZZY=            -12.3561 XXYY=           -937.1581 XXZZ=           -878.1924 YYZZ=           -205.4936
 XXYZ=            -13.1513 YYXZ=            -13.3923 ZZXY=             -5.2643
 N-N= 9.891835123017D+02 E-N=-4.366068541025D+03  KE= 1.013776070943D+03
 Breneman (CHELPG) radii used.
 Read replacement radii for each type of atom:
 Atom Element Radius
    1    17    2.00
    2     6    1.50
    3     6    1.50
    4     6    1.50
    5     6    1.50
    6     6    1.50
    7     6    1.50
    8     7    1.70
    9     6    1.50
   10     6    1.50
   11     6    1.50
   12     6    1.50
   13     6    1.50
   14     6    1.50
   15     6    1.50
   16     1    1.45
   17     1    1.45
   18     1    1.45
   19     1    1.45
   20     1    1.45
   21     1    1.45
   22     1    1.45
   23     1    1.45
   24     1    1.45
   25     1    1.45
   26     1    1.45
   27     1    1.45
 Generate Potential Derived Charges using the Breneman model, NDens= 1.
 Grid spacing= 0.300 Box extension= 2.800
 NStep X,Y,Z=   52     38     31   Total possible points=       61256
 Number of Points to Fit=   16909

 **********************************************************************

            Electrostatic Properties Using The SCF Density.

 **********************************************************************

       Atomic Center    1 is at   4.666045 -0.899966 -0.094754
       Atomic Center    2 is at   3.029423 -0.293612 -0.072181
       Atomic Center    3 is at   2.771439  1.005144  0.348693
       Atomic Center    4 is at   1.464004  1.486560  0.372100
       Atomic Center    5 is at   1.976228 -1.111871 -0.480946
       Atomic Center    6 is at   0.674949 -0.630953 -0.466659
       Atomic Center    7 is at   0.385179  0.679293 -0.032271
       Atomic Center    8 is at  -0.918360  1.165978 -0.046143
       Atomic Center    9 is at  -1.160836  2.573465  0.185965
       Atomic Center   10 is at  -2.029388  0.283890  0.001176
       Atomic Center   11 is at  -3.053921  0.398715 -0.944963
       Atomic Center   12 is at  -4.166935 -0.437419 -0.884645
       Atomic Center   13 is at  -4.260122 -1.412381  0.107207
       Atomic Center   14 is at  -3.235905 -1.538609  1.046045
       Atomic Center   15 is at  -2.132456 -0.690792  1.001994
       Atomic Center   16 is at   3.594418  1.646368  0.668081
       Atomic Center   17 is at   1.296126  2.505359  0.719660
       Atomic Center   18 is at   2.179569 -2.127826 -0.823032
       Atomic Center   19 is at  -0.133297 -1.279263 -0.806924
       Atomic Center   20 is at  -2.217861  2.793654 -0.005193
       Atomic Center   21 is at  -0.553662  3.196106 -0.490121
       Atomic Center   22 is at  -0.939070  2.875157  1.227226
       Atomic Center   23 is at  -2.966037  1.146268 -1.736498
       Atomic Center   24 is at  -4.959680 -0.335308 -1.628983
       Atomic Center   25 is at  -5.127938 -2.073674  0.148464
       Atomic Center   26 is at  -3.302327 -2.296223  1.830032
       Atomic Center   27 is at  -1.334441 -0.781635  1.742002
   16909 points will be used for fitting atomic charges
 Fitting point charges to electrostatic potential
 Charges from ESP fit, RMS=   0.00394 RRMS=   0.37047:
 ESP charges:
               1
     1  Cl  -0.153897
     2  C    0.046942
     3  C   -0.065845
     4  C   -0.283854
     5  C   -0.049336
     6  C   -0.252566
     7  C    0.382757
     8  N   -0.422670
     9  C    0.041292
    10  C    0.355746
    11  C   -0.230919
    12  C   -0.070267
    13  C   -0.124407
    14  C   -0.105812
    15  C   -0.135893
    16  H    0.106321
    17  H    0.141439
    18  H    0.106596
    19  H    0.095450
    20  H    0.036370
    21  H    0.039229
    22  H    0.023535
    23  H    0.132616
    24  H    0.097186
    25  H    0.101600
    26  H    0.106956
    27  H    0.081430
 Sum of ESP charges =   0.00000
 ESP charges with hydrogens summed into heavy atoms:
               1
     1  Cl  -0.153897
     2  C    0.046942
     3  C    0.040476
     4  C   -0.142415
     5  C    0.057260
     6  C   -0.157116
     7  C    0.382757
     8  N   -0.422670
     9  C    0.140426
    10  C    0.355746
    11  C   -0.098303
    12  C    0.026919
    13  C   -0.022807
    14  C    0.001144
    15  C   -0.054463
 Charge=   0.00000 Dipole=    -3.4276     1.3012     0.1981 Tot=     3.6716
 -----------------------------------------------------------------

              Electrostatic Properties (Atomic Units)

 -----------------------------------------------------------------
    Center     Electric         -------- Electric Field --------
               Potential          X             Y             Z
 -----------------------------------------------------------------
    1 Atom    -64.442909
    2 Atom    -14.718542
    3 Atom    -14.760931
    4 Atom    -14.765468
    5 Atom    -14.761362
    6 Atom    -14.767089
    7 Atom    -14.718022
    8 Atom    -18.352279
    9 Atom    -14.728957
   10 Atom    -14.720180
   11 Atom    -14.761357
   12 Atom    -14.759067
   13 Atom    -14.762338
   14 Atom    -14.759635
   15 Atom    -14.762298
   16 Atom     -1.098464
   17 Atom     -1.098698
   18 Atom     -1.099231
   19 Atom     -1.102293
   20 Atom     -1.097557
   21 Atom     -1.104140
   22 Atom     -1.108024
   23 Atom     -1.094825
   24 Atom     -1.098526
   25 Atom     -1.100367
   26 Atom     -1.099434
   27 Atom     -1.097238
 -----------------------------------------------------------------
 Unable to Open any file for archive entry.
 1\1\GINC-NOTCH480\SP\RwB97XD\def2TZVP\C13H12Cl1N1\U1366379\17-Feb-2026
 \0\\#N Guess=Read Geom=Check Integral(Ultrafine) Density Pop=(ChelpG,R
 eadRadii) NMR wB97XD def2TZVP\\prod_5h_3\\0,1\Cl,0,4.6084440576,-0.691
 4001016,-0.1584279438\C,0,2.9503858036,-0.1466842192,-0.1295691681\C,0
 ,2.643760443,1.1349353419,0.3107592347\C,0,1.3193034469,1.5670302289,0
 .3391409651\C,0,1.9288623564,-0.9970926995,-0.5528334275\C,0,0.6105879
 766,-0.5651260428,-0.5335660238\C,0,0.271754204,0.7265855364,-0.079607
 3805\N,0,-1.048957397,1.1646652099,-0.0884117935\C,0,-1.3438845342,2.5
 584200017,0.1648749181\C,0,-2.1264872118,0.241286971,-0.0567361566\C,0
 ,-3.1533636783,0.3325724108,-1.0028983187\C,0,-4.2346033491,-0.5451636
 003,-0.957521661\C,0,-4.2927573337,-1.5381177014,0.0190365132\C,0,-3.2
 657637405,-1.6406956293,0.9577226364\C,0,-2.1945372808,-0.7518926281,0
 .9287729622\H,0,3.4419228383,1.8012797341,0.6415047599\H,0,1.113223706
 5,2.5733996648,0.7020240192\H,0,2.1702678543,-1.9993870246,-0.91013295
 48\H,0,-0.1725616295,-1.2376810655,-0.885267523\H,0,-2.4081171629,2.74
 21155875,-0.0248362411\H,0,-0.7594067398,3.2135552864,-0.5004201517\H,
 0,-1.1348247592,2.8520230526,1.2110655348\H,0,-3.0923123306,1.09501076
 37,-1.7826718381\H,0,-5.0296384147,-0.4610880708,-1.7016718193\H,0,-5.
 1354437981,-2.2317510763,0.0484999563\H,0,-3.304984668,-2.4122735036,1
 .7298340063\H,0,-1.3946486589,-0.8244464265,1.6687768954\\Version=ES64
 L-G16RevC.01\State=1-A\HF=-1017.5708431\RMSD=1.720e-09\Dipole=-1.30857
 85,0.4344112,0.0877892\Quadrupole=-4.2603136,5.2998356,-1.039522,2.607
 2868,2.2830752,-0.088563\PG=C01 [X(C13H12Cl1N1)]\\@
 The archive entry for this job was punched.


 If fifty million people say a stupid thing,
 it is still a stupid thing.
                   -- Anatole France
 Job cpu time:       0 days  0 hours 34 minutes 39.5 seconds.
 Elapsed time:       0 days  0 hours  4 minutes 28.1 seconds.
 File lengths (MBytes):  RWF=    183 Int=      0 D2E=      0 Chk=     28 Scr=      2
 Normal termination of Gaussian 16 at Tue Feb 17 16:04:08 2026.
