 Entering Gaussian System, Link 0=g16
 Input=prod_3g_1.com
 Output=prod_3g_1.log
 Initial command:
 /uufs/chpc.utah.edu/sys/installdir/gaussian16/C01/AVX/g16/l1.exe "/scratch/general/vast/u1366379/GAUSSSCRDIR/11028612-notchpeak.peaks/Gau-2981134.inp" -scrdir="/scratch/general/vast/u1366379/GAUSSSCRDIR/11028612-notchpeak.peaks/"
 Entering Link 1 = /uufs/chpc.utah.edu/sys/installdir/gaussian16/C01/AVX/g16/l1.exe PID=   2981140.
  
 Copyright (c) 1988-2019, Gaussian, Inc.  All Rights Reserved.
  
 This is part of the Gaussian(R) 16 program.  It is based on
 the Gaussian(R) 09 system (copyright 2009, Gaussian, Inc.),
 the Gaussian(R) 03 system (copyright 2003, Gaussian, Inc.),
 the Gaussian(R) 98 system (copyright 1998, Gaussian, Inc.),
 the Gaussian(R) 94 system (copyright 1995, Gaussian, Inc.),
 the Gaussian 92(TM) system (copyright 1992, Gaussian, Inc.),
 the Gaussian 90(TM) system (copyright 1990, Gaussian, Inc.),
 the Gaussian 88(TM) system (copyright 1988, Gaussian, Inc.),
 the Gaussian 86(TM) system (copyright 1986, Carnegie Mellon
 University), and the Gaussian 82(TM) system (copyright 1983,
 Carnegie Mellon University). Gaussian is a federally registered
 trademark of Gaussian, Inc.
  
 This software contains proprietary and confidential information,
 including trade secrets, belonging to Gaussian, Inc.
  
 This software is provided under written license and may be
 used, copied, transmitted, or stored only in accord with that
 written license.
  
 The following legend is applicable only to US Government
 contracts under FAR:
  
                    RESTRICTED RIGHTS LEGEND
  
 Use, reproduction and disclosure by the US Government is
 subject to restrictions as set forth in subparagraphs (a)
 and (c) of the Commercial Computer Software - Restricted
 Rights clause in FAR 52.227-19.
  
 Gaussian, Inc.
 340 Quinnipiac St., Bldg. 40, Wallingford CT 06492
  
  
 ---------------------------------------------------------------
 Warning -- This program may not be used in any manner that
 competes with the business of Gaussian, Inc. or will provide
 assistance to any competitor of Gaussian, Inc.  The licensee
 of this program is prohibited from giving any competitor of
 Gaussian, Inc. access to this program.  By using this program,
 the user acknowledges that Gaussian, Inc. is engaged in the
 business of creating and licensing software in the field of
 computational chemistry and represents and warrants to the
 licensee that it is not a competitor of Gaussian, Inc. and that
 it will not use this program in any manner prohibited above.
 ---------------------------------------------------------------
  

 Cite this work as:
 Gaussian 16, Revision C.01,
 M. J. Frisch, G. W. Trucks, H. B. Schlegel, G. E. Scuseria, 
 M. A. Robb, J. R. Cheeseman, G. Scalmani, V. Barone, 
 G. A. Petersson, H. Nakatsuji, X. Li, M. Caricato, A. V. Marenich, 
 J. Bloino, B. G. Janesko, R. Gomperts, B. Mennucci, H. P. Hratchian, 
 J. V. Ortiz, A. F. Izmaylov, J. L. Sonnenberg, D. Williams-Young, 
 F. Ding, F. Lipparini, F. Egidi, J. Goings, B. Peng, A. Petrone, 
 T. Henderson, D. Ranasinghe, V. G. Zakrzewski, J. Gao, N. Rega, 
 G. Zheng, W. Liang, M. Hada, M. Ehara, K. Toyota, R. Fukuda, 
 J. Hasegawa, M. Ishida, T. Nakajima, Y. Honda, O. Kitao, H. Nakai, 
 T. Vreven, K. Throssell, J. A. Montgomery, Jr., J. E. Peralta, 
 F. Ogliaro, M. J. Bearpark, J. J. Heyd, E. N. Brothers, K. N. Kudin, 
 V. N. Staroverov, T. A. Keith, R. Kobayashi, J. Normand, 
 K. Raghavachari, A. P. Rendell, J. C. Burant, S. S. Iyengar, 
 J. Tomasi, M. Cossi, J. M. Millam, M. Klene, C. Adamo, R. Cammi, 
 J. W. Ochterski, R. L. Martin, K. Morokuma, O. Farkas, 
 J. B. Foresman, and D. J. Fox, Gaussian, Inc., Wallingford CT, 2019.
 
 ******************************************
 Gaussian 16:  ES64L-G16RevC.01  3-Jul-2019
                17-Feb-2026 
 ******************************************
 %NProcShared=8
 Will use up to    8 processors via shared memory.
 %Mem=8GB
 %chk=prod_3g_1.chk
 ------------------------------------------------------
 #N OPT FREQ=NORAMAN Integral(Ultrafine) wB97XD def2SVP
 ------------------------------------------------------
 1/18=20,19=15,26=4,38=1/1,3;
 2/9=110,12=2,17=6,18=5,40=1/2;
 3/5=43,7=101,11=2,25=1,30=1,71=1,74=-58,75=-5/1,2,3;
 4//1;
 5/5=2,38=5/2;
 6/7=2,8=2,9=2,10=2,28=1/1;
 7//1,2,3,16;
 1/18=20,19=15,26=4/3(2);
 2/9=110/2;
 99//99;
 2/9=110/2;
 3/5=43,7=101,11=2,25=1,30=1,71=1,74=-58,75=-5/1,2,3;
 4/5=5,16=3,69=1/1;
 5/5=2,38=5/2;
 7//1,2,3,16;
 1/18=20,19=15,26=4/3(-5);
 2/9=110/2;
 6/7=2,8=2,9=2,10=2,19=2,28=1/1;
 99/9=1/99;
 ---------
 prod_3g_1
 ---------
 Symbolic Z-matrix:
 Charge =  0 Multiplicity = 1
 C                    -2.0297    2.80092  -0.47786 
 O                    -2.99797   1.81887  -0.19877 
 C                    -2.49435   0.5183   -0.0666 
 C                    -1.15126   0.17828  -0.20437 
 C                    -0.71126  -1.13144  -0.05578 
 N                     0.65174  -1.4709   -0.21447 
 C                     1.77931  -0.63288  -0.06069 
 C                     1.74907   0.4902    0.76519 
 C                     2.86255   1.28617   0.91163 
 C                     4.03059   0.97415   0.24359 
 C                     4.08297  -0.14377  -0.56614 
 C                     2.97173  -0.94282  -0.71402 
 C                    -1.65097  -2.12595   0.21436 
 C                    -2.98353  -1.80828   0.3545 
 C                    -3.4032   -0.50386   0.22 
 H                    -1.29324   2.83676   0.32577 
 H                    -1.54651   2.58584  -1.43162 
 H                    -2.52721   3.76899  -0.54458 
 H                    -0.43481   0.93172  -0.46523 
 H                     0.84329  -2.43225  -0.48625 
 H                     0.85256   0.70922   1.31748 
 H                     2.8248    2.15101   1.5537 
 H                     4.90152   1.59841   0.35882 
 H                     4.99577  -0.39087  -1.08319 
 H                     3.00736  -1.8124   -1.34678 
 H                    -1.3183   -3.14351   0.32151 
 H                    -3.70067  -2.58329   0.57016 
 H                    -4.44177  -0.24589   0.32707 
 

 GradGradGradGradGradGradGradGradGradGradGradGradGradGradGradGradGradGrad
 Berny optimization.
 Initialization pass.
                           ----------------------------
                           !    Initial Parameters    !
                           ! (Angstroms and Degrees)  !
 --------------------------                            --------------------------
 ! Name  Definition              Value          Derivative Info.                !
 --------------------------------------------------------------------------------
 ! R1    R(1,2)                  1.4071         estimate D2E/DX2                !
 ! R2    R(1,16)                 1.0906         estimate D2E/DX2                !
 ! R3    R(1,17)                 1.0906         estimate D2E/DX2                !
 ! R4    R(1,18)                 1.0905         estimate D2E/DX2                !
 ! R5    R(2,3)                  1.4009         estimate D2E/DX2                !
 ! R6    R(3,4)                  1.3923         estimate D2E/DX2                !
 ! R7    R(3,15)                 1.3975         estimate D2E/DX2                !
 ! R8    R(4,5)                  1.3896         estimate D2E/DX2                !
 ! R9    R(4,19)                 1.0719         estimate D2E/DX2                !
 ! R10   R(5,6)                  1.4136         estimate D2E/DX2                !
 ! R11   R(5,13)                 1.3947         estimate D2E/DX2                !
 ! R12   R(6,7)                  1.4133         estimate D2E/DX2                !
 ! R13   R(6,20)                 1.0172         estimate D2E/DX2                !
 ! R14   R(7,8)                  1.3944         estimate D2E/DX2                !
 ! R15   R(7,12)                 1.3945         estimate D2E/DX2                !
 ! R16   R(8,9)                  1.3765         estimate D2E/DX2                !
 ! R17   R(8,21)                 1.0755         estimate D2E/DX2                !
 ! R18   R(9,10)                 1.3813         estimate D2E/DX2                !
 ! R19   R(9,22)                 1.0778         estimate D2E/DX2                !
 ! R20   R(10,11)                1.3814         estimate D2E/DX2                !
 ! R21   R(10,23)                1.0777         estimate D2E/DX2                !
 ! R22   R(11,12)                1.3767         estimate D2E/DX2                !
 ! R23   R(11,24)                1.0778         estimate D2E/DX2                !
 ! R24   R(12,25)                1.076          estimate D2E/DX2                !
 ! R25   R(13,14)                1.3771         estimate D2E/DX2                !
 ! R26   R(13,26)                1.0759         estimate D2E/DX2                !
 ! R27   R(14,15)                1.3769         estimate D2E/DX2                !
 ! R28   R(14,27)                1.0777         estimate D2E/DX2                !
 ! R29   R(15,28)                1.0755         estimate D2E/DX2                !
 ! A1    A(2,1,16)             109.9658         estimate D2E/DX2                !
 ! A2    A(2,1,17)             109.9197         estimate D2E/DX2                !
 ! A3    A(2,1,18)             108.5286         estimate D2E/DX2                !
 ! A4    A(16,1,17)            110.5916         estimate D2E/DX2                !
 ! A5    A(16,1,18)            108.9042         estimate D2E/DX2                !
 ! A6    A(17,1,18)            108.8872         estimate D2E/DX2                !
 ! A7    A(1,2,3)              114.7887         estimate D2E/DX2                !
 ! A8    A(2,3,4)              124.3449         estimate D2E/DX2                !
 ! A9    A(2,3,15)             117.6836         estimate D2E/DX2                !
 ! A10   A(4,3,15)             117.9714         estimate D2E/DX2                !
 ! A11   A(3,4,5)              121.6707         estimate D2E/DX2                !
 ! A12   A(3,4,19)             119.8137         estimate D2E/DX2                !
 ! A13   A(5,4,19)             118.4807         estimate D2E/DX2                !
 ! A14   A(4,5,6)              121.3079         estimate D2E/DX2                !
 ! A15   A(4,5,13)             118.6495         estimate D2E/DX2                !
 ! A16   A(6,5,13)             120.0124         estimate D2E/DX2                !
 ! A17   A(5,6,7)              127.9292         estimate D2E/DX2                !
 ! A18   A(5,6,20)             116.0092         estimate D2E/DX2                !
 ! A19   A(7,6,20)             116.0545         estimate D2E/DX2                !
 ! A20   A(6,7,8)              121.6506         estimate D2E/DX2                !
 ! A21   A(6,7,12)             119.9628         estimate D2E/DX2                !
 ! A22   A(8,7,12)             118.3615         estimate D2E/DX2                !
 ! A23   A(7,8,9)              120.7439         estimate D2E/DX2                !
 ! A24   A(7,8,21)             119.0943         estimate D2E/DX2                !
 ! A25   A(9,8,21)             120.125          estimate D2E/DX2                !
 ! A26   A(8,9,10)             120.1291         estimate D2E/DX2                !
 ! A27   A(8,9,22)             119.9363         estimate D2E/DX2                !
 ! A28   A(10,9,22)            119.9335         estimate D2E/DX2                !
 ! A29   A(9,10,11)            119.8926         estimate D2E/DX2                !
 ! A30   A(9,10,23)            120.0532         estimate D2E/DX2                !
 ! A31   A(11,10,23)           120.0531         estimate D2E/DX2                !
 ! A32   A(10,11,12)           120.1385         estimate D2E/DX2                !
 ! A33   A(10,11,24)           119.9255         estimate D2E/DX2                !
 ! A34   A(12,11,24)           119.936          estimate D2E/DX2                !
 ! A35   A(7,12,11)            120.7222         estimate D2E/DX2                !
 ! A36   A(7,12,25)            118.909          estimate D2E/DX2                !
 ! A37   A(11,12,25)           120.365          estimate D2E/DX2                !
 ! A38   A(5,13,14)            120.4797         estimate D2E/DX2                !
 ! A39   A(5,13,26)            119.0365         estimate D2E/DX2                !
 ! A40   A(14,13,26)           120.481          estimate D2E/DX2                !
 ! A41   A(13,14,15)           120.2363         estimate D2E/DX2                !
 ! A42   A(13,14,27)           119.8945         estimate D2E/DX2                !
 ! A43   A(15,14,27)           119.8692         estimate D2E/DX2                !
 ! A44   A(3,15,14)            120.9811         estimate D2E/DX2                !
 ! A45   A(3,15,28)            118.2295         estimate D2E/DX2                !
 ! A46   A(14,15,28)           120.7883         estimate D2E/DX2                !
 ! D1    D(16,1,2,3)           -60.1335         estimate D2E/DX2                !
 ! D2    D(17,1,2,3)            61.8489         estimate D2E/DX2                !
 ! D3    D(18,1,2,3)          -179.1661         estimate D2E/DX2                !
 ! D4    D(1,2,3,4)             -0.5503         estimate D2E/DX2                !
 ! D5    D(1,2,3,15)           179.5794         estimate D2E/DX2                !
 ! D6    D(2,3,4,5)            179.7186         estimate D2E/DX2                !
 ! D7    D(2,3,4,19)            -2.4643         estimate D2E/DX2                !
 ! D8    D(15,3,4,5)            -0.4114         estimate D2E/DX2                !
 ! D9    D(15,3,4,19)          177.4056         estimate D2E/DX2                !
 ! D10   D(2,3,15,14)          179.5236         estimate D2E/DX2                !
 ! D11   D(2,3,15,28)           -0.1077         estimate D2E/DX2                !
 ! D12   D(4,3,15,14)           -0.3551         estimate D2E/DX2                !
 ! D13   D(4,3,15,28)         -179.9865         estimate D2E/DX2                !
 ! D14   D(3,4,5,6)            179.1666         estimate D2E/DX2                !
 ! D15   D(3,4,5,13)             1.1662         estimate D2E/DX2                !
 ! D16   D(19,4,5,6)             1.3214         estimate D2E/DX2                !
 ! D17   D(19,4,5,13)         -176.679          estimate D2E/DX2                !
 ! D18   D(4,5,6,7)             24.3377         estimate D2E/DX2                !
 ! D19   D(4,5,6,20)          -154.6493         estimate D2E/DX2                !
 ! D20   D(13,5,6,7)          -157.6888         estimate D2E/DX2                !
 ! D21   D(13,5,6,20)           23.3241         estimate D2E/DX2                !
 ! D22   D(4,5,13,14)           -1.1743         estimate D2E/DX2                !
 ! D23   D(4,5,13,26)          179.4367         estimate D2E/DX2                !
 ! D24   D(6,5,13,14)         -179.2013         estimate D2E/DX2                !
 ! D25   D(6,5,13,26)            1.4097         estimate D2E/DX2                !
 ! D26   D(5,6,7,8)             26.0244         estimate D2E/DX2                !
 ! D27   D(5,6,7,12)          -155.8278         estimate D2E/DX2                !
 ! D28   D(20,6,7,8)          -154.989          estimate D2E/DX2                !
 ! D29   D(20,6,7,12)           23.1588         estimate D2E/DX2                !
 ! D30   D(6,7,8,9)            179.3488         estimate D2E/DX2                !
 ! D31   D(6,7,8,21)             1.5544         estimate D2E/DX2                !
 ! D32   D(12,7,8,9)             1.1723         estimate D2E/DX2                !
 ! D33   D(12,7,8,21)         -176.6221         estimate D2E/DX2                !
 ! D34   D(6,7,12,11)         -179.4404         estimate D2E/DX2                !
 ! D35   D(6,7,12,25)            1.2674         estimate D2E/DX2                !
 ! D36   D(8,7,12,11)           -1.2322         estimate D2E/DX2                !
 ! D37   D(8,7,12,25)          179.4756         estimate D2E/DX2                !
 ! D38   D(7,8,9,10)            -0.3656         estimate D2E/DX2                !
 ! D39   D(7,8,9,22)          -179.9764         estimate D2E/DX2                !
 ! D40   D(21,8,9,10)          177.4062         estimate D2E/DX2                !
 ! D41   D(21,8,9,22)           -2.2046         estimate D2E/DX2                !
 ! D42   D(8,9,10,11)           -0.41           estimate D2E/DX2                !
 ! D43   D(8,9,10,23)          179.9756         estimate D2E/DX2                !
 ! D44   D(22,9,10,11)         179.2008         estimate D2E/DX2                !
 ! D45   D(22,9,10,23)          -0.4136         estimate D2E/DX2                !
 ! D46   D(9,10,11,12)           0.3502         estimate D2E/DX2                !
 ! D47   D(9,10,11,24)        -179.6503         estimate D2E/DX2                !
 ! D48   D(23,10,11,12)        179.9646         estimate D2E/DX2                !
 ! D49   D(23,10,11,24)         -0.0358         estimate D2E/DX2                !
 ! D50   D(10,11,12,7)           0.4856         estimate D2E/DX2                !
 ! D51   D(10,11,12,25)        179.7675         estimate D2E/DX2                !
 ! D52   D(24,11,12,7)        -179.514          estimate D2E/DX2                !
 ! D53   D(24,11,12,25)         -0.2321         estimate D2E/DX2                !
 ! D54   D(5,13,14,15)           0.44           estimate D2E/DX2                !
 ! D55   D(5,13,14,27)        -179.564          estimate D2E/DX2                !
 ! D56   D(26,13,14,15)        179.8201         estimate D2E/DX2                !
 ! D57   D(26,13,14,27)         -0.1839         estimate D2E/DX2                !
 ! D58   D(13,14,15,3)           0.3409         estimate D2E/DX2                !
 ! D59   D(13,14,15,28)        179.9628         estimate D2E/DX2                !
 ! D60   D(27,14,15,3)        -179.6551         estimate D2E/DX2                !
 ! D61   D(27,14,15,28)         -0.0332         estimate D2E/DX2                !
 --------------------------------------------------------------------------------
 Trust Radius=3.00D-01 FncErr=1.00D-07 GrdErr=1.00D-06 EigMax=2.50D+02 EigMin=1.00D-04
 Number of steps in this run=    146 maximum allowed number of steps=    168.
 GradGradGradGradGradGradGradGradGradGradGradGradGradGradGradGradGradGrad

                          Input orientation:                          
 ---------------------------------------------------------------------
 Center     Atomic      Atomic             Coordinates (Angstroms)
 Number     Number       Type             X           Y           Z
 ---------------------------------------------------------------------
      1          6           0       -2.029700    2.800920   -0.477860
      2          8           0       -2.997970    1.818870   -0.198770
      3          6           0       -2.494350    0.518300   -0.066600
      4          6           0       -1.151260    0.178280   -0.204370
      5          6           0       -0.711260   -1.131440   -0.055780
      6          7           0        0.651740   -1.470900   -0.214470
      7          6           0        1.779310   -0.632880   -0.060690
      8          6           0        1.749070    0.490200    0.765190
      9          6           0        2.862550    1.286170    0.911630
     10          6           0        4.030590    0.974150    0.243590
     11          6           0        4.082970   -0.143770   -0.566140
     12          6           0        2.971730   -0.942820   -0.714020
     13          6           0       -1.650970   -2.125950    0.214360
     14          6           0       -2.983530   -1.808280    0.354500
     15          6           0       -3.403200   -0.503860    0.220000
     16          1           0       -1.293240    2.836760    0.325770
     17          1           0       -1.546510    2.585840   -1.431620
     18          1           0       -2.527210    3.768990   -0.544580
     19          1           0       -0.434810    0.931720   -0.465230
     20          1           0        0.843290   -2.432250   -0.486250
     21          1           0        0.852560    0.709220    1.317480
     22          1           0        2.824800    2.151010    1.553700
     23          1           0        4.901520    1.598410    0.358820
     24          1           0        4.995770   -0.390870   -1.083190
     25          1           0        3.007360   -1.812400   -1.346780
     26          1           0       -1.318300   -3.143510    0.321510
     27          1           0       -3.700670   -2.583290    0.570160
     28          1           0       -4.441770   -0.245890    0.327070
 ---------------------------------------------------------------------
                    Distance matrix (angstroms):
                    1          2          3          4          5
     1  C    0.000000
     2  O    1.407075   0.000000
     3  C    2.365457   1.400923   0.000000
     4  C    2.779333   2.470203   1.392295   0.000000
     5  C    4.168920   3.735481   2.429232   1.389621   0.000000
     6  N    5.050539   4.913575   3.725140   2.443503   1.413572
     7  C    5.145247   5.371457   4.425994   3.044153   2.539985
     8  C    4.600402   5.022845   4.324266   3.073964   3.058910
     9  C    5.306530   5.988527   5.499358   4.310864   4.421859
    10  C    6.370612   7.092946   6.548195   5.261715   5.196948
    11  C    6.785553   7.357080   6.629405   5.256592   4.921443
    12  C    6.251853   6.597707   5.694915   4.302982   3.746101
    13  C    4.989655   4.188877   2.789675   2.394686   1.394661
    14  C    4.779889   3.669133   2.414456   2.759705   2.406170
    15  C    3.646242   2.394714   1.397483   2.390949   2.777850
    16  H    1.090632   2.053618   2.640431   2.714539   4.028758
    17  H    1.090592   2.053022   2.652622   2.731064   4.050771
    18  H    1.090471   2.035723   3.285807   3.860334   5.248887
    19  H    2.457182   2.725404   2.138113   1.071924   2.121486
    20  H    5.969942   5.736719   4.474561   3.297355   2.072206
    21  H    3.988217   4.284497   3.626835   2.571618   2.778382
    22  H    5.302432   6.089837   5.795211   4.774047   5.086121
    23  H    7.084340   7.922213   7.486422   6.242603   6.255180
    24  H    7.740231   8.340565   7.613274   6.235562   5.845871
    25  H    6.885471   7.111121   6.110633   4.749950   3.994812
    26  H    6.039978   5.264713   3.865563   3.367305   2.135245
    27  H    5.734126   4.523721   3.388293   3.837402   3.381751
    28  H    3.968507   2.573772   2.128710   3.360030   3.853243
                    6          7          8          9         10
     6  N    0.000000
     7  C    1.413273   0.000000
     8  C    2.451485   1.394382   0.000000
     9  C    3.709072   2.408644   1.376536   0.000000
    10  C    4.195797   2.782695   2.389897   1.381286   0.000000
    11  C    3.695712   2.408642   2.760697   2.391225   1.381359
    12  C    2.431208   1.394550   2.395100   2.760988   2.390183
    13  C    2.432172   3.751231   4.325266   5.700931   6.472372
    14  C    3.694961   4.923271   5.277232   6.637972   7.546661
    15  C    4.191237   5.191709   5.275535   6.553028   7.579334
    16  H    4.757178   4.650625   3.867180   4.474165   5.640854
    17  H    4.771886   4.827078   4.480907   5.159435   6.042178
    18  H    6.137682   6.177113   5.545497   6.110193   7.171965
    19  H    2.648784   2.741159   2.545232   3.590816   4.521507
    20  H    1.017226   2.072430   3.305640   4.456246   4.721770
    21  H    2.672101   2.135287   1.075511   2.130175   3.365011
    22  H    4.578957   3.383689   2.130078   1.077788   2.134319
    23  H    5.273515   3.860420   3.366186   2.135531   1.077728
    24  H    4.559796   3.383739   3.838470   3.367848   2.134291
    25  H    2.635848   2.133870   3.368335   3.836994   3.367661
    26  H    2.639310   4.005562   4.775925   6.119625   6.750690
    27  H    4.560321   5.850833   6.259716   7.626610   8.516713
    28  H    5.266665   6.245155   6.249822   7.486121   8.560161
                   11         12         13         14         15
    11  C    0.000000
    12  C    1.376664   0.000000
    13  C    6.116885   4.861177   0.000000
    14  C    7.318032   6.111945   1.377051   0.000000
    15  C    7.535942   6.457926   2.387785   1.376853   0.000000
    16  H    6.211497   5.792785   4.976834   4.943107   3.952576
    17  H    6.315922   5.777619   4.992106   4.956162   3.965021
    18  H    7.681447   7.243494   6.007837   5.667673   4.428226
    19  H    4.645126   3.896192   3.360094   3.830866   3.367754
    20  H    3.967247   2.607784   2.608832   3.967461   4.717007
    21  H    3.835514   3.368547   3.939889   4.688360   4.559333
    22  H    3.367897   3.838740   6.333935   7.130972   6.900368
    23  H    2.135595   3.366441   7.538359   8.589503   8.567799
    24  H    1.077777   2.130181   6.990944   8.230749   8.500222
    25  H    2.133228   1.076022   4.922957   6.227771   6.727730
    26  H    6.241801   4.931502   1.075908   2.134694   3.365244
    27  H    8.235744   6.990077   2.130029   1.077701   2.129584
    28  H    8.572015   7.518614   3.366882   2.137353   1.075472
                   16         17         18         19         20
    16  H    0.000000
    17  H    1.793189   0.000000
    18  H    1.774611   1.774389   0.000000
    19  H    2.234225   2.214927   3.526264   0.000000
    20  H    5.743396   5.637916   7.058261   3.598649   0.000000
    21  H    3.180310   4.103022   4.924663   2.210177   3.622480
    22  H    4.351588   5.311268   5.971989   4.023407   5.393890
    23  H    6.317409   6.764450   7.791892   5.440584   5.781833
    24  H    7.207941   7.196085   8.613348   5.623372   4.665475
    25  H    6.550364   6.331623   7.901070   4.489528   2.409964
    26  H    5.980324   5.995915   7.070660   4.243467   2.414713
    27  H    5.935688   5.947052   6.555236   4.908479   4.667589
    28  H    4.406356   4.415225   4.532612   4.250910   5.776982
                   21         22         23         24         25
    21  H    0.000000
    22  H    2.454443   0.000000
    23  H    4.254852   2.458835   0.000000
    24  H    4.913207   4.257635   2.458762   0.000000
    25  H    4.254411   4.914746   4.257997   2.458455   0.000000
    26  H    4.533003   6.834875   7.821340   7.029772   4.823524
    27  H    5.668422   8.121743   9.567076   9.119668   7.019017
    28  H    5.470199   7.749374   9.523629   9.543428   7.793925
                   26         27         28
    26  H    0.000000
    27  H    2.459951   0.000000
    28  H    4.260551   2.464094   0.000000
 Stoichiometry    C13H13NO
 Framework group  C1[X(C13H13NO)]
 Deg. of freedom    78
 Full point group                 C1      NOp   1
 Largest Abelian subgroup         C1      NOp   1
 Largest concise Abelian subgroup C1      NOp   1
                         Standard orientation:                         
 ---------------------------------------------------------------------
 Center     Atomic      Atomic             Coordinates (Angstroms)
 Number     Number       Type             X           Y           Z
 ---------------------------------------------------------------------
      1          6           0       -2.032712    2.785239   -0.486916
      2          8           0       -3.003666    1.805951   -0.207450
      3          6           0       -2.503078    0.504677   -0.070769
      4          6           0       -1.160401    0.161485   -0.204639
      5          6           0       -0.723488   -1.148763   -0.051658
      6          7           0        0.639147   -1.491491   -0.206404
      7          6           0        1.768129   -0.655439   -0.052271
      8          6           0        1.738399    0.469849    0.770617
      9          6           0        2.853219    1.263862    0.917488
     10          6           0        4.022094    0.947656    0.252886
     11          6           0        4.073938   -0.172476   -0.553816
     12          6           0        2.961355   -0.969577   -0.702114
     13          6           0       -1.665889   -2.140595    0.218956
     14          6           0       -2.998089   -1.819769    0.355277
     15          6           0       -3.414714   -0.514826    0.216445
     16          1           0       -1.297980    2.821628    0.318269
     17          1           0       -1.547840    2.566664   -1.439027
     18          1           0       -2.528035    3.754173   -0.557269
     19          1           0       -0.441786    0.912740   -0.465847
     20          1           0        0.829285   -2.453945   -0.475253
     21          1           0        0.841117    0.692185    1.320322
     22          1           0        2.815849    2.130448    1.557222
     23          1           0        4.894074    1.570387    0.368448
     24          1           0        4.987373   -0.422834   -1.068171
     25          1           0        2.996575   -1.840875   -1.332530
     26          1           0       -1.335599   -3.158567    0.329497
     27          1           0       -3.717338   -2.592710    0.571340
     28          1           0       -4.452977   -0.254402    0.320512
 ---------------------------------------------------------------------
 Rotational constants (GHZ):           1.1171063           0.3588880           0.2856757
 Standard basis: def2SVP (5D, 7F)
 There are   290 symmetry adapted cartesian basis functions of A   symmetry.
 There are   275 symmetry adapted basis functions of A   symmetry.
   275 basis functions,   466 primitive gaussians,   290 cartesian basis functions
    53 alpha electrons       53 beta electrons
       nuclear repulsion energy       910.5391761663 Hartrees.
 NAtoms=   28 NActive=   28 NUniq=   28 SFac= 1.00D+00 NAtFMM=   60 NAOKFM=F Big=F
 Integral buffers will be    131072 words long.
 Raffenetti 2 integral format.
 Two-electron integral symmetry is turned on.
 Nuclear repulsion after empirical dispersion term =      910.5222840990 Hartrees.
 One-electron integrals computed using PRISM.
   1 Symmetry operations used in ECPInt.
 ECPInt:  NShTT=    8385 NPrTT=   30369 LenC2=    7904 LenP2D=   20783.
 LDataN:  DoStor=T MaxTD1= 4 Len=   56
 NBasis=   275 RedAO= T EigKep=  2.18D-04  NBF=   275
 NBsUse=   275 1.00D-06 EigRej= -1.00D+00 NBFU=   275
 ExpMin= 1.22D-01 ExpMax= 2.27D+03 ExpMxC= 3.41D+02 IAcc=3 IRadAn=         5 AccDes= 0.00D+00
 Harris functional with IExCor= 4639 and IRadAn=       5 diagonalized for initial guess.
 HarFok:  IExCor= 4639 AccDes= 0.00D+00 IRadAn=         5 IDoV= 1 UseB2=F ITyADJ=14
 ICtDFT=  3500011 ScaDFX=  1.000000  1.000000  1.000000  1.000000
 FoFCou: FMM=F IPFlag=           0 FMFlag=      100000 FMFlg1=           0
         NFxFlg=           0 DoJE=T BraDBF=F KetDBF=T FulRan=T
         wScrn=  0.000000 ICntrl=       500 IOpCl=  0 I1Cent=   200000004 NGrid=           0
         NMat0=    1 NMatS0=      1 NMatT0=    0 NMatD0=    1 NMtDS0=    0 NMtDT0=    0
 Petite list used in FoFCou.
 Requested convergence on RMS density matrix=1.00D-08 within 128 cycles.
 Requested convergence on MAX density matrix=1.00D-06.
 Requested convergence on             energy=1.00D-06.
 No special actions if energy rises.
 Integral accuracy reduced to 1.0D-05 until final iterations.
 Initial convergence to 1.0D-05 achieved.  Increase integral accuracy.
 SCF Done:  E(RwB97XD) =  -632.509208128     A.U. after   15 cycles
            NFock= 15  Conv=0.45D-08     -V/T= 2.0103

 **********************************************************************

            Population analysis using the SCF Density.

 **********************************************************************

 Orbital symmetries:
       Occupied  (A) (A) (A) (A) (A) (A) (A) (A) (A) (A) (A) (A)
                 (A) (A) (A) (A) (A) (A) (A) (A) (A) (A) (A) (A)
                 (A) (A) (A) (A) (A) (A) (A) (A) (A) (A) (A) (A)
                 (A) (A) (A) (A) (A) (A) (A) (A) (A) (A) (A) (A)
                 (A) (A) (A) (A) (A)
       Virtual   (A) (A) (A) (A) (A) (A) (A) (A) (A) (A) (A) (A)
                 (A) (A) (A) (A) (A) (A) (A) (A) (A) (A) (A) (A)
                 (A) (A) (A) (A) (A) (A) (A) (A) (A) (A) (A) (A)
                 (A) (A) (A) (A) (A) (A) (A) (A) (A) (A) (A) (A)
                 (A) (A) (A) (A) (A) (A) (A) (A) (A) (A) (A) (A)
                 (A) (A) (A) (A) (A) (A) (A) (A) (A) (A) (A) (A)
                 (A) (A) (A) (A) (A) (A) (A) (A) (A) (A) (A) (A)
                 (A) (A) (A) (A) (A) (A) (A) (A) (A) (A) (A) (A)
                 (A) (A) (A) (A) (A) (A) (A) (A) (A) (A) (A) (A)
                 (A) (A) (A) (A) (A) (A) (A) (A) (A) (A) (A) (A)
                 (A) (A) (A) (A) (A) (A) (A) (A) (A) (A) (A) (A)
                 (A) (A) (A) (A) (A) (A) (A) (A) (A) (A) (A) (A)
                 (A) (A) (A) (A) (A) (A) (A) (A) (A) (A) (A) (A)
                 (A) (A) (A) (A) (A) (A) (A) (A) (A) (A) (A) (A)
                 (A) (A) (A) (A) (A) (A) (A) (A) (A) (A) (A) (A)
                 (A) (A) (A) (A) (A) (A) (A) (A) (A) (A) (A) (A)
                 (A) (A) (A) (A) (A) (A) (A) (A) (A) (A) (A) (A)
                 (A) (A) (A) (A) (A) (A) (A) (A) (A) (A) (A) (A)
                 (A) (A) (A) (A) (A) (A)
 The electronic state is 1-A.
 Alpha  occ. eigenvalues --  -19.28381 -14.47048 -10.36005 -10.34760 -10.34683
 Alpha  occ. eigenvalues --  -10.34676 -10.30063 -10.29996 -10.29985 -10.29776
 Alpha  occ. eigenvalues --  -10.29478 -10.29232 -10.29136 -10.28990 -10.28578
 Alpha  occ. eigenvalues --   -1.14712  -1.04037  -0.95862  -0.93710  -0.85592
 Alpha  occ. eigenvalues --   -0.84769  -0.84071  -0.81915  -0.78113  -0.71723
 Alpha  occ. eigenvalues --   -0.71225  -0.68493  -0.67990  -0.63361  -0.62559
 Alpha  occ. eigenvalues --   -0.58730  -0.57290  -0.56812  -0.55869  -0.55621
 Alpha  occ. eigenvalues --   -0.53551  -0.52884  -0.51991  -0.51290  -0.49841
 Alpha  occ. eigenvalues --   -0.48645  -0.46789  -0.45835  -0.44865  -0.43893
 Alpha  occ. eigenvalues --   -0.43100  -0.42275  -0.41368  -0.38948  -0.33777
 Alpha  occ. eigenvalues --   -0.33673  -0.30728  -0.26621
 Alpha virt. eigenvalues --    0.05190   0.06142   0.07345   0.09560   0.13823
 Alpha virt. eigenvalues --    0.14341   0.15464   0.16398   0.18397   0.19835
 Alpha virt. eigenvalues --    0.19984   0.20770   0.21334   0.22470   0.23271
 Alpha virt. eigenvalues --    0.23529   0.24324   0.24741   0.25964   0.26837
 Alpha virt. eigenvalues --    0.29837   0.31802   0.34800   0.36003   0.37328
 Alpha virt. eigenvalues --    0.38025   0.38540   0.38693   0.39612   0.40701
 Alpha virt. eigenvalues --    0.41268   0.43500   0.45368   0.47721   0.48898
 Alpha virt. eigenvalues --    0.49262   0.50207   0.51598   0.53203   0.53797
 Alpha virt. eigenvalues --    0.54270   0.55005   0.56217   0.56531   0.57782
 Alpha virt. eigenvalues --    0.57940   0.58432   0.58918   0.59852   0.61660
 Alpha virt. eigenvalues --    0.62041   0.63866   0.64277   0.65473   0.65937
 Alpha virt. eigenvalues --    0.67679   0.68818   0.69714   0.71120   0.72510
 Alpha virt. eigenvalues --    0.72889   0.73452   0.73754   0.75072   0.75122
 Alpha virt. eigenvalues --    0.75878   0.76293   0.77098   0.77971   0.79330
 Alpha virt. eigenvalues --    0.80018   0.80388   0.80660   0.81437   0.81828
 Alpha virt. eigenvalues --    0.83506   0.84345   0.84600   0.85328   0.86476
 Alpha virt. eigenvalues --    0.88528   0.89040   0.91257   0.92567   0.93427
 Alpha virt. eigenvalues --    0.94257   0.96663   0.99677   1.02611   1.03601
 Alpha virt. eigenvalues --    1.05009   1.10080   1.10660   1.13004   1.16756
 Alpha virt. eigenvalues --    1.17674   1.20874   1.21807   1.26229   1.27134
 Alpha virt. eigenvalues --    1.28152   1.30108   1.30800   1.31783   1.33105
 Alpha virt. eigenvalues --    1.34505   1.34690   1.36263   1.37601   1.37998
 Alpha virt. eigenvalues --    1.38334   1.40302   1.42094   1.44147   1.46012
 Alpha virt. eigenvalues --    1.54064   1.54843   1.56253   1.59433   1.60695
 Alpha virt. eigenvalues --    1.62085   1.69808   1.72853   1.75537   1.76309
 Alpha virt. eigenvalues --    1.76834   1.78552   1.79021   1.79764   1.80564
 Alpha virt. eigenvalues --    1.81375   1.82768   1.83363   1.83857   1.84742
 Alpha virt. eigenvalues --    1.86080   1.86297   1.87008   1.87906   1.88718
 Alpha virt. eigenvalues --    1.89536   1.90425   1.90957   1.92262   1.93465
 Alpha virt. eigenvalues --    1.95809   1.95929   1.97526   1.98968   2.00344
 Alpha virt. eigenvalues --    2.00963   2.03474   2.04343   2.06454   2.07362
 Alpha virt. eigenvalues --    2.08384   2.10262   2.12288   2.14623   2.17480
 Alpha virt. eigenvalues --    2.19903   2.20955   2.22532   2.23256   2.23927
 Alpha virt. eigenvalues --    2.24521   2.27345   2.28043   2.29189   2.29669
 Alpha virt. eigenvalues --    2.32526   2.33958   2.35687   2.37542   2.38843
 Alpha virt. eigenvalues --    2.40291   2.41105   2.42082   2.42668   2.42837
 Alpha virt. eigenvalues --    2.45533   2.47683   2.49808   2.52606   2.54533
 Alpha virt. eigenvalues --    2.59183   2.66125   2.68008   2.69538   2.70762
 Alpha virt. eigenvalues --    2.72553   2.74276   2.77061   2.77872   2.78400
 Alpha virt. eigenvalues --    2.81550   2.84602   2.84853   2.85384   2.86490
 Alpha virt. eigenvalues --    2.90682   2.92437   2.96834   2.97540   2.98328
 Alpha virt. eigenvalues --    2.99338   3.00733   3.05732   3.07970   3.13596
 Alpha virt. eigenvalues --    3.14670   3.16201   3.20048   3.24009   3.25842
 Alpha virt. eigenvalues --    3.29102   3.37921   3.49547   3.54822   3.59488
 Alpha virt. eigenvalues --    3.80210   3.82416
          Condensed to atoms (all electrons):
               1          2          3          4          5          6
     1  C    4.390056   0.300366  -0.057783   0.001589   0.001348  -0.000007
     2  O    0.300366   7.908952   0.390996  -0.084795   0.005153  -0.000010
     3  C   -0.057783   0.390996   4.984334   0.159787   0.158017   0.007224
     4  C    0.001589  -0.084795   0.159787   5.580821   0.157457  -0.083008
     5  C    0.001348   0.005153   0.158017   0.157457   5.089644   0.359164
     6  N   -0.000007  -0.000010   0.007224  -0.083008   0.359164   6.454213
     7  C   -0.000014  -0.000004   0.000096  -0.011839  -0.035979   0.351457
     8  C   -0.000440   0.000021  -0.000138  -0.005392  -0.010972  -0.077819
     9  C   -0.000010  -0.000000  -0.000016  -0.000658   0.000371   0.007340
    10  C   -0.000001   0.000000   0.000001  -0.000043   0.000047  -0.000312
    11  C    0.000000  -0.000000  -0.000000   0.000060  -0.000294   0.007766
    12  C   -0.000001   0.000000  -0.000003  -0.000008   0.007381  -0.083589
    13  C    0.000085  -0.000251  -0.168147   0.067842   0.249340  -0.084469
    14  C   -0.000307   0.004042   0.133679  -0.157573   0.137808   0.008378
    15  C    0.006375  -0.067075   0.288225   0.048295  -0.154833  -0.000555
    16  H    0.401926  -0.030406  -0.009704   0.005531   0.000835   0.000025
    17  H    0.403987  -0.030065  -0.009495   0.004043   0.001034   0.000003
    18  H    0.396143  -0.020603   0.004902   0.000564  -0.000055  -0.000001
    19  H    0.011506  -0.008892  -0.082235   0.459587  -0.063000  -0.011402
    20  H    0.000001   0.000001   0.000018   0.009350  -0.018844   0.361677
    21  H   -0.000106   0.000034   0.000934   0.001203   0.004286  -0.010888
    22  H    0.000002  -0.000000  -0.000003   0.000043  -0.000020  -0.000113
    23  H    0.000000   0.000000  -0.000000   0.000001   0.000000   0.000009
    24  H   -0.000000  -0.000000  -0.000000   0.000000   0.000004  -0.000119
    25  H    0.000000  -0.000000   0.000001   0.000005  -0.000067  -0.009996
    26  H    0.000000   0.000004  -0.002289   0.019568  -0.080133  -0.010578
    27  H    0.000007  -0.000061   0.015168  -0.002544   0.015658  -0.000126
    28  H   -0.000254   0.001043  -0.068225   0.021448  -0.002713   0.000009
               7          8          9         10         11         12
     1  C   -0.000014  -0.000440  -0.000010  -0.000001   0.000000  -0.000001
     2  O   -0.000004   0.000021  -0.000000   0.000000  -0.000000   0.000000
     3  C    0.000096  -0.000138  -0.000016   0.000001  -0.000000  -0.000003
     4  C   -0.011839  -0.005392  -0.000658  -0.000043   0.000060  -0.000008
     5  C   -0.035979  -0.010972   0.000371   0.000047  -0.000294   0.007381
     6  N    0.351457  -0.077819   0.007340  -0.000312   0.007766  -0.083589
     7  C    5.079721   0.247142   0.116988  -0.161119   0.114217   0.276195
     8  C    0.247142   5.208573   0.288839   0.081040  -0.146210   0.056947
     9  C    0.116988   0.288839   5.029091   0.286369   0.095306  -0.145790
    10  C   -0.161119   0.081040   0.286369   5.100742   0.288110   0.080373
    11  C    0.114217  -0.146210   0.095306   0.288110   5.021245   0.295233
    12  C    0.276195   0.056947  -0.145790   0.080373   0.295233   5.173069
    13  C    0.007795  -0.000130   0.000004   0.000000  -0.000006  -0.000105
    14  C   -0.000331   0.000077   0.000001  -0.000000   0.000000  -0.000007
    15  C    0.000083  -0.000076   0.000000  -0.000000  -0.000000   0.000001
    16  H    0.000034   0.000330   0.000115  -0.000002  -0.000001   0.000003
    17  H    0.000013   0.000073   0.000021  -0.000000  -0.000000  -0.000000
    18  H   -0.000000   0.000007  -0.000001   0.000000  -0.000000  -0.000000
    19  H    0.005230   0.002192   0.001269  -0.000162   0.000075  -0.000753
    20  H   -0.019998   0.008650  -0.000165  -0.000035   0.000413  -0.016439
    21  H   -0.072128   0.460142  -0.064855   0.014601  -0.002290   0.015013
    22  H    0.015307  -0.068896   0.454114  -0.071477   0.014232  -0.001959
    23  H   -0.001679   0.015082  -0.069799   0.453294  -0.070369   0.014664
    24  H    0.015197  -0.001902   0.013976  -0.069487   0.451060  -0.066932
    25  H   -0.079646   0.017219  -0.002580   0.015242  -0.062006   0.451198
    26  H   -0.000044  -0.000004  -0.000000   0.000000  -0.000001  -0.000019
    27  H    0.000005  -0.000000  -0.000000   0.000000   0.000000  -0.000000
    28  H    0.000000   0.000000  -0.000000  -0.000000  -0.000000   0.000000
              13         14         15         16         17         18
     1  C    0.000085  -0.000307   0.006375   0.401926   0.403987   0.396143
     2  O   -0.000251   0.004042  -0.067075  -0.030406  -0.030065  -0.020603
     3  C   -0.168147   0.133679   0.288225  -0.009704  -0.009495   0.004902
     4  C    0.067842  -0.157573   0.048295   0.005531   0.004043   0.000564
     5  C    0.249340   0.137808  -0.154833   0.000835   0.001034  -0.000055
     6  N   -0.084469   0.008378  -0.000555   0.000025   0.000003  -0.000001
     7  C    0.007795  -0.000331   0.000083   0.000034   0.000013  -0.000000
     8  C   -0.000130   0.000077  -0.000076   0.000330   0.000073   0.000007
     9  C    0.000004   0.000001   0.000000   0.000115   0.000021  -0.000001
    10  C    0.000000  -0.000000  -0.000000  -0.000002  -0.000000   0.000000
    11  C   -0.000006   0.000000  -0.000000  -0.000001  -0.000000  -0.000000
    12  C   -0.000105  -0.000007   0.000001   0.000003  -0.000000  -0.000000
    13  C    5.252987   0.244049   0.098890  -0.000105  -0.000088   0.000006
    14  C    0.244049   5.052844   0.261441   0.000034   0.000032   0.000006
    15  C    0.098890   0.261441   5.174439  -0.000154  -0.000258  -0.000090
    16  H   -0.000105   0.000034  -0.000154   0.663657  -0.042215  -0.023558
    17  H   -0.000088   0.000032  -0.000258  -0.042215   0.654832  -0.023388
    18  H    0.000006   0.000006  -0.000090  -0.023558  -0.023388   0.613990
    19  H    0.016614  -0.002259   0.013515   0.000469   0.001904  -0.000523
    20  H   -0.017813   0.000406  -0.000058  -0.000000  -0.000001   0.000000
    21  H   -0.000687   0.000070  -0.000138   0.000686  -0.000040  -0.000010
    22  H    0.000000  -0.000000   0.000000   0.000031  -0.000002  -0.000000
    23  H    0.000000  -0.000000  -0.000000  -0.000000  -0.000000   0.000000
    24  H   -0.000000   0.000000  -0.000000   0.000000   0.000000   0.000000
    25  H   -0.000028  -0.000001   0.000000  -0.000000   0.000000   0.000000
    26  H    0.451800  -0.065508   0.015354  -0.000000   0.000000  -0.000000
    27  H   -0.070152   0.457848  -0.072404  -0.000000  -0.000000  -0.000000
    28  H    0.015524  -0.076664   0.447005   0.000089   0.000080  -0.000093
              19         20         21         22         23         24
     1  C    0.011506   0.000001  -0.000106   0.000002   0.000000  -0.000000
     2  O   -0.008892   0.000001   0.000034  -0.000000   0.000000  -0.000000
     3  C   -0.082235   0.000018   0.000934  -0.000003  -0.000000  -0.000000
     4  C    0.459587   0.009350   0.001203   0.000043   0.000001   0.000000
     5  C   -0.063000  -0.018844   0.004286  -0.000020   0.000000   0.000004
     6  N   -0.011402   0.361677  -0.010888  -0.000113   0.000009  -0.000119
     7  C    0.005230  -0.019998  -0.072128   0.015307  -0.001679   0.015197
     8  C    0.002192   0.008650   0.460142  -0.068896   0.015082  -0.001902
     9  C    0.001269  -0.000165  -0.064855   0.454114  -0.069799   0.013976
    10  C   -0.000162  -0.000035   0.014601  -0.071477   0.453294  -0.069487
    11  C    0.000075   0.000413  -0.002290   0.014232  -0.070369   0.451060
    12  C   -0.000753  -0.016439   0.015013  -0.001959   0.014664  -0.066932
    13  C    0.016614  -0.017813  -0.000687   0.000000   0.000000  -0.000000
    14  C   -0.002259   0.000406   0.000070  -0.000000  -0.000000   0.000000
    15  C    0.013515  -0.000058  -0.000138   0.000000  -0.000000  -0.000000
    16  H    0.000469  -0.000000   0.000686   0.000031  -0.000000   0.000000
    17  H    0.001904  -0.000001  -0.000040  -0.000002  -0.000000   0.000000
    18  H   -0.000523   0.000000  -0.000010  -0.000000   0.000000   0.000000
    19  H    0.667004  -0.000259  -0.004441   0.000070  -0.000002  -0.000002
    20  H   -0.000259   0.544792  -0.000183   0.000010  -0.000001  -0.000015
    21  H   -0.004441  -0.000183   0.657073  -0.013024  -0.000230   0.000021
    22  H    0.000070   0.000010  -0.013024   0.673091  -0.012390  -0.000266
    23  H   -0.000002  -0.000001  -0.000230  -0.012390   0.676055  -0.012387
    24  H   -0.000002  -0.000015   0.000021  -0.000266  -0.012387   0.671427
    25  H   -0.000022   0.005419  -0.000198   0.000025  -0.000238  -0.013209
    26  H   -0.000229   0.005411  -0.000015  -0.000000   0.000000   0.000000
    27  H    0.000007  -0.000010  -0.000001   0.000000   0.000000  -0.000000
    28  H   -0.000185  -0.000001  -0.000002   0.000000  -0.000000   0.000000
              25         26         27         28
     1  C    0.000000   0.000000   0.000007  -0.000254
     2  O   -0.000000   0.000004  -0.000061   0.001043
     3  C    0.000001  -0.002289   0.015168  -0.068225
     4  C    0.000005   0.019568  -0.002544   0.021448
     5  C   -0.000067  -0.080133   0.015658  -0.002713
     6  N   -0.009996  -0.010578  -0.000126   0.000009
     7  C   -0.079646  -0.000044   0.000005   0.000000
     8  C    0.017219  -0.000004  -0.000000   0.000000
     9  C   -0.002580  -0.000000  -0.000000  -0.000000
    10  C    0.015242   0.000000   0.000000  -0.000000
    11  C   -0.062006  -0.000001   0.000000  -0.000000
    12  C    0.451198  -0.000019  -0.000000   0.000000
    13  C   -0.000028   0.451800  -0.070152   0.015524
    14  C   -0.000001  -0.065508   0.457848  -0.076664
    15  C    0.000000   0.015354  -0.072404   0.447005
    16  H   -0.000000  -0.000000  -0.000000   0.000089
    17  H    0.000000   0.000000  -0.000000   0.000080
    18  H    0.000000  -0.000000  -0.000000  -0.000093
    19  H   -0.000022  -0.000229   0.000007  -0.000185
    20  H    0.005419   0.005411  -0.000010  -0.000001
    21  H   -0.000198  -0.000015  -0.000001  -0.000002
    22  H    0.000025  -0.000000   0.000000   0.000000
    23  H   -0.000238   0.000000   0.000000  -0.000000
    24  H   -0.013209   0.000000  -0.000000   0.000000
    25  H    0.691235  -0.000016   0.000000   0.000000
    26  H   -0.000016   0.698228  -0.013022  -0.000208
    27  H    0.000000  -0.013022   0.668469  -0.013155
    28  H    0.000000  -0.000208  -0.013155   0.671518
 Mulliken charges:
               1
     1  C    0.145531
     2  O   -0.368451
     3  C    0.254655
     4  C   -0.191329
     5  C    0.179361
     6  N   -0.184274
     7  C    0.153299
     8  C   -0.074357
     9  C   -0.009930
    10  C   -0.017182
    11  C   -0.006543
    12  C   -0.054473
    13  C   -0.062955
    14  C    0.001935
    15  C   -0.057981
    16  H    0.032379
    17  H    0.039529
    18  H    0.052705
    19  H   -0.005077
    20  H    0.137672
    21  H    0.015173
    22  H    0.011224
    23  H    0.007990
    24  H    0.012635
    25  H   -0.012336
    26  H   -0.018296
    27  H    0.014315
    28  H    0.004782
 Sum of Mulliken charges =  -0.00000
 Mulliken charges with hydrogens summed into heavy atoms:
               1
     1  C    0.270144
     2  O   -0.368451
     3  C    0.254655
     4  C   -0.196406
     5  C    0.179361
     6  N   -0.046602
     7  C    0.153299
     8  C   -0.059184
     9  C    0.001294
    10  C   -0.009192
    11  C    0.006092
    12  C   -0.066810
    13  C   -0.081251
    14  C    0.016250
    15  C   -0.053199
 Electronic spatial extent (au):  <R**2>=           3761.9352
 Charge=             -0.0000 electrons
 Dipole moment (field-independent basis, Debye):
    X=              1.3490    Y=             -0.2549    Z=             -0.4869  Tot=              1.4567
 Quadrupole moment (field-independent basis, Debye-Ang):
   XX=            -88.8711   YY=            -75.4731   ZZ=            -90.6353
   XY=              1.2050   XZ=             -2.4336   YZ=              2.0478
 Traceless Quadrupole moment (field-independent basis, Debye-Ang):
   XX=             -3.8780   YY=              9.5201   ZZ=             -5.6421
   XY=              1.2050   XZ=             -2.4336   YZ=              2.0478
 Octapole moment (field-independent basis, Debye-Ang**2):
  XXX=             16.9383  YYY=              5.7953  ZZZ=             -3.3752  XYY=             -7.1492
  XXY=             -8.2889  XXZ=             -6.0353  XZZ=             -0.9735  YZZ=              7.3073
  YYZ=             -3.7395  XYZ=             14.8108
 Hexadecapole moment (field-independent basis, Debye-Ang**3):
 XXXX=          -3554.4153 YYYY=          -1047.2485 ZZZZ=           -235.1261 XXXY=             75.2994
 XXXZ=            -74.8413 YYYX=            -54.9258 YYYZ=             -0.8155 ZZZX=              3.3639
 ZZZY=              4.6839 XXYY=           -779.1360 XXZZ=           -681.0608 YYZZ=           -233.1445
 XXYZ=             17.2313 YYXZ=              2.6349 ZZXY=            -18.4126
 N-N= 9.105222840990D+02 E-N=-3.288282166670D+03  KE= 6.260601607624D+02
   1 Symmetry operations used in ECPInt.
 ECPInt:  NShTT=    8385 NPrTT=   30369 LenC2=    7904 LenP2D=   20783.
 LDataN:  DoStor=T MaxTD1= 5 Len=  102
 Calling FoFJK, ICntrl=      2127 FMM=F ISym2X=0 I1Cent= 0 IOpClX= 0 NMat=1 NMatS=1 NMatT=0.
 ***** Axes restored to original set *****
 -------------------------------------------------------------------
 Center     Atomic                   Forces (Hartrees/Bohr)
 Number     Number              X              Y              Z
 -------------------------------------------------------------------
      1        6          -0.010298154   -0.005930344    0.001978258
      2        8           0.015610047   -0.032870901    0.002818790
      3        6          -0.012465782    0.016567183    0.000075297
      4        6          -0.003524490    0.013478673   -0.003099105
      5        6           0.015752346   -0.008610858   -0.001404938
      6        7          -0.000755894    0.004348644    0.000978668
      7        6          -0.018156180   -0.010897309   -0.001068477
      8        6          -0.005594600   -0.003689009    0.001767435
      9        6           0.002379599    0.000649747   -0.001476889
     10        6           0.006544047    0.005085925    0.000373958
     11        6           0.001939464    0.000578484    0.001831441
     12        6          -0.007507101   -0.003689607   -0.001329103
     13        6           0.012405118   -0.003142434   -0.000155408
     14        6           0.001014153    0.004518710   -0.002730599
     15        6          -0.007746937    0.014081532   -0.000766398
     16        1           0.008321991    0.002987450    0.003805634
     17        1           0.006818069    0.001699854   -0.006500541
     18        1          -0.004822926    0.002500970    0.000331403
     19        1           0.008142595    0.007555800   -0.002970966
     20        1          -0.001557978    0.006001369    0.001715870
     21        1          -0.008422117    0.003183747    0.005981645
     22        1          -0.000989156    0.007935785    0.006677881
     23        1           0.008377008    0.006059375    0.000879603
     24        1           0.008467334   -0.003033622   -0.005178336
     25        1           0.000898000   -0.009779022   -0.007900160
     26        1           0.003379833   -0.011755182    0.001908072
     27        1          -0.006844953   -0.007005078    0.001953488
     28        1          -0.011363337    0.003170117    0.001503475
 -------------------------------------------------------------------
 Cartesian Forces:  Max     0.032870901 RMS     0.007670703

 GradGradGradGradGradGradGradGradGradGradGradGradGradGradGradGradGradGrad
 Berny optimization.
 FormGI is forming the generalized inverse of G from B-inverse, IUseBI=4.
 Internal  Forces:  Max     0.035198026 RMS     0.006554273
 Search for a local minimum.
 Step number   1 out of a maximum of  146
 All quantities printed in internal units (Hartrees-Bohrs-Radians)
 Mixed Optimization -- RFO/linear search
 Second derivative matrix not updated -- first step.
 ITU=  0
     Eigenvalues ---    0.01512   0.01515   0.01516   0.01598   0.01680
     Eigenvalues ---    0.01971   0.01984   0.02078   0.02175   0.02190
     Eigenvalues ---    0.02200   0.02211   0.02259   0.02269   0.02286
     Eigenvalues ---    0.02290   0.02336   0.02336   0.02345   0.02354
     Eigenvalues ---    0.02368   0.02373   0.02394   0.10342   0.10572
     Eigenvalues ---    0.15989   0.15990   0.15999   0.15999   0.15999
     Eigenvalues ---    0.16000   0.16000   0.16000   0.16000   0.16000
     Eigenvalues ---    0.16000   0.16000   0.16000   0.21999   0.21999
     Eigenvalues ---    0.22000   0.22000   0.23451   0.23465   0.23482
     Eigenvalues ---    0.24984   0.24987   0.25000   0.25000   0.34740
     Eigenvalues ---    0.34744   0.34758   0.36263   0.36264   0.36270
     Eigenvalues ---    0.36274   0.36479   0.36493   0.36542   0.36547
     Eigenvalues ---    0.36988   0.42634   0.43092   0.43443   0.43451
     Eigenvalues ---    0.43490   0.43789   0.44468   0.44784   0.45468
     Eigenvalues ---    0.46277   0.47015   0.47364   0.47935   0.48683
     Eigenvalues ---    0.49075   0.49316   0.49729
 RFO step:  Lambda=-1.57496004D-02 EMin= 1.51225442D-02
 Linear search not attempted -- first point.
 Iteration  1 RMS(Cart)=  0.11212836 RMS(Int)=  0.00303406
 Iteration  2 RMS(Cart)=  0.00703041 RMS(Int)=  0.00015821
 Iteration  3 RMS(Cart)=  0.00003249 RMS(Int)=  0.00015754
 Iteration  4 RMS(Cart)=  0.00000001 RMS(Int)=  0.00015754
 Variable       Old X    -DE/DX   Delta X   Delta X   Delta X     New X
                                 (Linear)    (Quad)   (Total)
    R1        2.65899   0.00096   0.00000   0.00209   0.00209   2.66108
    R2        2.06100   0.00852   0.00000   0.02347   0.02347   2.08446
    R3        2.06092   0.00837   0.00000   0.02304   0.02304   2.08396
    R4        2.06069   0.00440   0.00000   0.01211   0.01211   2.07280
    R5        2.64736  -0.03520   0.00000  -0.07482  -0.07482   2.57254
    R6        2.63106   0.00469   0.00000   0.00908   0.00914   2.64020
    R7        2.64086   0.00063   0.00000   0.00076   0.00081   2.64167
    R8        2.62600   0.01387   0.00000   0.02826   0.02828   2.65428
    R9        2.02564   0.01148   0.00000   0.02976   0.02976   2.05540
   R10        2.67126  -0.01489   0.00000  -0.03308  -0.03308   2.63818
   R11        2.63553   0.00560   0.00000   0.01221   0.01216   2.64769
   R12        2.67070  -0.01406   0.00000  -0.03120  -0.03120   2.63949
   R13        1.92228  -0.00642   0.00000  -0.01386  -0.01386   1.90842
   R14        2.63500   0.01082   0.00000   0.02217   0.02217   2.65717
   R15        2.63532   0.00878   0.00000   0.01779   0.01778   2.65310
   R16        2.60128   0.01637   0.00000   0.03205   0.03205   2.63333
   R17        2.03242   0.01074   0.00000   0.02818   0.02818   2.06060
   R18        2.61025   0.01355   0.00000   0.02730   0.02730   2.63756
   R19        2.03672   0.01038   0.00000   0.02744   0.02744   2.06416
   R20        2.61039   0.01301   0.00000   0.02609   0.02609   2.63648
   R21        2.03661   0.01037   0.00000   0.02741   0.02741   2.06402
   R22        2.60152   0.01556   0.00000   0.03020   0.03020   2.63172
   R23        2.03670   0.01035   0.00000   0.02735   0.02735   2.06406
   R24        2.03339   0.01258   0.00000   0.03305   0.03305   2.06644
   R25        2.60225   0.01645   0.00000   0.03267   0.03261   2.63486
   R26        2.03317   0.01235   0.00000   0.03245   0.03245   2.06562
   R27        2.60188   0.01186   0.00000   0.02319   0.02318   2.62506
   R28        2.03656   0.00998   0.00000   0.02638   0.02638   2.06294
   R29        2.03235   0.01188   0.00000   0.03117   0.03117   2.06352
    A1        1.91927   0.00641   0.00000   0.03780   0.03743   1.95670
    A2        1.91846   0.00673   0.00000   0.03974   0.03938   1.95784
    A3        1.89418  -0.00737   0.00000  -0.04460  -0.04434   1.84984
    A4        1.93019  -0.00445   0.00000  -0.02022  -0.02105   1.90914
    A5        1.90074  -0.00073   0.00000  -0.00693  -0.00669   1.89405
    A6        1.90044  -0.00081   0.00000  -0.00725  -0.00698   1.89346
    A7        2.00344   0.01702   0.00000   0.06404   0.06404   2.06748
    A8        2.17023  -0.00161   0.00000  -0.00550  -0.00556   2.16467
    A9        2.05397  -0.00999   0.00000  -0.03703  -0.03710   2.01687
   A10        2.05899   0.01159   0.00000   0.04251   0.04260   2.10159
   A11        2.12355  -0.00641   0.00000  -0.02735  -0.02728   2.09627
   A12        2.09114   0.00390   0.00000   0.01766   0.01762   2.10876
   A13        2.06788   0.00251   0.00000   0.00972   0.00968   2.07756
   A14        2.11722   0.00380   0.00000   0.01319   0.01317   2.13040
   A15        2.07082   0.00267   0.00000   0.01190   0.01182   2.08264
   A16        2.09461  -0.00648   0.00000  -0.02552  -0.02551   2.06910
   A17        2.23279   0.00605   0.00000   0.02567   0.02567   2.25845
   A18        2.02474  -0.00339   0.00000  -0.01492  -0.01492   2.00983
   A19        2.02553  -0.00266   0.00000  -0.01079  -0.01079   2.01474
   A20        2.12320   0.00562   0.00000   0.02170   0.02165   2.14486
   A21        2.09375  -0.00716   0.00000  -0.02643  -0.02645   2.06730
   A22        2.06580   0.00153   0.00000   0.00429   0.00423   2.07003
   A23        2.10738  -0.00186   0.00000  -0.00810  -0.00810   2.09928
   A24        2.07859   0.00218   0.00000   0.01117   0.01117   2.08976
   A25        2.09658  -0.00031   0.00000  -0.00299  -0.00300   2.09358
   A26        2.09665   0.00254   0.00000   0.01212   0.01211   2.10876
   A27        2.09328  -0.00207   0.00000  -0.01063  -0.01065   2.08264
   A28        2.09323  -0.00047   0.00000  -0.00154  -0.00156   2.09168
   A29        2.09252  -0.00382   0.00000  -0.01454  -0.01453   2.07799
   A30        2.09532   0.00202   0.00000   0.00787   0.00787   2.10319
   A31        2.09532   0.00180   0.00000   0.00664   0.00663   2.10195
   A32        2.09681   0.00162   0.00000   0.00731   0.00729   2.10410
   A33        2.09310  -0.00005   0.00000   0.00066   0.00066   2.09375
   A34        2.09328  -0.00157   0.00000  -0.00798  -0.00799   2.08529
   A35        2.10700  -0.00000   0.00000  -0.00115  -0.00118   2.10582
   A36        2.07535   0.00066   0.00000   0.00433   0.00434   2.07970
   A37        2.10076  -0.00065   0.00000  -0.00313  -0.00312   2.09764
   A38        2.10277  -0.00355   0.00000  -0.01153  -0.01165   2.09111
   A39        2.07758   0.00234   0.00000   0.00896   0.00902   2.08660
   A40        2.10279   0.00122   0.00000   0.00260   0.00266   2.10545
   A41        2.09852   0.00317   0.00000   0.01596   0.01585   2.11437
   A42        2.09255  -0.00132   0.00000  -0.00645  -0.00642   2.08613
   A43        2.09211  -0.00186   0.00000  -0.00951  -0.00949   2.08262
   A44        2.11152  -0.00747   0.00000  -0.03156  -0.03153   2.07998
   A45        2.06349   0.00346   0.00000   0.01419   0.01418   2.07767
   A46        2.10815   0.00401   0.00000   0.01736   0.01735   2.12550
    D1       -1.04953  -0.00150   0.00000  -0.01187  -0.01270  -1.06223
    D2        1.07947   0.00153   0.00000   0.01360   0.01445   1.09391
    D3       -3.12704   0.00006   0.00000   0.00126   0.00124  -3.12579
    D4       -0.00960  -0.00016   0.00000  -0.00447  -0.00437  -0.01398
    D5        3.13425   0.00017   0.00000   0.00484   0.00474   3.13900
    D6        3.13668  -0.00002   0.00000  -0.00112  -0.00095   3.13573
    D7       -0.04301  -0.00003   0.00000  -0.00025  -0.00021  -0.04322
    D8       -0.00718  -0.00038   0.00000  -0.01055  -0.01059  -0.01777
    D9        3.09631  -0.00039   0.00000  -0.00968  -0.00984   3.08647
   D10        3.13328  -0.00032   0.00000  -0.00888  -0.00880   3.12448
   D11       -0.00188  -0.00028   0.00000  -0.00752  -0.00748  -0.00936
   D12       -0.00620   0.00000   0.00000  -0.00012   0.00002  -0.00617
   D13       -3.14136   0.00004   0.00000   0.00124   0.00134  -3.14002
   D14        3.12705  -0.00029   0.00000  -0.00583  -0.00614   3.12091
   D15        0.02035   0.00035   0.00000   0.00887   0.00878   0.02914
   D16        0.02306  -0.00031   0.00000  -0.00688  -0.00706   0.01601
   D17       -3.08363   0.00033   0.00000   0.00782   0.00787  -3.07576
   D18        0.42477   0.00142   0.00000   0.04552   0.04549   0.47027
   D19       -2.69914   0.00150   0.00000   0.04837   0.04834  -2.65080
   D20       -2.75219   0.00096   0.00000   0.03138   0.03141  -2.72078
   D21        0.40708   0.00104   0.00000   0.03423   0.03426   0.44134
   D22       -0.02050   0.00016   0.00000   0.00390   0.00373  -0.01676
   D23        3.13176   0.00006   0.00000   0.00110   0.00102   3.13278
   D24       -3.12765   0.00058   0.00000   0.01762   0.01736  -3.11029
   D25        0.02460   0.00048   0.00000   0.01482   0.01465   0.03925
   D26        0.45421   0.00166   0.00000   0.05283   0.05282   0.50703
   D27       -2.71971   0.00109   0.00000   0.03631   0.03632  -2.68339
   D28       -2.70507   0.00157   0.00000   0.04995   0.04993  -2.65513
   D29        0.40420   0.00101   0.00000   0.03343   0.03344   0.43763
   D30        3.13023  -0.00041   0.00000  -0.00868  -0.00895   3.12128
   D31        0.02713  -0.00045   0.00000  -0.01105  -0.01126   0.01587
   D32        0.02046   0.00031   0.00000   0.00814   0.00812   0.02859
   D33       -3.08264   0.00027   0.00000   0.00577   0.00582  -3.07682
   D34       -3.13183   0.00060   0.00000   0.01865   0.01840  -3.11343
   D35        0.02212   0.00045   0.00000   0.01441   0.01420   0.03632
   D36       -0.02151   0.00014   0.00000   0.00302   0.00297  -0.01853
   D37        3.13244  -0.00002   0.00000  -0.00122  -0.00123   3.13121
   D38       -0.00638  -0.00035   0.00000  -0.00911  -0.00912  -0.01550
   D39       -3.14118   0.00001   0.00000  -0.00005  -0.00004  -3.14122
   D40        3.09632  -0.00025   0.00000  -0.00641  -0.00650   3.08982
   D41       -0.03848   0.00011   0.00000   0.00265   0.00258  -0.03590
   D42       -0.00716  -0.00002   0.00000  -0.00106  -0.00101  -0.00817
   D43        3.14117   0.00014   0.00000   0.00320   0.00323  -3.13879
   D44        3.12764  -0.00038   0.00000  -0.01015  -0.01017   3.11747
   D45       -0.00722  -0.00023   0.00000  -0.00589  -0.00594  -0.01315
   D46        0.00611   0.00048   0.00000   0.01222   0.01223   0.01834
   D47       -3.13549   0.00009   0.00000   0.00284   0.00276  -3.13273
   D48        3.14098   0.00033   0.00000   0.00797   0.00800  -3.13421
   D49       -0.00063  -0.00006   0.00000  -0.00142  -0.00147  -0.00209
   D50        0.00848  -0.00056   0.00000  -0.01330  -0.01338  -0.00490
   D51        3.13753  -0.00039   0.00000  -0.00894  -0.00908   3.12846
   D52       -3.13311  -0.00017   0.00000  -0.00391  -0.00395  -3.13706
   D53       -0.00405  -0.00000   0.00000   0.00044   0.00035  -0.00370
   D54        0.00768  -0.00062   0.00000  -0.01483  -0.01494  -0.00726
   D55       -3.13398  -0.00012   0.00000  -0.00264  -0.00260  -3.13659
   D56        3.13845  -0.00051   0.00000  -0.01195  -0.01215   3.12630
   D57       -0.00321  -0.00001   0.00000   0.00024   0.00018  -0.00303
   D58        0.00595   0.00050   0.00000   0.01274   0.01282   0.01877
   D59        3.14094   0.00045   0.00000   0.01133   0.01145  -3.13079
   D60       -3.13557   0.00000   0.00000   0.00054   0.00051  -3.13506
   D61       -0.00058  -0.00005   0.00000  -0.00086  -0.00086  -0.00144
         Item               Value     Threshold  Converged?
 Maximum Force            0.035198     0.000450     NO 
 RMS     Force            0.006554     0.000300     NO 
 Maximum Displacement     0.594852     0.001800     NO 
 RMS     Displacement     0.117582     0.001200     NO 
 Predicted change in Energy=-8.365498D-03
 GradGradGradGradGradGradGradGradGradGradGradGradGradGradGradGradGradGrad

                          Input orientation:                          
 ---------------------------------------------------------------------
 Center     Atomic      Atomic             Coordinates (Angstroms)
 Number     Number       Type             X           Y           Z
 ---------------------------------------------------------------------
      1          6           0       -2.203308    2.827411   -0.540784
      2          8           0       -3.062830    1.752280   -0.243644
      3          6           0       -2.522109    0.512116   -0.092545
      4          6           0       -1.160474    0.230897   -0.229822
      5          6           0       -0.690044   -1.080123   -0.048772
      6          7           0        0.657720   -1.411357   -0.199827
      7          6           0        1.791127   -0.612266   -0.033155
      8          6           0        1.834116    0.475935    0.856300
      9          6           0        3.002317    1.222430    0.997322
     10          6           0        4.151649    0.895042    0.276262
     11          6           0        4.121311   -0.201306   -0.586051
     12          6           0        2.955292   -0.946395   -0.743211
     13          6           0       -1.603495   -2.103922    0.234979
     14          6           0       -2.960930   -1.808455    0.353990
     15          6           0       -3.429210   -0.509227    0.204410
     16          1           0       -1.451327    2.988570    0.249958
     17          1           0       -1.693309    2.697066   -1.509829
     18          1           0       -2.841992    3.717146   -0.600780
     19          1           0       -0.455956    1.010470   -0.510799
     20          1           0        0.836329   -2.363030   -0.486716
     21          1           0        0.959312    0.714171    1.462090
     22          1           0        3.018490    2.064378    1.693020
     23          1           0        5.065264    1.482159    0.392778
     24          1           0        5.014789   -0.475708   -1.151219
     25          1           0        2.934767   -1.797095   -1.429985
     26          1           0       -1.242386   -3.126973    0.368362
     27          1           0       -3.667983   -2.608953    0.579820
     28          1           0       -4.488617   -0.264532    0.305276
 ---------------------------------------------------------------------
                    Distance matrix (angstroms):
                    1          2          3          4          5
     1  C    0.000000
     2  O    1.408182   0.000000
     3  C    2.379735   1.361329   0.000000
     4  C    2.815331   2.435930   1.397132   0.000000
     5  C    4.219107   3.700081   2.427675   1.404584   0.000000
     6  N    5.125319   4.883955   3.717872   2.450251   1.396067
     7  C    5.295713   5.403358   4.457776   3.075964   2.524944
     8  C    4.876687   5.178708   4.458510   3.194883   3.100299
     9  C    5.660412   6.213432   5.675529   4.451724   4.475443
    10  C    6.692316   7.283808   6.694900   5.377347   5.239171
    11  C    7.012559   7.452893   6.699817   5.311398   4.920378
    12  C    6.394821   6.614393   5.705483   4.311509   3.713300
    13  C    5.027885   4.150787   2.791913   2.421504   1.401097
    14  C    4.781827   3.611978   2.403541   2.782343   2.418596
    15  C    3.631983   2.334395   1.397912   2.425593   2.809458
    16  H    1.103050   2.090214   2.719688   2.814168   4.150066
    17  H    1.102786   2.090796   2.733058   2.829191   4.172336
    18  H    1.096880   2.009232   3.260804   3.888322   5.286718
    19  H    2.520994   2.723498   2.166167   1.087671   2.153798
    20  H    6.015230   5.674354   4.438574   3.283546   2.041435
    21  H    4.298773   4.490526   3.818115   2.754925   2.867502
    22  H    5.730556   6.389877   6.024616   4.952042   5.164780
    23  H    7.450730   8.157445   7.664512   6.380682   6.315364
    24  H    7.961417   8.428259   7.674726   6.283482   5.841731
    25  H    6.969688   7.069415   6.074429   4.724843   3.944749
    26  H    6.099558   5.243632   3.884984   3.411719   2.160713
    27  H    5.740652   4.479359   3.392076   3.873999   3.405961
    28  H    3.936822   2.530161   2.151418   3.407097   3.901243
                    6          7          8          9         10
     6  N    0.000000
     7  C    1.396760   0.000000
     8  C    2.461947   1.406114   0.000000
     9  C    3.723860   2.427956   1.393497   0.000000
    10  C    4.213511   2.817761   2.425500   1.395734   0.000000
    11  C    3.689153   2.429884   2.787524   2.405461   1.395164
    12  C    2.406302   1.403959   2.416297   2.781271   2.421051
    13  C    2.404537   3.717579   4.342680   5.732302   6.489774
    14  C    3.682259   4.915567   5.335093   6.720153   7.609449
    15  C    4.204789   5.226756   5.394266   6.707599   7.710159
    16  H    4.899974   4.853831   4.180325   4.848994   5.981378
    17  H    4.911475   5.027279   4.793195   5.523518   6.371887
    18  H    6.221760   6.366459   5.873204   6.552365   7.592397
    19  H    2.683697   2.812614   2.720132   3.778757   4.675769
    20  H    1.009894   2.045124   3.295298   4.444029   4.710468
    21  H    2.714921   2.164973   1.090422   2.155970   3.410266
    22  H    4.608345   3.413286   2.150813   1.092307   2.158379
    23  H    5.305662   3.909987   3.415795   2.165337   1.092234
    24  H    4.556823   3.414779   3.879747   3.398521   2.159090
    25  H    2.616681   2.159367   3.406640   3.874779   3.411698
    26  H    2.622324   3.960704   4.762762   6.109861   6.729094
    27  H    4.555634   5.845031   6.313959   7.703681   8.574192
    28  H    5.296709   6.298463   6.389748   7.668381   8.717778
                   11         12         13         14         15
    11  C    0.000000
    12  C    1.392644   0.000000
    13  C    6.088304   4.804088   0.000000
    14  C    7.322891   6.078542   1.394307   0.000000
    15  C    7.598027   6.469232   2.424298   1.389120   0.000000
    16  H    6.475222   5.990711   5.094786   5.030027   4.018541
    17  H    6.562296   5.955838   5.109002   5.037896   4.028930
    18  H    7.990123   7.441600   6.009758   5.608743   4.342279
    19  H    4.735550   3.939537   3.401833   3.868991   3.414856
    20  H    3.933704   2.561766   2.557484   3.928551   4.702027
    21  H    3.877011   3.406577   4.001928   4.791641   4.726265
    22  H    3.397603   3.873496   6.392445   7.248814   7.100158
    23  H    2.164072   3.411792   7.573455   8.674643   8.726808
    24  H    1.092252   2.151638   6.955165   8.225203   8.552191
    25  H    2.160244   1.093513   4.843766   6.159702   6.695525
    26  H    6.183824   4.859117   1.093081   2.166123   3.414919
    27  H    8.235844   6.955737   2.153157   1.091660   2.146345
    28  H    8.656172   7.548247   3.422312   2.172533   1.091967
                   16         17         18         19         20
    16  H    0.000000
    17  H    1.800105   0.000000
    18  H    1.785645   1.785051   0.000000
    19  H    2.341451   2.318126   3.609343   0.000000
    20  H    5.866487   5.748947   7.107151   3.612628   0.000000
    21  H    3.528927   4.449783   5.265282   2.446031   3.644466
    22  H    4.787047   5.732329   6.506798   4.247272   5.395833
    23  H    6.689965   7.125603   8.276897   5.614518   5.782981
    24  H    7.468278   7.429245   8.922557   5.705078   4.632826
    25  H    6.705416   6.451585   8.029034   4.497146   2.369278
    26  H    6.120257   6.135989   7.095065   4.302306   2.373989
    27  H    6.029480   6.034882   6.488113   4.960524   4.635386
    28  H    4.450940   4.458634   4.402962   4.307431   5.778061
                   21         22         23         24         25
    21  H    0.000000
    22  H    2.473177   0.000000
    23  H    4.311853   2.493771   0.000000
    24  H    4.969114   4.304294   2.493936   0.000000
    25  H    4.309637   4.967006   4.314509   2.479974   0.000000
    26  H    4.560494   6.845431   7.812243   6.963518   4.738273
    27  H    5.764843   8.233357   9.645817   9.107018   6.949441
    28  H    5.654733   7.981624   9.712632   9.616689   7.776021
                   26         27         28
    26  H    0.000000
    27  H    2.489293   0.000000
    28  H    4.328459   2.499024   0.000000
 Stoichiometry    C13H13NO
 Framework group  C1[X(C13H13NO)]
 Deg. of freedom    78
 Full point group                 C1      NOp   1
 Largest Abelian subgroup         C1      NOp   1
 Largest concise Abelian subgroup C1      NOp   1
                         Standard orientation:                         
 ---------------------------------------------------------------------
 Center     Atomic      Atomic             Coordinates (Angstroms)
 Number     Number       Type             X           Y           Z
 ---------------------------------------------------------------------
      1          6           0       -2.268268    2.781675   -0.498390
      2          8           0       -3.108294    1.691456   -0.200469
      3          6           0       -2.547227    0.458723   -0.063398
      4          6           0       -1.182875    0.199384   -0.215927
      5          6           0       -0.690709   -1.105481   -0.048722
      6          7           0        0.660403   -1.414944   -0.215246
      7          6           0        1.783058   -0.599724   -0.054005
      8          6           0        1.818185    0.482845    0.842639
      9          6           0        2.976179    1.246188    0.977521
     10          6           0        4.123214    0.941458    0.242996
     11          6           0        4.101127   -0.149250   -0.626689
     12          6           0        2.945134   -0.911042   -0.777719
     13          6           0       -1.585572   -2.145109    0.236698
     14          6           0       -2.946123   -1.871336    0.371022
     15          6           0       -3.435648   -0.578445    0.235181
     16          1           0       -1.511077    2.948893    0.286097
     17          1           0       -1.765917    2.665860   -1.473257
     18          1           0       -2.921030    3.661897   -0.545879
     19          1           0       -0.493153    0.991597   -0.498259
     20          1           0        0.850692   -2.361761   -0.510565
     21          1           0        0.945859    0.703444    1.458596
     22          1           0        2.986347    2.083464    1.678948
     23          1           0        5.028857    1.541706    0.354733
     24          1           0        4.993078   -0.406003   -1.202464
     25          1           0        2.930837   -1.757198   -1.470241
     26          1           0       -1.207579   -3.163395    0.359337
     27          1           0       -3.638604   -2.684128    0.598088
     28          1           0       -4.497623   -0.350737    0.348096
 ---------------------------------------------------------------------
 Rotational constants (GHZ):           1.1250253           0.3449292           0.2794745
 Standard basis: def2SVP (5D, 7F)
 There are   290 symmetry adapted cartesian basis functions of A   symmetry.
 There are   275 symmetry adapted basis functions of A   symmetry.
   275 basis functions,   466 primitive gaussians,   290 cartesian basis functions
    53 alpha electrons       53 beta electrons
       nuclear repulsion energy       904.1279281394 Hartrees.
 NAtoms=   28 NActive=   28 NUniq=   28 SFac= 1.00D+00 NAtFMM=   60 NAOKFM=F Big=F
 Integral buffers will be    131072 words long.
 Raffenetti 2 integral format.
 Two-electron integral symmetry is turned on.
 Nuclear repulsion after empirical dispersion term =      904.1112160903 Hartrees.
 One-electron integrals computed using PRISM.
   1 Symmetry operations used in ECPInt.
 ECPInt:  NShTT=    8385 NPrTT=   30369 LenC2=    7860 LenP2D=   20617.
 LDataN:  DoStor=T MaxTD1= 4 Len=   56
 NBasis=   275 RedAO= T EigKep=  2.48D-04  NBF=   275
 NBsUse=   275 1.00D-06 EigRej= -1.00D+00 NBFU=   275
 Initial guess from the checkpoint file:  "prod_3g_1.chk"
 B after Tr=     0.000000   -0.000000   -0.000000
         Rot=    0.999947   -0.003816   -0.004338   -0.008521 Ang=  -1.18 deg.
 ExpMin= 1.22D-01 ExpMax= 2.27D+03 ExpMxC= 3.41D+02 IAcc=3 IRadAn=         5 AccDes= 0.00D+00
 Harris functional with IExCor= 4639 and IRadAn=       5 diagonalized for initial guess.
 HarFok:  IExCor= 4639 AccDes= 0.00D+00 IRadAn=         5 IDoV= 1 UseB2=F ITyADJ=14
 ICtDFT=  3500011 ScaDFX=  1.000000  1.000000  1.000000  1.000000
 FoFCou: FMM=F IPFlag=           0 FMFlag=      100000 FMFlg1=           0
         NFxFlg=           0 DoJE=T BraDBF=F KetDBF=T FulRan=T
         wScrn=  0.000000 ICntrl=       500 IOpCl=  0 I1Cent=   200000004 NGrid=           0
         NMat0=    1 NMatS0=      1 NMatT0=    0 NMatD0=    1 NMtDS0=    0 NMtDT0=    0
 Petite list used in FoFCou.
 Requested convergence on RMS density matrix=1.00D-08 within 128 cycles.
 Requested convergence on MAX density matrix=1.00D-06.
 Requested convergence on             energy=1.00D-06.
 No special actions if energy rises.
 Integral accuracy reduced to 1.0D-05 until final iterations.
 Initial convergence to 1.0D-05 achieved.  Increase integral accuracy.
 SCF Done:  E(RwB97XD) =  -632.516961002     A.U. after   14 cycles
            NFock= 14  Conv=0.40D-08     -V/T= 2.0110
   1 Symmetry operations used in ECPInt.
 ECPInt:  NShTT=    8385 NPrTT=   30369 LenC2=    7860 LenP2D=   20617.
 LDataN:  DoStor=T MaxTD1= 5 Len=  102
 Calling FoFJK, ICntrl=      2127 FMM=F ISym2X=0 I1Cent= 0 IOpClX= 0 NMat=1 NMatS=1 NMatT=0.
 ***** Axes restored to original set *****
 -------------------------------------------------------------------
 Center     Atomic                   Forces (Hartrees/Bohr)
 Number     Number              X              Y              Z
 -------------------------------------------------------------------
      1        6          -0.006010697   -0.000897039    0.001103880
      2        8           0.009930041   -0.004158169   -0.000685394
      3        6          -0.003531062    0.007279224   -0.000497286
      4        6           0.000466132    0.002190815   -0.000107682
      5        6           0.000951489   -0.001725464   -0.000118305
      6        7           0.000186788    0.002484527    0.000776583
      7        6          -0.002243262   -0.001077051    0.000143145
      8        6          -0.000032555   -0.000777661   -0.000483819
[...]
     9  C    0.000072  -0.000006  -0.000365   0.000953   0.001596   0.000876
    10  C   -0.000042   0.000001   0.000102  -0.000124  -0.000699   0.001531
    11  C    0.000020  -0.000001  -0.000122   0.000641   0.001687   0.011017
    12  C   -0.000027   0.000007   0.000380   0.012058   0.008891  -0.023748
    13  C    0.000958  -0.000593  -0.137236   0.067475   0.331024  -0.019146
    14  C   -0.001665   0.002531   0.069420  -0.158799   0.021964   0.009392
    15  C    0.004399  -0.056042   0.367478   0.098381  -0.111634   0.002633
    16  H    0.411660  -0.041168  -0.018488   0.016780  -0.002556   0.000049
    17  H    0.413057  -0.041800  -0.016817   0.009136   0.000022  -0.000082
    18  H    0.400758  -0.030623   0.007574  -0.003396   0.000365   0.000000
    19  H    0.009478  -0.007098  -0.045838   0.406660  -0.005120   0.002300
    20  H    0.000006   0.000008   0.000636   0.012469  -0.053816   0.399028
    21  H   -0.000381   0.000183   0.000425  -0.008392   0.001815   0.001456
    22  H    0.000021  -0.000001  -0.000021   0.000085   0.000010  -0.000196
    23  H   -0.000000   0.000000   0.000000  -0.000002  -0.000001  -0.000000
    24  H    0.000000  -0.000000  -0.000000  -0.000011   0.000011  -0.000299
    25  H   -0.000000   0.000000   0.000029   0.000444   0.000724   0.004850
    26  H   -0.000002   0.000011  -0.003812   0.012305  -0.085814   0.003361
    27  H    0.000030  -0.000125   0.016663  -0.006295   0.019028  -0.000310
    28  H   -0.000245   0.008558  -0.081547   0.026342  -0.008859   0.000008
               7          8          9         10         11         12
     1  C    0.000718  -0.000765   0.000072  -0.000042   0.000020  -0.000027
     2  O   -0.000062   0.000039  -0.000006   0.000001  -0.000001   0.000007
     3  C    0.000534   0.005893  -0.000365   0.000102  -0.000122   0.000380
     4  C   -0.008214  -0.007024   0.000953  -0.000124   0.000641   0.012058
     5  C   -0.097518  -0.008521   0.001596  -0.000699   0.001687   0.008891
     6  N    0.258208  -0.041230   0.000876   0.001531   0.011017  -0.023748
     7  C    4.957652   0.376169  -0.009795  -0.074961  -0.032975   0.383506
     8  C    0.376169   5.235902   0.432771   0.023248  -0.084202   0.019298
     9  C   -0.009795   0.432771   4.894309   0.454709   0.005743  -0.069476
    10  C   -0.074961   0.023248   0.454709   4.950280   0.458959   0.010981
    11  C   -0.032975  -0.084202   0.005743   0.458959   4.899161   0.447314
    12  C    0.383506   0.019298  -0.069476   0.010981   0.447314   5.141540
    13  C    0.016726   0.007697   0.000058   0.000018  -0.000297  -0.008718
    14  C    0.000769   0.001271  -0.000035   0.000009  -0.000027  -0.000228
    15  C    0.000041  -0.001034   0.000017  -0.000004   0.000009  -0.000035
    16  H    0.000120   0.000828  -0.000022  -0.000017   0.000004  -0.000050
    17  H    0.000081   0.000090   0.000052  -0.000002  -0.000001   0.000007
    18  H   -0.000008   0.000026  -0.000001   0.000000  -0.000000   0.000001
    19  H    0.004771  -0.012860   0.000891  -0.000311   0.000424  -0.000660
    20  H   -0.064141   0.009552  -0.000477   0.000151   0.000938   0.000193
    21  H   -0.042494   0.428515  -0.031248   0.005572  -0.001318   0.003944
    22  H    0.013828  -0.058830   0.440768  -0.055100   0.010187  -0.002970
    23  H   -0.004110   0.013080  -0.059248   0.444986  -0.057093   0.012552
    24  H    0.014964  -0.003183   0.010531  -0.057242   0.438687  -0.055840
    25  H   -0.079647   0.005510  -0.001753   0.008110  -0.025933   0.438335
    26  H    0.000662   0.000191   0.000012  -0.000002   0.000003  -0.000357
    27  H    0.000001  -0.000005  -0.000000  -0.000000   0.000000   0.000003
    28  H   -0.000002  -0.000006   0.000000  -0.000000   0.000000  -0.000000
              13         14         15         16         17         18
     1  C    0.000958  -0.001665   0.004399   0.411660   0.413057   0.400758
     2  O   -0.000593   0.002531  -0.056042  -0.041168  -0.041800  -0.030623
     3  C   -0.137236   0.069420   0.367478  -0.018488  -0.016817   0.007574
     4  C    0.067475  -0.158799   0.098381   0.016780   0.009136  -0.003396
     5  C    0.331024   0.021964  -0.111634  -0.002556   0.000022   0.000365
     6  N   -0.019146   0.009392   0.002633   0.000049  -0.000082   0.000000
     7  C    0.016726   0.000769   0.000041   0.000120   0.000081  -0.000008
     8  C    0.007697   0.001271  -0.001034   0.000828   0.000090   0.000026
     9  C    0.000058  -0.000035   0.000017  -0.000022   0.000052  -0.000001
    10  C    0.000018   0.000009  -0.000004  -0.000017  -0.000002   0.000000
    11  C   -0.000297  -0.000027   0.000009   0.000004  -0.000001  -0.000000
    12  C   -0.008718  -0.000228  -0.000035  -0.000050   0.000007   0.000001
    13  C    5.257587   0.396285   0.050898   0.000045   0.000298  -0.000068
    14  C    0.396285   4.898648   0.433120  -0.000208  -0.000348   0.000151
    15  C    0.050898   0.433120   5.100393   0.000776   0.001441  -0.000563
    16  H    0.000045  -0.000208   0.000776   0.590289  -0.054572  -0.020036
    17  H    0.000298  -0.000348   0.001441  -0.054572   0.583083  -0.020956
    18  H   -0.000068   0.000151  -0.000563  -0.020036  -0.020956   0.526463
    19  H    0.002576  -0.000076   0.001499  -0.001165   0.004096  -0.000468
    20  H   -0.007260   0.001405  -0.000285   0.000000  -0.000001   0.000000
    21  H   -0.000015   0.000249  -0.000214  -0.000622   0.000168   0.000002
    22  H    0.000003  -0.000001   0.000002   0.000042  -0.000003  -0.000000
    23  H    0.000000   0.000000  -0.000000  -0.000000  -0.000000   0.000000
    24  H    0.000003   0.000000   0.000000   0.000000   0.000000  -0.000000
    25  H   -0.000474   0.000001  -0.000003  -0.000000  -0.000000   0.000000
    26  H    0.444236  -0.032146   0.010069   0.000001   0.000002  -0.000000
    27  H   -0.066399   0.453708  -0.070102  -0.000001  -0.000002   0.000000
    28  H    0.017467  -0.065102   0.454223   0.000138   0.000128  -0.000223
              19         20         21         22         23         24
     1  C    0.009478   0.000006  -0.000381   0.000021  -0.000000   0.000000
     2  O   -0.007098   0.000008   0.000183  -0.000001   0.000000  -0.000000
     3  C   -0.045838   0.000636   0.000425  -0.000021   0.000000  -0.000000
     4  C    0.406660   0.012469  -0.008392   0.000085  -0.000002  -0.000011
     5  C   -0.005120  -0.053816   0.001815   0.000010  -0.000001   0.000011
     6  N    0.002300   0.399028   0.001456  -0.000196  -0.000000  -0.000299
     7  C    0.004771  -0.064141  -0.042494   0.013828  -0.004110   0.014964
     8  C   -0.012860   0.009552   0.428515  -0.058830   0.013080  -0.003183
     9  C    0.000891  -0.000477  -0.031248   0.440768  -0.059248   0.010531
    10  C   -0.000311   0.000151   0.005572  -0.055100   0.444986  -0.057242
    11  C    0.000424   0.000938  -0.001318   0.010187  -0.057093   0.438687
    12  C   -0.000660   0.000193   0.003944  -0.002970   0.012552  -0.055840
    13  C    0.002576  -0.007260  -0.000015   0.000003   0.000000   0.000003
    14  C   -0.000076   0.001405   0.000249  -0.000001   0.000000   0.000000
    15  C    0.001499  -0.000285  -0.000214   0.000002  -0.000000   0.000000
    16  H   -0.001165   0.000000  -0.000622   0.000042  -0.000000   0.000000
    17  H    0.004096  -0.000001   0.000168  -0.000003  -0.000000   0.000000
    18  H   -0.000468   0.000000   0.000002  -0.000000   0.000000  -0.000000
    19  H    0.456223  -0.000475  -0.005598   0.000086  -0.000002  -0.000001
    20  H   -0.000475   0.463822  -0.000227   0.000015  -0.000002  -0.000043
    21  H   -0.005598  -0.000227   0.483258  -0.006192  -0.000075   0.000034
    22  H    0.000086   0.000015  -0.006192   0.545913  -0.006991  -0.000172
    23  H   -0.000002  -0.000002  -0.000075  -0.006991   0.546065  -0.006664
    24  H   -0.000001  -0.000043   0.000034  -0.000172  -0.006664   0.548641
    25  H    0.000001   0.003899  -0.000190   0.000040  -0.000131  -0.008053
    26  H   -0.000195   0.003905  -0.000005   0.000000   0.000000   0.000000
    27  H   -0.000007  -0.000020  -0.000000  -0.000000  -0.000000  -0.000000
    28  H    0.000117  -0.000005  -0.000002   0.000000  -0.000000   0.000000
              25         26         27         28
     1  C   -0.000000  -0.000002   0.000030  -0.000245
     2  O    0.000000   0.000011  -0.000125   0.008558
     3  C    0.000029  -0.003812   0.016663  -0.081547
     4  C    0.000444   0.012305  -0.006295   0.026342
     5  C    0.000724  -0.085814   0.019028  -0.008859
     6  N    0.004850   0.003361  -0.000310   0.000008
     7  C   -0.079647   0.000662   0.000001  -0.000002
     8  C    0.005510   0.000191  -0.000005  -0.000006
     9  C   -0.001753   0.000012  -0.000000   0.000000
    10  C    0.008110  -0.000002  -0.000000  -0.000000
    11  C   -0.025933   0.000003   0.000000   0.000000
    12  C    0.438335  -0.000357   0.000003  -0.000000
    13  C   -0.000474   0.444236  -0.066399   0.017467
    14  C    0.000001  -0.032146   0.453708  -0.065102
    15  C   -0.000003   0.010069  -0.070102   0.454223
    16  H   -0.000000   0.000001  -0.000001   0.000138
    17  H   -0.000000   0.000002  -0.000002   0.000128
    18  H    0.000000  -0.000000   0.000000  -0.000223
    19  H    0.000001  -0.000195  -0.000007   0.000117
    20  H    0.003899   0.003905  -0.000020  -0.000005
    21  H   -0.000190  -0.000005  -0.000000  -0.000002
    22  H    0.000040   0.000000  -0.000000   0.000000
    23  H   -0.000131   0.000000  -0.000000  -0.000000
    24  H   -0.008053   0.000000  -0.000000   0.000000
    25  H    0.539698  -0.000021   0.000000  -0.000000
    26  H   -0.000021   0.545470  -0.008184  -0.000024
    27  H    0.000000  -0.008184   0.554750  -0.008913
    28  H   -0.000000  -0.000024  -0.008913   0.538849
 Mulliken charges:
               1
     1  C   -0.203471
     2  O   -0.284075
     3  C    0.427566
     4  C   -0.496901
     5  C    0.366162
     6  N   -0.343182
     7  C    0.385174
     8  C   -0.342420
     9  C   -0.070931
    10  C   -0.170154
    11  C   -0.072825
    12  C   -0.316900
    13  C   -0.353148
    14  C   -0.030288
    15  C   -0.285462
    16  H    0.118172
    17  H    0.122925
    18  H    0.141001
    19  H    0.190750
    20  H    0.230725
    21  H    0.171355
    22  H    0.119478
    23  H    0.117636
    24  H    0.118638
    25  H    0.114564
    26  H    0.110336
    27  H    0.116180
    28  H    0.119097
 Sum of Mulliken charges =  -0.00000
 Mulliken charges with hydrogens summed into heavy atoms:
               1
     1  C    0.178627
     2  O   -0.284075
     3  C    0.427566
     4  C   -0.306151
     5  C    0.366162
     6  N   -0.112457
     7  C    0.385174
     8  C   -0.171065
     9  C    0.048546
    10  C   -0.052518
    11  C    0.045812
    12  C   -0.202336
    13  C   -0.242812
    14  C    0.085891
    15  C   -0.166366
 Electronic spatial extent (au):  <R**2>=           3824.0181
 Charge=             -0.0000 electrons
 Dipole moment (field-independent basis, Debye):
    X=              1.0545    Y=              0.0489    Z=             -0.4954  Tot=              1.1661
 Quadrupole moment (field-independent basis, Debye-Ang):
   XX=            -88.4176   YY=            -75.9271   ZZ=            -91.2216
   XY=             -0.3053   XZ=             -2.4735   YZ=              2.3032
 Traceless Quadrupole moment (field-independent basis, Debye-Ang):
   XX=             -3.2288   YY=              9.2617   ZZ=             -6.0328
   XY=             -0.3053   XZ=             -2.4735   YZ=              2.3032
 Octapole moment (field-independent basis, Debye-Ang**2):
  XXX=             11.2254  YYY=              5.5894  ZZZ=             -3.6334  XYY=            -11.0692
  XXY=             -0.9314  XXZ=             -7.4276  XZZ=             -0.1097  YZZ=              7.4733
  YYZ=             -2.7960  XYZ=             16.6057
 Hexadecapole moment (field-independent basis, Debye-Ang**3):
 XXXX=          -3641.4435 YYYY=          -1055.2760 ZZZZ=           -256.0076 XXXY=             64.2712
 XXXZ=            -80.1434 YYYX=            -64.1319 YYYZ=             -0.9080 ZZZX=              3.4728
 ZZZY=              7.6146 XXYY=           -785.1338 XXZZ=           -705.9483 YYZZ=           -236.6645
 XXYZ=             20.2217 YYXZ=              3.6342 ZZXY=            -20.3555
 N-N= 9.064532948234D+02 E-N=-3.285254487651D+03  KE= 6.297576607807D+02
 Breneman (CHELPG) radii used.
 Read replacement radii for each type of atom:
 Atom Element Radius
    1     6    1.50
    2     8    1.70
    3     6    1.50
    4     6    1.50
    5     6    1.50
    6     7    1.70
    7     6    1.50
    8     6    1.50
    9     6    1.50
   10     6    1.50
   11     6    1.50
   12     6    1.50
   13     6    1.50
   14     6    1.50
   15     6    1.50
   16     1    1.45
   17     1    1.45
   18     1    1.45
   19     1    1.45
   20     1    1.45
   21     1    1.45
   22     1    1.45
   23     1    1.45
   24     1    1.45
   25     1    1.45
   26     1    1.45
   27     1    1.45
   28     1    1.45
 Generate Potential Derived Charges using the Breneman model, NDens= 1.
 Grid spacing= 0.300 Box extension= 2.800
 NStep X,Y,Z=   52     43     30   Total possible points=       67080
 Number of Points to Fit=   17566

 **********************************************************************

            Electrostatic Properties Using The SCF Density.

 **********************************************************************

       Atomic Center    1 is at  -2.206227  2.786567 -0.486044
       Atomic Center    2 is at  -3.055500  1.708215 -0.207651
       Atomic Center    3 is at  -2.529429  0.472685 -0.068768
       Atomic Center    4 is at  -1.167525  0.195756 -0.208758
       Atomic Center    5 is at  -0.695657 -1.118028 -0.041224
       Atomic Center    6 is at   0.651825 -1.437140 -0.198293
       Atomic Center    7 is at   1.768401 -0.616972 -0.050634
       Atomic Center    8 is at   1.786190  0.489489  0.814819
       Atomic Center    9 is at   2.938663  1.259929  0.945361
       Atomic Center   10 is at   4.099209  0.941036  0.241624
       Atomic Center   11 is at   4.092909 -0.169544 -0.601629
       Atomic Center   12 is at   2.941569 -0.934989 -0.754956
       Atomic Center   13 is at  -1.605874 -2.144647  0.240753
       Atomic Center   14 is at  -2.964249 -1.853442  0.356461
       Atomic Center   15 is at  -3.437673 -0.556759  0.216293
       Atomic Center   16 is at  -1.447005  2.926419  0.303577
       Atomic Center   17 is at  -1.690788  2.665347 -1.454880
       Atomic Center   18 is at  -2.838677  3.681563 -0.531831
       Atomic Center   19 is at  -0.463738  0.981696 -0.475284
       Atomic Center   20 is at   0.842749 -2.391011 -0.471549
       Atomic Center   21 is at   0.900475  0.731992  1.403383
       Atomic Center   22 is at   2.930445  2.115509  1.624838
       Atomic Center   23 is at   4.999863  1.547350  0.353388
       Atomic Center   24 is at   4.992717 -0.439755 -1.159071
       Atomic Center   25 is at   2.941023 -1.791713 -1.434060
       Atomic Center   26 is at  -1.245420 -3.166699  0.377127
       Atomic Center   27 is at  -3.666874 -2.660677  0.575633
       Atomic Center   28 is at  -4.495376 -0.312249  0.318190
   17566 points will be used for fitting atomic charges
 Fitting point charges to electrostatic potential
 Charges from ESP fit, RMS=   0.00401 RRMS=   0.34628:
 ESP charges:
               1
     1  C    0.088672
     2  O   -0.349329
     3  C    0.444368
     4  C   -0.390903
     5  C    0.483500
     6  N   -0.739960
     7  C    0.491456
     8  C   -0.252178
     9  C   -0.046956
    10  C   -0.182012
    11  C   -0.022529
    12  C   -0.316320
    13  C   -0.377989
    14  C    0.024234
    15  C   -0.365883
    16  H    0.031297
    17  H    0.018943
    18  H    0.060160
    19  H    0.134984
    20  H    0.357987
    21  H    0.114063
    22  H    0.094830
    23  H    0.100945
    24  H    0.090672
    25  H    0.129720
    26  H    0.138435
    27  H    0.096555
    28  H    0.143238
 Sum of ESP charges =  -0.00000
 ESP charges with hydrogens summed into heavy atoms:
               1
     1  C    0.199072
     2  O   -0.349329
     3  C    0.444368
     4  C   -0.255919
     5  C    0.483500
     6  N   -0.381973
     7  C    0.491456
     8  C   -0.138115
     9  C    0.047874
    10  C   -0.081067
    11  C    0.068143
    12  C   -0.186599
    13  C   -0.239554
    14  C    0.120789
    15  C   -0.222645
 Charge=  -0.00000 Dipole=     1.1069    -0.0634    -0.4397 Tot=     1.1927
 -----------------------------------------------------------------

              Electrostatic Properties (Atomic Units)

 -----------------------------------------------------------------
    Center     Electric         -------- Electric Field --------
               Potential          X             Y             Z
 -----------------------------------------------------------------
    1 Atom    -14.714400
    2 Atom    -22.326250
    3 Atom    -14.708168
    4 Atom    -14.775591
    5 Atom    -14.719652
    6 Atom    -18.358099
    7 Atom    -14.719362
    8 Atom    -14.771163
    9 Atom    -14.767017
   10 Atom    -14.774781
   11 Atom    -14.766571
   12 Atom    -14.769244
   13 Atom    -14.779003
   14 Atom    -14.768684
   15 Atom    -14.783411
   16 Atom     -1.106559
   17 Atom     -1.107144
   18 Atom     -1.105036
   19 Atom     -1.099322
   20 Atom     -1.022233
   21 Atom     -1.105038
   22 Atom     -1.107041
   23 Atom     -1.109955
   24 Atom     -1.105979
   25 Atom     -1.099933
   26 Atom     -1.105928
   27 Atom     -1.109431
   28 Atom     -1.111818
 -----------------------------------------------------------------
 Unable to Open any file for archive entry.
 1\1\GINC-NOTCH310\SP\RwB97XD\def2TZVP\C13H13N1O1\U1366379\17-Feb-2026\
 0\\#N Guess=Read Geom=Check Integral(Ultrafine) Density Pop=(ChelpG,Re
 adRadii) NMR wB97XD def2TZVP\\prod_3g_1\\0,1\C,0,-2.1598784831,2.82039
 49997,-0.5089524607\O,0,-3.0211497102,1.7508836088,-0.2333339976\C,0,-
 2.5077966813,0.5107310599,-0.0882016291\C,0,-1.1477521758,0.2204727531
 ,-0.2189671717\C,0,-0.6895261743,-1.0973433857,-0.0453379629\N,0,0.655
 8002442,-1.4296863961,-0.1931723963\C,0,1.7792207249,-0.6198566545,-0.
 0404513988\C,0,1.8021668383,0.4884962396,0.8224559595\C,0,2.9611131107
 ,1.2482155434,0.9584042207\C,0,4.1229420293,0.916539888,0.2627392476\C
 ,0,4.1113057206,-0.1959870736,-0.5778874736\C,0,2.9536831762,-0.950778
 428,-0.7366242928\C,0,-1.6112654878,-2.1145339478,0.233357061\C,0,-2.9
 674927033,-1.8100932876,0.339828685\C,0,-3.4276092789,-0.5092963517,0.
 1935968387\H,0,-1.4043147936,2.9549227917,0.2850903661\H,0,-1.63956309
 23,2.6918929118,-1.4742371553\H,0,-2.783442836,3.7212735831,-0.5608480
 532\H,0,-0.4348273238,0.9990041947,-0.4829353002\H,0,0.8393037457,-2.3
 860011353,-0.4629472871\H,0,0.9151415093,0.7408805244,1.4048605608\H,0
 ,2.9568206649,2.1054931333,1.6357748831\H,0,5.0286349832,1.5145001828,
 0.3787171114\H,0,5.0119633752,-0.4761365667,-1.1290161063\H,0,2.949199
 7574,-1.809115115,-1.4136739653\H,0,-1.261461376,-3.1396445022,0.37443
 03823\H,0,-3.6791618704,-2.610046094,0.5565024874\H,0,-4.4835438932,-0
 .2544524761,0.2882588472\\Version=ES64L-G16RevC.01\State=1-A\HF=-633.1
 904011\RMSD=2.619e-09\Dipole=0.4162658,0.01482,-0.1923394\Quadrupole=-
 2.3813019,6.8976899,-4.5163881,-0.1533786,-1.8090182,1.7010957\PG=C01 
 [X(C13H13N1O1)]\\@
 The archive entry for this job was punched.


 HE THAT IS UNAWARE OF HIS IGNORANCE WILL BE MISLED BY HIS KNOWLEDGE.

                                        -- WHATLEY
 Job cpu time:       0 days  1 hours  6 minutes 11.2 seconds.
 Elapsed time:       0 days  0 hours  8 minutes 32.7 seconds.
 File lengths (MBytes):  RWF=    183 Int=      0 D2E=      0 Chk=     28 Scr=      2
 Normal termination of Gaussian 16 at Tue Feb 17 16:22:55 2026.
