 Entering Gaussian System, Link 0=g16
 Input=prod_5f_5.com
 Output=prod_5f_5.log
 Initial command:
 /uufs/chpc.utah.edu/sys/installdir/gaussian16/C01/AVX/g16/l1.exe "/scratch/general/vast/u1366379/GAUSSSCRDIR/11028655-notchpeak.peaks/Gau-492458.inp" -scrdir="/scratch/general/vast/u1366379/GAUSSSCRDIR/11028655-notchpeak.peaks/"
 Entering Link 1 = /uufs/chpc.utah.edu/sys/installdir/gaussian16/C01/AVX/g16/l1.exe PID=    492465.
  
 Copyright (c) 1988-2019, Gaussian, Inc.  All Rights Reserved.
  
 This is part of the Gaussian(R) 16 program.  It is based on
 the Gaussian(R) 09 system (copyright 2009, Gaussian, Inc.),
 the Gaussian(R) 03 system (copyright 2003, Gaussian, Inc.),
 the Gaussian(R) 98 system (copyright 1998, Gaussian, Inc.),
 the Gaussian(R) 94 system (copyright 1995, Gaussian, Inc.),
 the Gaussian 92(TM) system (copyright 1992, Gaussian, Inc.),
 the Gaussian 90(TM) system (copyright 1990, Gaussian, Inc.),
 the Gaussian 88(TM) system (copyright 1988, Gaussian, Inc.),
 the Gaussian 86(TM) system (copyright 1986, Carnegie Mellon
 University), and the Gaussian 82(TM) system (copyright 1983,
 Carnegie Mellon University). Gaussian is a federally registered
 trademark of Gaussian, Inc.
  
 This software contains proprietary and confidential information,
 including trade secrets, belonging to Gaussian, Inc.
  
 This software is provided under written license and may be
 used, copied, transmitted, or stored only in accord with that
 written license.
  
 The following legend is applicable only to US Government
 contracts under FAR:
  
                    RESTRICTED RIGHTS LEGEND
  
 Use, reproduction and disclosure by the US Government is
 subject to restrictions as set forth in subparagraphs (a)
 and (c) of the Commercial Computer Software - Restricted
 Rights clause in FAR 52.227-19.
  
 Gaussian, Inc.
 340 Quinnipiac St., Bldg. 40, Wallingford CT 06492
  
  
 ---------------------------------------------------------------
 Warning -- This program may not be used in any manner that
 competes with the business of Gaussian, Inc. or will provide
 assistance to any competitor of Gaussian, Inc.  The licensee
 of this program is prohibited from giving any competitor of
 Gaussian, Inc. access to this program.  By using this program,
 the user acknowledges that Gaussian, Inc. is engaged in the
 business of creating and licensing software in the field of
 computational chemistry and represents and warrants to the
 licensee that it is not a competitor of Gaussian, Inc. and that
 it will not use this program in any manner prohibited above.
 ---------------------------------------------------------------
  

 Cite this work as:
 Gaussian 16, Revision C.01,
 M. J. Frisch, G. W. Trucks, H. B. Schlegel, G. E. Scuseria, 
 M. A. Robb, J. R. Cheeseman, G. Scalmani, V. Barone, 
 G. A. Petersson, H. Nakatsuji, X. Li, M. Caricato, A. V. Marenich, 
 J. Bloino, B. G. Janesko, R. Gomperts, B. Mennucci, H. P. Hratchian, 
 J. V. Ortiz, A. F. Izmaylov, J. L. Sonnenberg, D. Williams-Young, 
 F. Ding, F. Lipparini, F. Egidi, J. Goings, B. Peng, A. Petrone, 
 T. Henderson, D. Ranasinghe, V. G. Zakrzewski, J. Gao, N. Rega, 
 G. Zheng, W. Liang, M. Hada, M. Ehara, K. Toyota, R. Fukuda, 
 J. Hasegawa, M. Ishida, T. Nakajima, Y. Honda, O. Kitao, H. Nakai, 
 T. Vreven, K. Throssell, J. A. Montgomery, Jr., J. E. Peralta, 
 F. Ogliaro, M. J. Bearpark, J. J. Heyd, E. N. Brothers, K. N. Kudin, 
 V. N. Staroverov, T. A. Keith, R. Kobayashi, J. Normand, 
 K. Raghavachari, A. P. Rendell, J. C. Burant, S. S. Iyengar, 
 J. Tomasi, M. Cossi, J. M. Millam, M. Klene, C. Adamo, R. Cammi, 
 J. W. Ochterski, R. L. Martin, K. Morokuma, O. Farkas, 
 J. B. Foresman, and D. J. Fox, Gaussian, Inc., Wallingford CT, 2019.
 
 ******************************************
 Gaussian 16:  ES64L-G16RevC.01  3-Jul-2019
                17-Feb-2026 
 ******************************************
 %NProcShared=8
 Will use up to    8 processors via shared memory.
 %Mem=8GB
 %chk=prod_5f_5.chk
 ------------------------------------------------------
 #N OPT FREQ=NORAMAN Integral(Ultrafine) wB97XD def2SVP
 ------------------------------------------------------
 1/18=20,19=15,26=4,38=1/1,3;
 2/9=110,12=2,17=6,18=5,40=1/2;
 3/5=43,7=101,11=2,25=1,30=1,71=1,74=-58,75=-5/1,2,3;
 4//1;
 5/5=2,38=5/2;
 6/7=2,8=2,9=2,10=2,28=1/1;
 7//1,2,3,16;
 1/18=20,19=15,26=4/3(2);
 2/9=110/2;
 99//99;
 2/9=110/2;
 3/5=43,7=101,11=2,25=1,30=1,71=1,74=-58,75=-5/1,2,3;
 4/5=5,16=3,69=1/1;
 5/5=2,38=5/2;
 7//1,2,3,16;
 1/18=20,19=15,26=4/3(-5);
 2/9=110/2;
 6/7=2,8=2,9=2,10=2,19=2,28=1/1;
 99/9=1/99;
 ---------
 prod_5f_5
 ---------
 Symbolic Z-matrix:
 Charge =  0 Multiplicity = 1
 Cl                   -4.27421  -0.01152   1.16979 
 C                    -2.82522   0.13121   0.23635 
 C                    -1.59896   0.13223   0.87177 
 C                    -0.41737   0.24065   0.143 
 N                     0.85415   0.25568   0.78743 
 C                     0.92363   0.56763   2.21448 
 C                     2.06579  -0.06733   0.09374 
 C                     2.11811  -1.16343  -0.76707 
 C                     3.27979  -1.48155  -1.43299 
 C                     4.41336  -0.71314  -1.25348 
 C                     4.38      0.37585  -0.40435 
 C                     3.2201    0.69689   0.26414 
 C                    -0.51039   0.36049  -1.24549 
 C                    -1.73489   0.36049  -1.8795 
 C                    -2.89501   0.24409  -1.14295 
 H                    -1.57263   0.03698   1.94109 
 H                     0.39893   1.49871   2.42029 
 H                     1.9566    0.67193   2.53882 
 H                     0.47059  -0.23419   2.7941 
 H                     1.23615  -1.76728  -0.89122 
 H                     3.3056   -2.33276  -2.09351 
 H                     5.32259  -0.96281  -1.77539 
 H                     5.2635    0.97775  -0.26756 
 H                     3.18665   1.55982   0.9057 
 H                     0.39264   0.47162  -1.81898 
 H                    -1.78628   0.45456  -2.95177 
 H                    -3.85952   0.24234  -1.62135 
 

 GradGradGradGradGradGradGradGradGradGradGradGradGradGradGradGradGradGrad
 Berny optimization.
 Initialization pass.
                           ----------------------------
                           !    Initial Parameters    !
                           ! (Angstroms and Degrees)  !
 --------------------------                            --------------------------
 ! Name  Definition              Value          Derivative Info.                !
 --------------------------------------------------------------------------------
 ! R1    R(1,2)                  1.7295         estimate D2E/DX2                !
 ! R2    R(2,3)                  1.3811         estimate D2E/DX2                !
 ! R3    R(2,15)                 1.3857         estimate D2E/DX2                !
 ! R4    R(3,4)                  1.3925         estimate D2E/DX2                !
 ! R5    R(3,16)                 1.0739         estimate D2E/DX2                !
 ! R6    R(4,5)                  1.4256         estimate D2E/DX2                !
 ! R7    R(4,13)                 1.3968         estimate D2E/DX2                !
 ! R8    R(5,6)                  1.4624         estimate D2E/DX2                !
 ! R9    R(5,7)                  1.433          estimate D2E/DX2                !
 ! R10   R(6,17)                 1.0884         estimate D2E/DX2                !
 ! R11   R(6,18)                 1.0877         estimate D2E/DX2                !
 ! R12   R(6,19)                 1.0882         estimate D2E/DX2                !
 ! R13   R(7,8)                  1.3947         estimate D2E/DX2                !
 ! R14   R(7,12)                 1.3948         estimate D2E/DX2                !
 ! R15   R(8,9)                  1.3763         estimate D2E/DX2                !
 ! R16   R(8,20)                 1.0761         estimate D2E/DX2                !
 ! R17   R(9,10)                 1.3812         estimate D2E/DX2                !
 ! R18   R(9,21)                 1.0777         estimate D2E/DX2                !
 ! R19   R(10,11)                1.3813         estimate D2E/DX2                !
 ! R20   R(10,22)                1.0777         estimate D2E/DX2                !
 ! R21   R(11,12)                1.3767         estimate D2E/DX2                !
 ! R22   R(11,23)                1.0778         estimate D2E/DX2                !
 ! R23   R(12,24)                1.0758         estimate D2E/DX2                !
 ! R24   R(13,14)                1.3789         estimate D2E/DX2                !
 ! R25   R(13,25)                1.0755         estimate D2E/DX2                !
 ! R26   R(14,15)                1.3791         estimate D2E/DX2                !
 ! R27   R(14,26)                1.0776         estimate D2E/DX2                !
 ! R28   R(15,27)                1.0766         estimate D2E/DX2                !
 ! A1    A(1,2,3)              119.7102         estimate D2E/DX2                !
 ! A2    A(1,2,15)             120.1162         estimate D2E/DX2                !
 ! A3    A(3,2,15)             120.1736         estimate D2E/DX2                !
 ! A4    A(2,3,4)              120.8424         estimate D2E/DX2                !
 ! A5    A(2,3,16)             118.6743         estimate D2E/DX2                !
 ! A6    A(4,3,16)             120.4801         estimate D2E/DX2                !
 ! A7    A(3,4,5)              121.405          estimate D2E/DX2                !
 ! A8    A(3,4,13)             118.0624         estimate D2E/DX2                !
 ! A9    A(5,4,13)             120.522          estimate D2E/DX2                !
 ! A10   A(4,5,6)              119.0614         estimate D2E/DX2                !
 ! A11   A(4,5,7)              122.2037         estimate D2E/DX2                !
 ! A12   A(6,5,7)              118.7035         estimate D2E/DX2                !
 ! A13   A(5,6,17)             110.1272         estimate D2E/DX2                !
 ! A14   A(5,6,18)             110.8887         estimate D2E/DX2                !
 ! A15   A(5,6,19)             110.0487         estimate D2E/DX2                !
 ! A16   A(17,6,18)            108.6275         estimate D2E/DX2                !
 ! A17   A(17,6,19)            109.2033         estimate D2E/DX2                !
 ! A18   A(18,6,19)            107.8909         estimate D2E/DX2                !
 ! A19   A(5,7,8)              120.5062         estimate D2E/DX2                !
 ! A20   A(5,7,12)             121.1366         estimate D2E/DX2                !
 ! A21   A(8,7,12)             118.3566         estimate D2E/DX2                !
 ! A22   A(7,8,9)              120.7945         estimate D2E/DX2                !
 ! A23   A(7,8,20)             118.7827         estimate D2E/DX2                !
 ! A24   A(9,8,20)             120.4166         estimate D2E/DX2                !
 ! A25   A(8,9,10)             120.084          estimate D2E/DX2                !
 ! A26   A(8,9,21)             119.955          estimate D2E/DX2                !
 ! A27   A(10,9,21)            119.9608         estimate D2E/DX2                !
 ! A28   A(9,10,11)            119.9126         estimate D2E/DX2                !
 ! A29   A(9,10,22)            120.0397         estimate D2E/DX2                !
 ! A30   A(11,10,22)           120.0476         estimate D2E/DX2                !
 ! A31   A(10,11,12)           120.1778         estimate D2E/DX2                !
 ! A32   A(10,11,23)           119.9013         estimate D2E/DX2                !
 ! A33   A(12,11,23)           119.9205         estimate D2E/DX2                !
 ! A34   A(7,12,11)            120.6744         estimate D2E/DX2                !
 ! A35   A(7,12,24)            119.1178         estimate D2E/DX2                !
 ! A36   A(11,12,24)           120.1867         estimate D2E/DX2                !
 ! A37   A(4,13,14)            121.0786         estimate D2E/DX2                !
 ! A38   A(4,13,25)            118.8831         estimate D2E/DX2                !
 ! A39   A(14,13,25)           120.0293         estimate D2E/DX2                !
 ! A40   A(13,14,15)           120.0961         estimate D2E/DX2                !
 ! A41   A(13,14,26)           119.9909         estimate D2E/DX2                !
 ! A42   A(15,14,26)           119.9128         estimate D2E/DX2                !
 ! A43   A(2,15,14)            119.7443         estimate D2E/DX2                !
 ! A44   A(2,15,27)            119.1627         estimate D2E/DX2                !
 ! A45   A(14,15,27)           121.0927         estimate D2E/DX2                !
 ! D1    D(1,2,3,4)            179.7497         estimate D2E/DX2                !
 ! D2    D(1,2,3,16)             0.3975         estimate D2E/DX2                !
 ! D3    D(15,2,3,4)            -0.254          estimate D2E/DX2                !
 ! D4    D(15,2,3,16)         -179.6062         estimate D2E/DX2                !
 ! D5    D(1,2,15,14)          179.8555         estimate D2E/DX2                !
 ! D6    D(1,2,15,27)            0.0479         estimate D2E/DX2                !
 ! D7    D(3,2,15,14)           -0.1407         estimate D2E/DX2                !
 ! D8    D(3,2,15,27)         -179.9484         estimate D2E/DX2                !
 ! D9    D(2,3,4,5)            179.399          estimate D2E/DX2                !
 ! D10   D(2,3,4,13)             0.5806         estimate D2E/DX2                !
 ! D11   D(16,3,4,5)            -1.2606         estimate D2E/DX2                !
 ! D12   D(16,3,4,13)          179.921          estimate D2E/DX2                !
 ! D13   D(3,4,5,6)            -18.644          estimate D2E/DX2                !
 ! D14   D(3,4,5,7)            159.2908         estimate D2E/DX2                !
 ! D15   D(13,4,5,6)           160.1456         estimate D2E/DX2                !
 ! D16   D(13,4,5,7)           -21.9196         estimate D2E/DX2                !
 ! D17   D(3,4,13,14)           -0.5308         estimate D2E/DX2                !
 ! D18   D(3,4,13,25)          178.3766         estimate D2E/DX2                !
 ! D19   D(5,4,13,14)         -179.3601         estimate D2E/DX2                !
 ! D20   D(5,4,13,25)           -0.4527         estimate D2E/DX2                !
 ! D21   D(4,5,6,17)           -52.234          estimate D2E/DX2                !
 ! D22   D(4,5,6,18)          -172.4981         estimate D2E/DX2                !
 ! D23   D(4,5,6,19)            68.2073         estimate D2E/DX2                !
 ! D24   D(7,5,6,17)           129.7583         estimate D2E/DX2                !
 ! D25   D(7,5,6,18)             9.4942         estimate D2E/DX2                !
 ! D26   D(7,5,6,19)          -109.8005         estimate D2E/DX2                !
 ! D27   D(4,5,7,8)            -44.0062         estimate D2E/DX2                !
 ! D28   D(4,5,7,12)           136.2952         estimate D2E/DX2                !
 ! D29   D(6,5,7,8)            133.9357         estimate D2E/DX2                !
 ! D30   D(6,5,7,12)           -45.7629         estimate D2E/DX2                !
 ! D31   D(5,7,8,9)           -179.7919         estimate D2E/DX2                !
 ! D32   D(5,7,8,20)            -0.6964         estimate D2E/DX2                !
 ! D33   D(12,7,8,9)            -0.0851         estimate D2E/DX2                !
 ! D34   D(12,7,8,20)          179.0104         estimate D2E/DX2                !
 ! D35   D(5,7,12,11)          179.8256         estimate D2E/DX2                !
 ! D36   D(5,7,12,24)           -1.8449         estimate D2E/DX2                !
 ! D37   D(8,7,12,11)            0.1207         estimate D2E/DX2                !
 ! D38   D(8,7,12,24)          178.4502         estimate D2E/DX2                !
 ! D39   D(7,8,9,10)             0.0276         estimate D2E/DX2                !
 ! D40   D(7,8,9,21)           179.8789         estimate D2E/DX2                !
 ! D41   D(20,8,9,10)         -179.0531         estimate D2E/DX2                !
 ! D42   D(20,8,9,21)            0.7982         estimate D2E/DX2                !
 ! D43   D(8,9,10,11)           -0.0035         estimate D2E/DX2                !
 ! D44   D(8,9,10,22)         -179.9916         estimate D2E/DX2                !
 ! D45   D(21,9,10,11)        -179.8547         estimate D2E/DX2                !
 ! D46   D(21,9,10,22)           0.1572         estimate D2E/DX2                !
 ! D47   D(9,10,11,12)           0.0391         estimate D2E/DX2                !
 ! D48   D(9,10,11,23)        -179.7463         estimate D2E/DX2                !
 ! D49   D(22,10,11,12)       -179.9728         estimate D2E/DX2                !
 ! D50   D(22,10,11,23)          0.2418         estimate D2E/DX2                !
 ! D51   D(10,11,12,7)          -0.0991         estimate D2E/DX2                !
 ! D52   D(10,11,12,24)       -178.4108         estimate D2E/DX2                !
 ! D53   D(23,11,12,7)         179.6863         estimate D2E/DX2                !
 ! D54   D(23,11,12,24)          1.3746         estimate D2E/DX2                !
 ! D55   D(4,13,14,15)           0.1511         estimate D2E/DX2                !
 ! D56   D(4,13,14,26)         179.9648         estimate D2E/DX2                !
 ! D57   D(25,13,14,15)       -178.7438         estimate D2E/DX2                !
 ! D58   D(25,13,14,26)          1.0699         estimate D2E/DX2                !
 ! D59   D(13,14,15,2)           0.1913         estimate D2E/DX2                !
 ! D60   D(13,14,15,27)        179.9952         estimate D2E/DX2                !
 ! D61   D(26,14,15,2)        -179.6225         estimate D2E/DX2                !
 ! D62   D(26,14,15,27)          0.1814         estimate D2E/DX2                !
 --------------------------------------------------------------------------------
 Trust Radius=3.00D-01 FncErr=1.00D-07 GrdErr=1.00D-06 EigMax=2.50D+02 EigMin=1.00D-04
 Number of steps in this run=    145 maximum allowed number of steps=    162.
 GradGradGradGradGradGradGradGradGradGradGradGradGradGradGradGradGradGrad

                          Input orientation:                          
 ---------------------------------------------------------------------
 Center     Atomic      Atomic             Coordinates (Angstroms)
 Number     Number       Type             X           Y           Z
 ---------------------------------------------------------------------
      1         17           0       -4.274210   -0.011520    1.169790
      2          6           0       -2.825220    0.131210    0.236350
      3          6           0       -1.598960    0.132230    0.871770
      4          6           0       -0.417370    0.240650    0.143000
      5          7           0        0.854150    0.255680    0.787430
      6          6           0        0.923630    0.567630    2.214480
      7          6           0        2.065790   -0.067330    0.093740
      8          6           0        2.118110   -1.163430   -0.767070
      9          6           0        3.279790   -1.481550   -1.432990
     10          6           0        4.413360   -0.713140   -1.253480
     11          6           0        4.380000    0.375850   -0.404350
     12          6           0        3.220100    0.696890    0.264140
     13          6           0       -0.510390    0.360490   -1.245490
     14          6           0       -1.734890    0.360490   -1.879500
     15          6           0       -2.895010    0.244090   -1.142950
     16          1           0       -1.572630    0.036980    1.941090
     17          1           0        0.398930    1.498710    2.420290
     18          1           0        1.956600    0.671930    2.538820
     19          1           0        0.470590   -0.234190    2.794100
     20          1           0        1.236150   -1.767280   -0.891220
     21          1           0        3.305600   -2.332760   -2.093510
     22          1           0        5.322590   -0.962810   -1.775390
     23          1           0        5.263500    0.977750   -0.267560
     24          1           0        3.186650    1.559820    0.905700
     25          1           0        0.392640    0.471620   -1.818980
     26          1           0       -1.786280    0.454560   -2.951770
     27          1           0       -3.859520    0.242340   -1.621350
 ---------------------------------------------------------------------
                    Distance matrix (angstroms):
                    1          2          3          4          5
     1  Cl   0.000000
     2  C    1.729524   0.000000
     3  C    2.695634   1.381113   0.000000
     4  C    3.999138   2.412143   1.392485   0.000000
     5  N    5.149531   3.722492   2.457662   1.425580   0.000000
     6  C    5.333323   4.261143   2.890658   2.489222   1.462399
     7  C    6.430910   4.897115   3.751739   2.502671   1.433043
     8  C    6.777911   5.207634   4.263935   3.037816   2.455186
     9  C    8.123938   6.531373   5.631910   4.372495   3.719135
    10  C    9.046457   7.438384   6.432677   5.118186   4.215673
    11  C    8.804733   7.237786   6.118480   4.830386   3.723761
    12  C    7.582000   6.071792   4.889928   3.667972   2.462969
    13  C    4.487573   2.758053   2.391626   1.396753   2.450657
    14  C    3.985562   2.391278   2.764067   2.416760   3.718418
    15  C    2.704865   1.385670   2.398198   2.791483   4.216954
    16  H    2.809945   2.117546   1.073877   2.146913   2.695927
    17  H    5.067818   4.127323   2.873455   2.726740   2.102042
    18  H    6.415944   5.334749   3.963879   3.400248   2.110930
    19  H    5.020069   4.187835   2.848272   2.835891   2.100908
    20  H    6.139587   4.622814   3.841109   2.799200   2.656343
    21  H    8.572678   7.006165   6.238892   5.048259   4.583606
    22  H   10.083532   8.463497   7.490956   6.170549   5.293366
    23  H    9.696007   8.148494   7.007591   5.743184   4.590943
    24  H    7.629108   6.215427   4.994119   3.912912   2.674944
    25  H    5.562882   3.833391   3.364787   2.135141   2.655747
    26  H    4.836764   3.368688   3.841672   3.390763   4.581816
    27  H    2.833174   2.129126   3.367180   3.867988   5.293494
                    6          7          8          9         10
     6  C    0.000000
     7  C    2.491032   0.000000
     8  C    3.648697   1.394692   0.000000
     9  C    4.801527   2.409298   1.376281   0.000000
    10  C    5.083831   2.782653   2.389043   1.381180   0.000000
    11  C    4.340685   2.408333   2.759909   2.391338   1.381316
    12  C    3.015677   1.394812   2.395531   2.762139   2.390654
    13  C    3.751095   2.934837   3.075749   4.218262   5.039450
    14  C    4.885827   4.303705   4.290156   5.360923   6.272604
    15  C    5.095000   5.122101   5.220514   6.417952   7.371620
    16  H    2.566641   4.081872   4.732513   6.102158   6.826422
    17  H    1.088383   3.262474   4.494645   5.659423   5.874054
    18  H    1.087705   2.556725   3.784645   4.707821   4.726058
    19  H    1.088173   3.140772   4.032337   5.226452   5.670779
    20  H    3.898057   2.132669   1.076058   2.133453   3.367062
    21  H    5.713565   3.384282   2.130002   1.077734   2.134468
    22  H    6.132875   3.860347   3.365360   2.135266   1.077694
    23  H    5.016293   3.383501   3.837661   3.367713   2.133983
    24  H    2.796177   2.136170   3.369871   3.837718   3.366485
    25  H    4.069394   2.597767   2.599452   3.507064   4.229614
    26  H    5.834941   4.938213   4.757632   5.632076   6.533242
    27  H    6.139864   6.176304   6.199842   7.346906   8.335995
                   11         12         13         14         15
    11  C    0.000000
    12  C    1.376704   0.000000
    13  C    4.962224   4.038404   0.000000
    14  C    6.290325   5.409278   1.378901   0.000000
    15  C    7.313594   6.291224   2.389660   1.379106   0.000000
    16  H    6.407006   5.120342   3.374508   3.837694   3.361977
    17  H    5.008825   3.640178   3.944661   4.933247   5.012065
    18  H    3.823974   2.602158   4.528138   5.765904   6.105456
    19  H    5.087801   3.850638   4.199316   5.201954   5.201575
    20  H    3.835863   3.367944   2.775485   3.785655   4.601680
    21  H    3.368110   3.839870   4.747053   5.718910   6.781687
    22  H    2.135471   3.366712   6.004629   7.181225   8.329798
    23  H    1.077760   2.130040   5.888562   7.208108   8.238073
    24  H    2.131220   1.075810   4.442310   5.780769   6.550931
    25  H    4.231949   3.519185   1.075502   2.131290   3.364139
    26  H    6.672222   5.955220   2.132636   1.077615   2.131997
    27  H    8.329982   7.340484   3.372225   2.143514   1.076638
                   16         17         18         19         20
    16  H    0.000000
    17  H    2.500667   0.000000
    18  H    3.635369   1.767470   0.000000
    19  H    2.230674   1.774207   1.759104   0.000000
    20  H    4.377965   4.725857   4.270125   4.064238   0.000000
    21  H    6.759496   6.595702   5.683876   6.027438   2.459246
    22  H    7.896573   6.921361   5.710926   6.704702   4.257690
    23  H    7.245402   5.582112   4.347974   5.815028   4.913623
    24  H    5.103119   3.173185   2.229003   3.763178   4.254758
    25  H    4.264894   4.361922   4.634276   4.667414   2.566110
    26  H    4.915292   5.892743   6.648532   6.211510   4.279897
    27  H    4.238280   6.003975   7.163715   6.202671   5.526076
                   21         22         23         24         25
    21  H    0.000000
    22  H    2.458905   0.000000
    23  H    4.257575   2.458214   0.000000
    24  H    4.915444   4.256072   2.455331   0.000000
    25  H    4.052808   5.134579   5.136959   4.051488   0.000000
    26  H    5.867964   7.343626   7.561621   6.389969   2.455849
    27  H    7.628435   9.262141   9.252193   7.600674   4.262921
                   26         27
    26  H    0.000000
    27  H    2.472525   0.000000
 Stoichiometry    C13H12ClN
 Framework group  C1[X(C13H12ClN)]
 Deg. of freedom    75
 Full point group                 C1      NOp   1
 Largest Abelian subgroup         C1      NOp   1
 Largest concise Abelian subgroup C1      NOp   1
                         Standard orientation:                         
 ---------------------------------------------------------------------
 Center     Atomic      Atomic             Coordinates (Angstroms)
 Number     Number       Type             X           Y           Z
 ---------------------------------------------------------------------
      1         17           0       -4.477051    0.470155    0.408225
      2          6           0       -2.922304   -0.174134    0.009594
      3          6           0       -1.800303    0.622398    0.128437
      4          6           0       -0.536558    0.126300   -0.181162
      5          7           0        0.628041    0.941595   -0.074942
      6          6           0        0.476380    2.395671   -0.039257
      7          6           0        1.942833    0.383663    0.041881
      8          6           0        2.182780   -0.689815    0.899340
      9          6           0        3.443990   -1.227498    1.019330
     10          6           0        4.491928   -0.705032    0.286858
     11          6           0        4.272796    0.358447   -0.566973
     12          6           0        3.012805    0.899545   -0.689231
     13          6           0       -0.439921   -1.194116   -0.626226
     14          6           0       -1.560444   -1.988790   -0.745768
     15          6           0       -2.803585   -1.483816   -0.427121
     16          1           0       -1.919315    1.631742    0.475237
     17          1           0       -0.127883    2.729954   -0.880506
     18          1           0        1.444971    2.887984   -0.089869
     19          1           0       -0.004156    2.697949    0.889092
     20          1           0        1.365622   -1.082797    1.478753
     21          1           0        3.614560   -2.055729    1.687499
     22          1           0        5.479199   -1.126703    0.381267
     23          1           0        5.089812    0.763354   -1.141519
     24          1           0        2.836646    1.711121   -1.373102
     25          1           0        0.526504   -1.582581   -0.894224
     26          1           0       -1.465706   -3.005039   -1.091478
     27          1           0       -3.689050   -2.089995   -0.514576
 ---------------------------------------------------------------------
 Rotational constants (GHZ):           1.4627574           0.2578129           0.2323413
 Standard basis: def2SVP (5D, 7F)
 There are   289 symmetry adapted cartesian basis functions of A   symmetry.
 There are   274 symmetry adapted basis functions of A   symmetry.
   274 basis functions,   471 primitive gaussians,   289 cartesian basis functions
    57 alpha electrons       57 beta electrons
       nuclear repulsion energy       997.0967021307 Hartrees.
 NAtoms=   27 NActive=   27 NUniq=   27 SFac= 1.00D+00 NAtFMM=   60 NAOKFM=F Big=F
 Integral buffers will be    131072 words long.
 Raffenetti 2 integral format.
 Two-electron integral symmetry is turned on.
 Nuclear repulsion after empirical dispersion term =      997.0787636836 Hartrees.
 One-electron integrals computed using PRISM.
   1 Symmetry operations used in ECPInt.
 ECPInt:  NShTT=    8256 NPrTT=   30622 LenC2=    7765 LenP2D=   20955.
 LDataN:  DoStor=T MaxTD1= 4 Len=   56
 NBasis=   274 RedAO= T EigKep=  2.29D-04  NBF=   274
 NBsUse=   274 1.00D-06 EigRej= -1.00D+00 NBFU=   274
 ExpMin= 1.22D-01 ExpMax= 1.04D+04 ExpMxC= 1.57D+03 IAcc=3 IRadAn=         5 AccDes= 0.00D+00
 Harris functional with IExCor= 4639 and IRadAn=       5 diagonalized for initial guess.
 HarFok:  IExCor= 4639 AccDes= 0.00D+00 IRadAn=         5 IDoV= 1 UseB2=F ITyADJ=14
 ICtDFT=  3500011 ScaDFX=  1.000000  1.000000  1.000000  1.000000
 FoFCou: FMM=F IPFlag=           0 FMFlag=      100000 FMFlg1=           0
         NFxFlg=           0 DoJE=T BraDBF=F KetDBF=T FulRan=T
         wScrn=  0.000000 ICntrl=       500 IOpCl=  0 I1Cent=   200000004 NGrid=           0
         NMat0=    1 NMatS0=      1 NMatT0=    0 NMatD0=    1 NMtDS0=    0 NMtDT0=    0
 Petite list used in FoFCou.
 Requested convergence on RMS density matrix=1.00D-08 within 128 cycles.
 Requested convergence on MAX density matrix=1.00D-06.
 Requested convergence on             energy=1.00D-06.
 No special actions if energy rises.
 Integral accuracy reduced to 1.0D-05 until final iterations.
 Initial convergence to 1.0D-05 achieved.  Increase integral accuracy.
 SCF Done:  E(RwB97XD) =  -1016.82381735     A.U. after   16 cycles
            NFock= 16  Conv=0.46D-08     -V/T= 2.0067

 **********************************************************************

            Population analysis using the SCF Density.

 **********************************************************************

 Orbital symmetries:
       Occupied  (A) (A) (A) (A) (A) (A) (A) (A) (A) (A) (A) (A)
                 (A) (A) (A) (A) (A) (A) (A) (A) (A) (A) (A) (A)
                 (A) (A) (A) (A) (A) (A) (A) (A) (A) (A) (A) (A)
                 (A) (A) (A) (A) (A) (A) (A) (A) (A) (A) (A) (A)
                 (A) (A) (A) (A) (A) (A) (A) (A) (A)
       Virtual   (A) (A) (A) (A) (A) (A) (A) (A) (A) (A) (A) (A)
                 (A) (A) (A) (A) (A) (A) (A) (A) (A) (A) (A) (A)
                 (A) (A) (A) (A) (A) (A) (A) (A) (A) (A) (A) (A)
                 (A) (A) (A) (A) (A) (A) (A) (A) (A) (A) (A) (A)
                 (A) (A) (A) (A) (A) (A) (A) (A) (A) (A) (A) (A)
                 (A) (A) (A) (A) (A) (A) (A) (A) (A) (A) (A) (A)
                 (A) (A) (A) (A) (A) (A) (A) (A) (A) (A) (A) (A)
                 (A) (A) (A) (A) (A) (A) (A) (A) (A) (A) (A) (A)
                 (A) (A) (A) (A) (A) (A) (A) (A) (A) (A) (A) (A)
                 (A) (A) (A) (A) (A) (A) (A) (A) (A) (A) (A) (A)
                 (A) (A) (A) (A) (A) (A) (A) (A) (A) (A) (A) (A)
                 (A) (A) (A) (A) (A) (A) (A) (A) (A) (A) (A) (A)
                 (A) (A) (A) (A) (A) (A) (A) (A) (A) (A) (A) (A)
                 (A) (A) (A) (A) (A) (A) (A) (A) (A) (A) (A) (A)
                 (A) (A) (A) (A) (A) (A) (A) (A) (A) (A) (A) (A)
                 (A) (A) (A) (A) (A) (A) (A) (A) (A) (A) (A) (A)
                 (A) (A) (A) (A) (A) (A) (A) (A) (A) (A) (A) (A)
                 (A) (A) (A) (A) (A) (A) (A) (A) (A) (A) (A) (A)
                 (A)
 The electronic state is 1-A.
 Alpha  occ. eigenvalues -- -101.67345 -14.47331 -10.35484 -10.35161 -10.34620
 Alpha  occ. eigenvalues --  -10.33523 -10.30604 -10.30414 -10.30322 -10.30284
 Alpha  occ. eigenvalues --  -10.30238 -10.30005 -10.29821 -10.29790 -10.29667
 Alpha  occ. eigenvalues --   -9.58162  -7.33543  -7.32572  -7.32545  -1.04976
 Alpha  occ. eigenvalues --   -0.98806  -0.95676  -0.92872  -0.85897  -0.85207
 Alpha  occ. eigenvalues --   -0.83805  -0.82769  -0.77843  -0.71924  -0.70400
 Alpha  occ. eigenvalues --   -0.69964  -0.66834  -0.63027  -0.61172  -0.57936
 Alpha  occ. eigenvalues --   -0.57151  -0.56357  -0.54111  -0.53975  -0.52847
 Alpha  occ. eigenvalues --   -0.52271  -0.51677  -0.51296  -0.48831  -0.48465
 Alpha  occ. eigenvalues --   -0.46956  -0.45767  -0.44931  -0.43732  -0.43275
 Alpha  occ. eigenvalues --   -0.42540  -0.39023  -0.38292  -0.34261  -0.34101
 Alpha  occ. eigenvalues --   -0.32325  -0.26937
 Alpha virt. eigenvalues --    0.04637   0.05115   0.06483   0.08201   0.12277
 Alpha virt. eigenvalues --    0.14037   0.15747   0.17543   0.17884   0.19860
 Alpha virt. eigenvalues --    0.20200   0.20417   0.21177   0.22034   0.22992
 Alpha virt. eigenvalues --    0.23159   0.23397   0.24325   0.25085   0.26003
 Alpha virt. eigenvalues --    0.31330   0.33753   0.35040   0.35353   0.36504
 Alpha virt. eigenvalues --    0.37279   0.38857   0.39646   0.40369   0.41960
 Alpha virt. eigenvalues --    0.42570   0.44073   0.46466   0.47328   0.48229
 Alpha virt. eigenvalues --    0.49195   0.50208   0.51187   0.52583   0.53433
 Alpha virt. eigenvalues --    0.54921   0.55342   0.56073   0.57278   0.57465
 Alpha virt. eigenvalues --    0.57984   0.58229   0.59095   0.59965   0.62156
 Alpha virt. eigenvalues --    0.63171   0.64282   0.64974   0.66087   0.66494
 Alpha virt. eigenvalues --    0.68220   0.68648   0.69806   0.71062   0.72202
 Alpha virt. eigenvalues --    0.72686   0.73655   0.73884   0.74430   0.74941
 Alpha virt. eigenvalues --    0.75549   0.76195   0.76578   0.77074   0.78461
 Alpha virt. eigenvalues --    0.78672   0.79286   0.80288   0.81771   0.82513
 Alpha virt. eigenvalues --    0.83242   0.84225   0.85470   0.86118   0.86591
 Alpha virt. eigenvalues --    0.87778   0.88553   0.90053   0.90665   0.91768
 Alpha virt. eigenvalues --    0.91830   0.93221   0.93337   0.95797   0.96292
 Alpha virt. eigenvalues --    1.00522   1.02146   1.02829   1.04764   1.05682
 Alpha virt. eigenvalues --    1.10359   1.13234   1.16073   1.16449   1.18674
 Alpha virt. eigenvalues --    1.19259   1.25849   1.27269   1.29237   1.31455
 Alpha virt. eigenvalues --    1.32334   1.33095   1.33894   1.35378   1.35639
 Alpha virt. eigenvalues --    1.36609   1.36983   1.38124   1.38866   1.39721
 Alpha virt. eigenvalues --    1.41129   1.42011   1.45336   1.50117   1.57024
 Alpha virt. eigenvalues --    1.58270   1.59589   1.62704   1.63936   1.67515
 Alpha virt. eigenvalues --    1.70461   1.75649   1.77034   1.78329   1.79030
 Alpha virt. eigenvalues --    1.80783   1.81052   1.82009   1.82786   1.83531
 Alpha virt. eigenvalues --    1.83915   1.85067   1.85566   1.86478   1.87371
 Alpha virt. eigenvalues --    1.89192   1.89856   1.90779   1.91565   1.92177
 Alpha virt. eigenvalues --    1.92398   1.93630   1.95402   1.96982   1.99004
 Alpha virt. eigenvalues --    2.00785   2.01845   2.03869   2.04721   2.06329
 Alpha virt. eigenvalues --    2.07802   2.08953   2.10488   2.12893   2.15383
 Alpha virt. eigenvalues --    2.16193   2.19283   2.20456   2.22897   2.23828
 Alpha virt. eigenvalues --    2.25850   2.26024   2.27620   2.29109   2.29355
 Alpha virt. eigenvalues --    2.32388   2.34578   2.37079   2.37949   2.38314
 Alpha virt. eigenvalues --    2.39433   2.40252   2.40504   2.43179   2.44581
 Alpha virt. eigenvalues --    2.45192   2.46248   2.51853   2.54416   2.56732
 Alpha virt. eigenvalues --    2.62428   2.64908   2.68942   2.69565   2.70481
 Alpha virt. eigenvalues --    2.72778   2.74180   2.74991   2.76373   2.77751
 Alpha virt. eigenvalues --    2.84152   2.84338   2.84741   2.86845   2.91183
 Alpha virt. eigenvalues --    2.94634   2.95642   2.97448   3.00066   3.00422
 Alpha virt. eigenvalues --    3.04552   3.04978   3.08719   3.11554   3.17279
 Alpha virt. eigenvalues --    3.22961   3.24399   3.28619   3.38811   3.45617
 Alpha virt. eigenvalues --    3.72227   3.78977
          Condensed to atoms (all electrons):
               1          2          3          4          5          6
     1  Cl  16.969345   0.239901  -0.065141   0.003730  -0.000018  -0.000026
     2  C    0.239901   5.247051   0.226947   0.156887   0.010084   0.000318
     3  C   -0.065141   0.226947   5.246236   0.231150  -0.093274   0.006503
     4  C    0.003730   0.156887   0.231150   5.060515   0.347316  -0.052972
     5  N   -0.000018   0.010084  -0.093274   0.347316   6.810743   0.336129
     6  C   -0.000026   0.000318   0.006503  -0.052972   0.336129   4.435195
     7  C    0.000001  -0.000044   0.007181  -0.046917   0.304561  -0.049175
     8  C    0.000000  -0.000020   0.000351  -0.006120  -0.077005   0.003922
     9  C    0.000000   0.000002  -0.000045   0.000097   0.009186  -0.000105
    10  C    0.000000  -0.000000   0.000001   0.000028  -0.000409   0.000004
    11  C    0.000000  -0.000000   0.000001  -0.000174   0.008278   0.000445
    12  C   -0.000000   0.000002  -0.000450   0.004228  -0.075351  -0.007984
    13  C    0.000414  -0.190041   0.086637   0.241327  -0.087974   0.006402
    14  C    0.004199   0.139612  -0.159946   0.140739   0.009184  -0.000280
    15  C   -0.056009   0.258875   0.101596  -0.173438  -0.001108   0.000116
    16  H    0.003851  -0.074741   0.446528  -0.064364  -0.016881   0.011529
    17  H   -0.000001   0.000943   0.004657  -0.006396  -0.028063   0.402508
    18  H   -0.000000  -0.000062   0.000595   0.006016  -0.017805   0.400456
    19  H   -0.000024   0.001132   0.004069  -0.012924  -0.031053   0.400705
    20  H    0.000000   0.000047  -0.000906   0.004071  -0.011965  -0.000153
    21  H   -0.000000   0.000000   0.000000  -0.000022  -0.000134   0.000005
    22  H    0.000000  -0.000000   0.000000   0.000001   0.000008   0.000000
    23  H   -0.000000   0.000000  -0.000000   0.000007  -0.000141  -0.000013
    24  H    0.000000  -0.000000  -0.000020  -0.000315  -0.010036   0.001044
    25  H    0.000008  -0.002331   0.016332  -0.066895  -0.014772  -0.000105
    26  H   -0.000122   0.015102  -0.002205   0.014800  -0.000112   0.000006
    27  H    0.000799  -0.072073   0.016238  -0.001707   0.000010   0.000001
               7          8          9         10         11         12
     1  Cl   0.000001   0.000000   0.000000   0.000000   0.000000  -0.000000
     2  C   -0.000044  -0.000020   0.000002  -0.000000  -0.000000   0.000002
     3  C    0.007181   0.000351  -0.000045   0.000001   0.000001  -0.000450
     4  C   -0.046917  -0.006120   0.000097   0.000028  -0.000174   0.004228
     5  N    0.304561  -0.077005   0.009186  -0.000409   0.008278  -0.075351
     6  C   -0.049175   0.003922  -0.000105   0.000004   0.000445  -0.007984
     7  C    5.128315   0.272711   0.119368  -0.165853   0.113641   0.278806
     8  C    0.272711   5.163052   0.266115   0.088708  -0.148595   0.059654
     9  C    0.119368   0.266115   5.067974   0.273957   0.099056  -0.148779
    10  C   -0.165853   0.088708   0.273957   5.102224   0.282782   0.086156
    11  C    0.113641  -0.148595   0.099056   0.282782   5.044141   0.280368
    12  C    0.278806   0.059654  -0.148779   0.086156   0.280368   5.153901
    13  C   -0.006246  -0.004871  -0.001668   0.000037   0.000048   0.000953
    14  C   -0.000220  -0.000504   0.000031  -0.000003   0.000004  -0.000052
    15  C    0.000052  -0.000021  -0.000003   0.000000  -0.000000   0.000001
    16  H   -0.000072  -0.000032  -0.000001   0.000000   0.000000   0.000014
    17  H    0.002385  -0.000551   0.000028   0.000000  -0.000057   0.001141
    18  H   -0.008279  -0.000014   0.000007  -0.000069   0.000462   0.003689
    19  H    0.004416   0.000965  -0.000071  -0.000003   0.000029   0.000020
    20  H   -0.069545   0.460910  -0.069597   0.014790  -0.002513   0.016145
    21  H    0.015296  -0.066894   0.453376  -0.071983   0.014305  -0.002170
    22  H   -0.001691   0.014758  -0.069390   0.453361  -0.069542   0.014614
    23  H    0.015218  -0.002020   0.014046  -0.070400   0.450461  -0.065234
    24  H   -0.071603   0.016326  -0.002594   0.014917  -0.065797   0.452610
    25  H    0.006352   0.002795  -0.000522   0.000044   0.000038  -0.001123
    26  H   -0.000011   0.000031   0.000001  -0.000000  -0.000000   0.000001
    27  H    0.000000   0.000000   0.000000  -0.000000   0.000000   0.000000
              13         14         15         16         17         18
     1  Cl   0.000414   0.004199  -0.056009   0.003851  -0.000001  -0.000000
     2  C   -0.190041   0.139612   0.258875  -0.074741   0.000943  -0.000062
     3  C    0.086637  -0.159946   0.101596   0.446528   0.004657   0.000595
     4  C    0.241327   0.140739  -0.173438  -0.064364  -0.006396   0.006016
     5  N   -0.087974   0.009184  -0.001108  -0.016881  -0.028063  -0.017805
     6  C    0.006402  -0.000280   0.000116   0.011529   0.402508   0.400456
     7  C   -0.006246  -0.000220   0.000052  -0.000072   0.002385  -0.008279
     8  C   -0.004871  -0.000504  -0.000021  -0.000032  -0.000551  -0.000014
     9  C   -0.001668   0.000031  -0.000003  -0.000001   0.000028   0.000007
    10  C    0.000037  -0.000003   0.000000   0.000000   0.000000  -0.000069
    11  C    0.000048   0.000004  -0.000000   0.000000  -0.000057   0.000462
    12  C    0.000953  -0.000052   0.000001   0.000014   0.001141   0.003689
    13  C    5.245014   0.243067   0.111807   0.017343   0.000259  -0.000112
    14  C    0.243067   5.077517   0.233061  -0.003005  -0.000056   0.000003
    15  C    0.111807   0.233061   5.121745   0.017045  -0.000073   0.000004
    16  H    0.017343  -0.003005   0.017045   0.683483  -0.001434  -0.000028
    17  H    0.000259  -0.000056  -0.000073  -0.001434   0.637387  -0.018695
    18  H   -0.000112   0.000003   0.000004  -0.000028  -0.018695   0.600512
    19  H   -0.000777   0.000074  -0.000069  -0.001923  -0.037922  -0.020871
    20  H    0.002524  -0.000139  -0.000052  -0.000021   0.000001  -0.000035
    21  H    0.000038   0.000002  -0.000000  -0.000000  -0.000000   0.000000
    22  H   -0.000001  -0.000000   0.000000   0.000000   0.000000  -0.000001
    23  H   -0.000002  -0.000000   0.000000  -0.000000   0.000002   0.000049
    24  H   -0.000029   0.000002   0.000000  -0.000003  -0.000684   0.000817
    25  H    0.459858  -0.070304   0.014980  -0.000157   0.000031  -0.000009
    26  H   -0.069195   0.455793  -0.070260   0.000025   0.000000  -0.000000
    27  H    0.014625  -0.062910   0.448083  -0.000323  -0.000000   0.000000
              19         20         21         22         23         24
     1  Cl  -0.000024   0.000000  -0.000000   0.000000  -0.000000   0.000000
     2  C    0.001132   0.000047   0.000000  -0.000000   0.000000  -0.000000
     3  C    0.004069  -0.000906   0.000000   0.000000  -0.000000  -0.000020
     4  C   -0.012924   0.004071  -0.000022   0.000001   0.000007  -0.000315
     5  N   -0.031053  -0.011965  -0.000134   0.000008  -0.000141  -0.010036
     6  C    0.400705  -0.000153   0.000005   0.000000  -0.000013   0.001044
     7  C    0.004416  -0.069545   0.015296  -0.001691   0.015218  -0.071603
     8  C    0.000965   0.460910  -0.066894   0.014758  -0.002020   0.016326
     9  C   -0.000071  -0.069597   0.453376  -0.069390   0.014046  -0.002594
    10  C   -0.000003   0.014790  -0.071983   0.453361  -0.070400   0.014917
    11  C    0.000029  -0.002513   0.014305  -0.069542   0.450461  -0.065797
    12  C    0.000020   0.016145  -0.002170   0.014614  -0.065234   0.452610
    13  C   -0.000777   0.002524   0.000038  -0.000001  -0.000002  -0.000029
    14  C    0.000074  -0.000139   0.000002  -0.000000  -0.000000   0.000002
    15  C   -0.000069  -0.000052  -0.000000   0.000000   0.000000   0.000000
    16  H   -0.001923  -0.000021  -0.000000   0.000000  -0.000000  -0.000003
    17  H   -0.037922   0.000001  -0.000000   0.000000   0.000002  -0.000684
    18  H   -0.020871  -0.000035   0.000000  -0.000001   0.000049   0.000817
    19  H    0.649814   0.000026   0.000001  -0.000000  -0.000002   0.000305
    20  H    0.000026   0.655985  -0.012495  -0.000221   0.000021  -0.000194
    21  H    0.000001  -0.012495   0.668636  -0.012251  -0.000262   0.000026
    22  H   -0.000000  -0.000221  -0.012251   0.671252  -0.012258  -0.000226
    23  H   -0.000002   0.000021  -0.000262  -0.012258   0.670280  -0.013060
    24  H    0.000305  -0.000194   0.000026  -0.000226  -0.013060   0.676781
    25  H   -0.000029  -0.002550   0.000024   0.000000  -0.000004  -0.000038
    26  H   -0.000000   0.000016  -0.000000   0.000000   0.000000  -0.000000
    27  H    0.000000  -0.000000   0.000000  -0.000000   0.000000   0.000000
              25         26         27
     1  Cl   0.000008  -0.000122   0.000799
     2  C   -0.002331   0.015102  -0.072073
     3  C    0.016332  -0.002205   0.016238
     4  C   -0.066895   0.014800  -0.001707
     5  N   -0.014772  -0.000112   0.000010
     6  C   -0.000105   0.000006   0.000001
     7  C    0.006352  -0.000011   0.000000
     8  C    0.002795   0.000031   0.000000
     9  C   -0.000522   0.000001   0.000000
    10  C    0.000044  -0.000000  -0.000000
    11  C    0.000038  -0.000000   0.000000
    12  C   -0.001123   0.000001   0.000000
    13  C    0.459858  -0.069195   0.014625
    14  C   -0.070304   0.455793  -0.062910
    15  C    0.014980  -0.070260   0.448083
    16  H   -0.000157   0.000025  -0.000323
    17  H    0.000031   0.000000  -0.000000
    18  H   -0.000009  -0.000000   0.000000
    19  H   -0.000029  -0.000000   0.000000
    20  H   -0.002550   0.000016  -0.000000
    21  H    0.000024  -0.000000   0.000000
    22  H    0.000000   0.000000  -0.000000
    23  H   -0.000004   0.000000   0.000000
    24  H   -0.000038  -0.000000   0.000000
    25  H    0.650629  -0.012509  -0.000216
    26  H   -0.012509   0.662905  -0.012478
    27  H   -0.000216  -0.012478   0.665595
 Mulliken charges:
               1
     1  Cl  -0.100907
     2  C    0.042409
     3  C   -0.073032
     4  C    0.221332
     5  N   -0.369397
     6  C    0.105529
     7  C    0.151353
     8  C   -0.043650
     9  C   -0.010469
    10  C   -0.008291
    11  C   -0.007385
    12  C   -0.051160
    13  C   -0.069438
    14  C   -0.005866
    15  C   -0.006332
    16  H   -0.016833
    17  H    0.044589
    18  H    0.053371
    19  H    0.044113
    20  H    0.015851
    21  H    0.014503
    22  H    0.011586
    23  H    0.013312
    24  H    0.001771
    25  H    0.020474
    26  H    0.018211
    27  H    0.004356
 Sum of Mulliken charges =  -0.00000
 Mulliken charges with hydrogens summed into heavy atoms:
               1
     1  Cl  -0.100907
     2  C    0.042409
     3  C   -0.089865
     4  C    0.221332
     5  N   -0.369397
     6  C    0.247602
     7  C    0.151353
     8  C   -0.027799
     9  C    0.004034
    10  C    0.003296
    11  C    0.005927
    12  C   -0.049389
    13  C   -0.048964
    14  C    0.012346
    15  C   -0.001976
 Electronic spatial extent (au):  <R**2>=           4466.3520
 Charge=             -0.0000 electrons
 Dipole moment (field-independent basis, Debye):
    X=              2.2263    Y=              0.3774    Z=             -0.2793  Tot=              2.2753
 Quadrupole moment (field-independent basis, Debye-Ang):
   XX=            -96.1457   YY=            -85.4994   ZZ=            -96.1571
   XY=              1.6279   XZ=             -0.5280   YZ=             -1.3503
 Traceless Quadrupole moment (field-independent basis, Debye-Ang):
   XX=             -3.5450   YY=              7.1013   ZZ=             -3.5564
   XY=              1.6279   XZ=             -0.5280   YZ=             -1.3503
 Octapole moment (field-independent basis, Debye-Ang**2):
  XXX=             38.2177  YYY=              8.1524  ZZZ=              4.7291  XYY=             -8.0982
  XXY=            -10.9049  XXZ=             -8.8195  XZZ=             -3.6480  YZZ=              1.7057
  YYZ=             -2.4967  XYZ=            -14.6197
 Hexadecapole moment (field-independent basis, Debye-Ang**3):
 XXXX=          -4705.7703 YYYY=           -837.8038 ZZZZ=           -295.0776 XXXY=            -17.9473
 XXXZ=            -43.6595 YYYX=              9.4362 YYYZ=              6.7750 ZZZX=            -17.5946
 ZZZY=             -9.6782 XXYY=           -916.7540 XXZZ=           -870.3848 YYZZ=           -185.9663
 XXYZ=            -33.2462 YYXZ=              8.3867 ZZXY=             -8.8770
 N-N= 9.970787636836D+02 E-N=-4.376518176499D+03  KE= 1.010062178441D+03
   1 Symmetry operations used in ECPInt.
 ECPInt:  NShTT=    8256 NPrTT=   30622 LenC2=    7765 LenP2D=   20955.
 LDataN:  DoStor=T MaxTD1= 5 Len=  102
 Calling FoFJK, ICntrl=      2127 FMM=F ISym2X=0 I1Cent= 0 IOpClX= 0 NMat=1 NMatS=1 NMatT=0.
 ***** Axes restored to original set *****
 -------------------------------------------------------------------
 Center     Atomic                   Forces (Hartrees/Bohr)
 Number     Number              X              Y              Z
 -------------------------------------------------------------------
      1       17          -0.004588868   -0.000531652    0.003312569
      2        6           0.003061494    0.001603174   -0.007360960
      3        6           0.003079350   -0.000203586    0.009275666
      4        6           0.028372367   -0.001411351    0.007772703
      5        7          -0.001585245    0.001260038   -0.006191681
      6        6          -0.003881289   -0.004404240   -0.018455492
      7        6          -0.018319078    0.003788594    0.006322357
      8        6          -0.005431211    0.001009388    0.006109667
      9        6           0.001498591    0.000088426   -0.002194749
     10        6           0.006056385   -0.000779312   -0.002977665
     11        6           0.003677530   -0.002168455   -0.000587332
     12        6          -0.010314341    0.001504256    0.002843180
     13        6           0.004142329    0.001840751   -0.001897970
     14        6           0.004529299   -0.001174020    0.005109401
     15        6          -0.014145044   -0.001159371    0.002104632
     16        1          -0.000211138   -0.001061473    0.011525071
     17        1          -0.004357794    0.007305024    0.003756512
     18        1           0.005252914   -0.000375944   -0.000483782
     19        1          -0.003725939   -0.006084083    0.008460733
     20        1          -0.008977806   -0.006769903   -0.001801601
     21        1          -0.000290552   -0.008532556   -0.005984431
     22        1           0.008823764   -0.002319657   -0.005054172
     23        1           0.008133326    0.006274647    0.001616636
     24        1           0.000487623    0.009695605    0.006792148
     25        1           0.008207543    0.001251571   -0.006840712
     26        1          -0.000311097    0.001246595   -0.009931732
     27        1          -0.009183110    0.000107530   -0.005238998
 -------------------------------------------------------------------
 Cartesian Forces:  Max     0.028372367 RMS     0.006756424

 GradGradGradGradGradGradGradGradGradGradGradGradGradGradGradGradGradGrad
 Berny optimization.
 FormGI is forming the generalized inverse of G from B-inverse, IUseBI=4.
 Internal  Forces:  Max     0.024020986 RMS     0.005694087
 Search for a local minimum.
 Step number   1 out of a maximum of  145
 All quantities printed in internal units (Hartrees-Bohrs-Radians)
 Mixed Optimization -- RFO/linear search
 Second derivative matrix not updated -- first step.
 ITU=  0
     Eigenvalues ---    0.00866   0.01126   0.01255   0.01353   0.01885
     Eigenvalues ---    0.01915   0.02182   0.02186   0.02247   0.02263
     Eigenvalues ---    0.02267   0.02289   0.02297   0.02306   0.02328
     Eigenvalues ---    0.02336   0.02337   0.02342   0.02355   0.02367
     Eigenvalues ---    0.02369   0.02375   0.07389   0.07452   0.15994
     Eigenvalues ---    0.15997   0.15998   0.15999   0.16000   0.16000
     Eigenvalues ---    0.16000   0.16000   0.16000   0.16000   0.16000
     Eigenvalues ---    0.16000   0.22000   0.22000   0.22000   0.23461
     Eigenvalues ---    0.23468   0.23491   0.24986   0.24991   0.24994
     Eigenvalues ---    0.25000   0.25000   0.32559   0.35000   0.35025
     Eigenvalues ---    0.35079   0.36266   0.36269   0.36274   0.36284
     Eigenvalues ---    0.36404   0.36475   0.36505   0.36543   0.36666
     Eigenvalues ---    0.36744   0.40555   0.41631   0.43032   0.43066
     Eigenvalues ---    0.43719   0.43779   0.47025   0.47346   0.47789
     Eigenvalues ---    0.47929   0.48904   0.49089   0.49149   0.49750
 RFO step:  Lambda=-1.14685008D-02 EMin= 8.66356088D-03
 Linear search not attempted -- first point.
 Iteration  1 RMS(Cart)=  0.05569853 RMS(Int)=  0.00063460
 Iteration  2 RMS(Cart)=  0.00127947 RMS(Int)=  0.00010521
 Iteration  3 RMS(Cart)=  0.00000097 RMS(Int)=  0.00010521
 Variable       Old X    -DE/DX   Delta X   Delta X   Delta X     New X
                                 (Linear)    (Quad)   (Total)
    R1        3.26833   0.00568   0.00000   0.01684   0.01684   3.28517
    R2        2.60993   0.01259   0.00000   0.02515   0.02516   2.63509
    R3        2.61854   0.00661   0.00000   0.01354   0.01356   2.63210
    R4        2.63142   0.01056   0.00000   0.02187   0.02186   2.65328
    R5        2.02933   0.01157   0.00000   0.03052   0.03052   2.05986
    R6        2.69396  -0.02402   0.00000  -0.05615  -0.05615   2.63780
    R7        2.63948   0.01050   0.00000   0.02208   0.02207   2.66155
    R8        2.76353  -0.00764   0.00000  -0.02020  -0.02020   2.74334
    R9        2.70806  -0.01525   0.00000  -0.03658  -0.03658   2.67148
   R10        2.05675   0.00906   0.00000   0.02507   0.02507   2.08181
   R11        2.05546   0.00481   0.00000   0.01328   0.01328   2.06874
   R12        2.05635   0.01054   0.00000   0.02914   0.02914   2.08549
   R13        2.63559   0.00834   0.00000   0.01693   0.01693   2.65251
   R14        2.63581   0.00702   0.00000   0.01412   0.01412   2.64993
   R15        2.60079   0.01593   0.00000   0.03132   0.03132   2.63212
   R16        2.03346   0.01137   0.00000   0.03021   0.03021   2.06367
   R17        2.61005   0.01391   0.00000   0.02839   0.02840   2.63845
   R18        2.03662   0.01040   0.00000   0.02780   0.02780   2.06442
   R19        2.61031   0.01264   0.00000   0.02583   0.02584   2.63615
   R20        2.03655   0.01043   0.00000   0.02787   0.02787   2.06442
   R21        2.60159   0.01668   0.00000   0.03277   0.03277   2.63436
   R22        2.03667   0.01038   0.00000   0.02773   0.02773   2.06441
   R23        2.03299   0.01181   0.00000   0.03137   0.03137   2.06436
   R24        2.60575   0.01125   0.00000   0.02232   0.02231   2.62805
   R25        2.03240   0.01067   0.00000   0.02830   0.02830   2.06071
   R26        2.60613   0.01524   0.00000   0.03036   0.03036   2.63649
   R27        2.03640   0.01001   0.00000   0.02673   0.02673   2.06313
   R28        2.03455   0.01055   0.00000   0.02811   0.02811   2.06266
    A1        2.08934  -0.00341   0.00000  -0.01344  -0.01346   2.07588
    A2        2.09642  -0.00241   0.00000  -0.00964  -0.00965   2.08677
    A3        2.09742   0.00582   0.00000   0.02308   0.02310   2.12053
    A4        2.10910  -0.00319   0.00000  -0.01334  -0.01333   2.09576
    A5        2.07126   0.00109   0.00000   0.00376   0.00375   2.07501
    A6        2.10277   0.00210   0.00000   0.00961   0.00960   2.11238
    A7        2.11892  -0.00751   0.00000  -0.02895  -0.02901   2.08990
    A8        2.06058   0.00235   0.00000   0.00902   0.00891   2.06949
    A9        2.10351   0.00515   0.00000   0.01948   0.01938   2.12289
   A10        2.07801  -0.00394   0.00000  -0.01526  -0.01532   2.06269
   A11        2.13286   0.00035   0.00000   0.00113   0.00107   2.13393
   A12        2.07177   0.00357   0.00000   0.01348   0.01342   2.08518
   A13        1.92208   0.00286   0.00000   0.01809   0.01789   1.93997
   A14        1.93537  -0.00470   0.00000  -0.03034  -0.03017   1.90520
   A15        1.92071   0.00505   0.00000   0.03096   0.03083   1.95154
   A16        1.89591   0.00030   0.00000  -0.00115  -0.00105   1.89485
   A17        1.90596  -0.00283   0.00000  -0.01082  -0.01128   1.89468
   A18        1.88305  -0.00082   0.00000  -0.00757  -0.00735   1.87570
   A19        2.10323   0.00091   0.00000   0.00448   0.00443   2.10766
   A20        2.11423  -0.00338   0.00000  -0.01189  -0.01193   2.10230
   A21        2.06571   0.00247   0.00000   0.00731   0.00724   2.07295
   A22        2.10826  -0.00105   0.00000  -0.00547  -0.00549   2.10277
   A23        2.07315   0.00125   0.00000   0.00700   0.00700   2.08015
   A24        2.10167  -0.00020   0.00000  -0.00145  -0.00145   2.10021
   A25        2.09586   0.00129   0.00000   0.00710   0.00707   2.10293
   A26        2.09361  -0.00132   0.00000  -0.00747  -0.00750   2.08611
   A27        2.09371   0.00003   0.00000   0.00035   0.00032   2.09403
   A28        2.09287  -0.00319   0.00000  -0.01113  -0.01113   2.08174
   A29        2.09509   0.00168   0.00000   0.00606   0.00606   2.10115
   A30        2.09523   0.00151   0.00000   0.00507   0.00507   2.10029
   A31        2.09750   0.00100   0.00000   0.00560   0.00558   2.10308
   A32        2.09267   0.00017   0.00000   0.00109   0.00107   2.09374
   A33        2.09301  -0.00117   0.00000  -0.00672  -0.00674   2.08627
   A34        2.10617  -0.00052   0.00000  -0.00340  -0.00342   2.10275
   A35        2.07900   0.00119   0.00000   0.00724   0.00723   2.08623
   A36        2.09765  -0.00066   0.00000  -0.00358  -0.00359   2.09406
   A37        2.11322  -0.00323   0.00000  -0.01345  -0.01347   2.09975
   A38        2.07490   0.00302   0.00000   0.01494   0.01495   2.08985
   A39        2.09491   0.00021   0.00000  -0.00144  -0.00144   2.09347
   A40        2.09607   0.00455   0.00000   0.02066   0.02064   2.11671
   A41        2.09424  -0.00246   0.00000  -0.01142  -0.01143   2.08280
   A42        2.09287  -0.00209   0.00000  -0.00927  -0.00928   2.08359
   A43        2.08993  -0.00631   0.00000  -0.02606  -0.02605   2.06389
   A44        2.07978   0.00378   0.00000   0.01670   0.01668   2.09646
   A45        2.11347   0.00252   0.00000   0.00934   0.00932   2.12279
    D1        3.13722  -0.00001   0.00000  -0.00084  -0.00082   3.13640
    D2        0.00694  -0.00010   0.00000  -0.00347  -0.00337   0.00357
    D3       -0.00443   0.00016   0.00000   0.00347   0.00359  -0.00085
    D4       -3.13472   0.00006   0.00000   0.00084   0.00104  -3.13368
    D5        3.13907  -0.00009   0.00000  -0.00352  -0.00345   3.13562
    D6        0.00084   0.00012   0.00000   0.00317   0.00322   0.00405
    D7       -0.00246  -0.00026   0.00000  -0.00784  -0.00789  -0.01034
    D8       -3.14069  -0.00005   0.00000  -0.00115  -0.00122   3.14127
    D9        3.13110  -0.00048   0.00000  -0.01683  -0.01646   3.11464
   D10        0.01013   0.00023   0.00000   0.00783   0.00792   0.01806
   D11       -0.02200  -0.00039   0.00000  -0.01420  -0.01391  -0.03591
   D12        3.14021   0.00032   0.00000   0.01047   0.01048  -3.13249
   D13       -0.32540   0.00026   0.00000   0.01029   0.01016  -0.31524
   D14        2.78015  -0.00015   0.00000  -0.01069  -0.01066   2.76949
   D15        2.79507  -0.00050   0.00000  -0.01511  -0.01514   2.77993
   D16       -0.38257  -0.00091   0.00000  -0.03609  -0.03596  -0.41853
   D17       -0.00926  -0.00049   0.00000  -0.01495  -0.01497  -0.02423
   D18        3.11326  -0.00043   0.00000  -0.01222  -0.01234   3.10092
   D19       -3.13042   0.00037   0.00000   0.01008   0.01050  -3.11992
   D20       -0.00790   0.00043   0.00000   0.01281   0.01313   0.00523
   D21       -0.91166  -0.00098   0.00000  -0.01803  -0.01824  -0.92990
   D22       -3.01066  -0.00019   0.00000  -0.00883  -0.00888  -3.01954
   D23        1.19044   0.00056   0.00000  -0.00012   0.00016   1.19060
   D24        2.26471  -0.00052   0.00000   0.00244   0.00222   2.26693
   D25        0.16571   0.00027   0.00000   0.01164   0.01158   0.17729
   D26       -1.91638   0.00102   0.00000   0.02035   0.02062  -1.89576
   D27       -0.76805  -0.00141   0.00000  -0.05693  -0.05680  -0.82485
   D28        2.37880  -0.00079   0.00000  -0.03623  -0.03618   2.34262
   D29        2.33762  -0.00197   0.00000  -0.07841  -0.07846   2.25916
   D30       -0.79871  -0.00135   0.00000  -0.05771  -0.05783  -0.85655
   D31       -3.13796   0.00025   0.00000   0.00861   0.00877  -3.12919
   D32       -0.01215   0.00044   0.00000   0.01454   0.01468   0.00253
   D33       -0.00148  -0.00037   0.00000  -0.01158  -0.01156  -0.01305
   D34        3.12432  -0.00018   0.00000  -0.00565  -0.00566   3.11866
   D35        3.13855  -0.00078   0.00000  -0.02411  -0.02400   3.11455
   D36       -0.03220  -0.00043   0.00000  -0.01390  -0.01379  -0.04599
   D37        0.00211  -0.00017   0.00000  -0.00384  -0.00377  -0.00167
   D38        3.11454   0.00018   0.00000   0.00637   0.00644   3.12098
   D39        0.00048   0.00054   0.00000   0.01581   0.01582   0.01630
   D40        3.13948   0.00007   0.00000   0.00222   0.00223  -3.14147
   D41       -3.12507   0.00032   0.00000   0.00970   0.00977  -3.11530
   D42        0.01393  -0.00014   0.00000  -0.00388  -0.00382   0.01011
   D43       -0.00006  -0.00017   0.00000  -0.00450  -0.00453  -0.00459
   D44       -3.14145  -0.00026   0.00000  -0.00752  -0.00753   3.13421
   D45       -3.13906   0.00031   0.00000   0.00910   0.00913  -3.12993
   D46        0.00274   0.00021   0.00000   0.00608   0.00613   0.00887
   D47        0.00068  -0.00037   0.00000  -0.01085  -0.01085  -0.01017
   D48       -3.13717   0.00003   0.00000   0.00068   0.00074  -3.13642
   D49       -3.14112  -0.00028   0.00000  -0.00783  -0.00785   3.13422
   D50        0.00422   0.00013   0.00000   0.00370   0.00374   0.00796
   D51       -0.00173   0.00054   0.00000   0.01502   0.01506   0.01333
   D52       -3.11386   0.00016   0.00000   0.00453   0.00462  -3.10923
   D53        3.13612   0.00013   0.00000   0.00351   0.00353   3.13965
   D54        0.02399  -0.00025   0.00000  -0.00699  -0.00691   0.01709
   D55        0.00264   0.00036   0.00000   0.01071   0.01072   0.01336
   D56        3.14098  -0.00001   0.00000   0.00024   0.00018   3.14116
   D57       -3.11967   0.00027   0.00000   0.00777   0.00791  -3.11176
   D58        0.01867  -0.00010   0.00000  -0.00270  -0.00263   0.01604
   D59        0.00334   0.00001   0.00000   0.00083   0.00072   0.00406
   D60        3.14151  -0.00021   0.00000  -0.00599  -0.00604   3.13547
   D61       -3.13500   0.00037   0.00000   0.01129   0.01127  -3.12373
   D62        0.00317   0.00016   0.00000   0.00448   0.00451   0.00768
         Item               Value     Threshold  Converged?
 Maximum Force            0.024021     0.000450     NO 
 RMS     Force            0.005694     0.000300     NO 
 Maximum Displacement     0.161537     0.001800     NO 
 RMS     Displacement     0.056355     0.001200     NO 
 Predicted change in Energy=-6.024479D-03
 GradGradGradGradGradGradGradGradGradGradGradGradGradGradGradGradGradGrad

                          Input orientation:                          
 ---------------------------------------------------------------------
 Center     Atomic      Atomic             Coordinates (Angstroms)
 Number     Number       Type             X           Y           Z
 ---------------------------------------------------------------------
      1         17           0       -4.241729   -0.025633    1.226320
      2          6           0       -2.809441    0.135769    0.254383
      3          6           0       -1.563539    0.116260    0.880301
      4          6           0       -0.390954    0.238445    0.117749
      5          7           0        0.851120    0.250524    0.754574
      6          6           0        0.889313    0.535452    2.177536
      7          6           0        2.049812   -0.069465    0.076886
      8          6           0        2.131460   -1.209469   -0.737950
      9          6           0        3.319826   -1.527294   -1.391264
     10          6           0        4.452779   -0.727447   -1.229840
     11          6           0        4.381343    0.399078   -0.410186
     12          6           0        3.189873    0.732090    0.232356
     13          6           0       -0.507934    0.401587   -1.276302
     14          6           0       -1.761178    0.410784   -1.879091
     15          6           0       -2.928071    0.276006   -1.126298
     16          1           0       -1.519893   -0.003126    1.962893
     17          1           0        0.364011    1.475744    2.408912
     18          1           0        1.932033    0.630975    2.496980
     19          1           0        0.434131   -0.276277    2.770681
     20          1           0        1.253952   -1.850373   -0.846507
     21          1           0        3.365933   -2.418242   -2.021756
     22          1           0        5.385924   -0.982134   -1.737585
     23          1           0        5.259629    1.035489   -0.279749
     24          1           0        3.134951    1.632795    0.848046
     25          1           0        0.388587    0.536528   -1.882261
     26          1           0       -1.833452    0.538748   -2.960913
     27          1           0       -3.914784    0.288096   -1.592826
 ---------------------------------------------------------------------
                    Distance matrix (angstroms):
                    1          2          3          4          5
     1  Cl   0.000000
     2  C    1.738437   0.000000
     3  C    2.704176   1.394427   0.000000
     4  C    4.015861   2.424519   1.404055   0.000000
     5  N    5.122102   3.696359   2.421655   1.395865   0.000000
     6  C    5.248545   4.187965   2.806247   2.443362   1.451711
     7  C    6.395827   4.866823   3.706248   2.460450   1.413688
     8  C    6.773283   5.216022   4.246093   3.031706   2.449178
     9  C    8.141489   6.560628   5.631032   4.377766   3.722870
    10  C    9.061994   7.462432   6.431222   5.119637   4.226851
    11  C    8.787259   7.226228   6.089907   4.804096   3.720377
    12  C    7.535968   6.028918   4.836735   3.616509   2.444255
    13  C    4.515181   2.776795   2.417984   1.408431   2.448327
    14  C    3.998396   2.392947   2.782094   2.427877   3.712947
    15  C    2.711364   1.392845   2.431852   2.825956   4.221447
    16  H    2.819830   2.145049   1.090029   2.176561   2.673215
    17  H    4.986532   4.063044   2.810747   2.711145   2.115484
    18  H    6.337275   5.268401   3.885564   3.348296   2.085448
    19  H    4.930674   4.125809   2.778184   2.825553   2.125109
    20  H    6.150512   4.654877   3.845486   2.828191   2.671984
    21  H    8.611103   7.059676   6.256622   5.074412   4.599413
    22  H   10.118861   8.507741   7.506986   6.189055   5.319281
    23  H    9.678328   8.136626   6.981856   5.720347   4.595752
    24  H    7.570263   6.158678   4.937279   3.861288   2.671197
    25  H    5.605277   3.866942   3.408690   2.167159   2.692328
    26  H    4.863255   3.384239   3.873793   3.413084   4.592913
    27  H    2.855329   2.158047   3.416758   3.917385   5.312771
                    6          7          8          9         10
     6  C    0.000000
     7  C    2.474957   0.000000
     8  C    3.617697   1.403649   0.000000
     9  C    4.785253   2.427687   1.392855   0.000000
    10  C    5.089539   2.813312   2.421327   1.396207   0.000000
    11  C    4.348468   2.427512   2.785108   2.408369   1.394989
    12  C    3.019100   1.402284   2.414825   2.785291   2.421404
    13  C    3.728165   2.931735   3.138745   4.287837   5.087784
    14  C    4.847357   4.310467   4.368072   5.459920   6.350619
    15  C    5.055200   5.132866   5.287372   6.508326   7.449468
    16  H    2.477985   4.037848   4.699169   6.082461   6.811093
    17  H    1.101647   3.266181   4.498553   5.674188   5.900219
    18  H    1.094730   2.522170   3.727167   4.658598   4.699857
    19  H    1.103592   3.147972   4.007775   5.216710   5.688343
    20  H    3.869103   2.158165   1.092045   2.160781   3.411803
    21  H    5.700175   3.413682   2.152490   1.092444   2.160359
    22  H    6.152297   3.905754   3.412110   2.164694   1.092443
    23  H    5.038645   3.413362   3.877528   3.400906   2.159080
    24  H    2.831006   2.160996   3.406000   3.877479   3.409549
    25  H    4.090559   2.639157   2.719477   3.618370   4.305919
    26  H    5.815249   4.967684   4.870149   5.769627   6.642030
    27  H    6.111969   6.204207   6.287334   7.461625   8.436776
                   11         12         13         14         15
    11  C    0.000000
    12  C    1.394044   0.000000
    13  C    4.965400   4.007375   0.000000
    14  C    6.315726   5.392064   1.390705   0.000000
    15  C    7.345441   6.283565   2.428031   1.395171   0.000000
    16  H    6.373214   5.071212   3.417636   3.871741   3.406462
    17  H    5.024488   3.643613   3.936356   4.902809   4.977437
    18  H    3.808479   2.592471   4.499302   5.730470   6.072459
    19  H    5.114147   3.879950   4.210114   5.187660   5.176472
    20  H    3.876981   3.403065   2.891416   3.907694   4.699902
    21  H    3.400810   3.877706   4.849122   5.857560   6.904730
    22  H    2.163081   3.412019   6.071658   7.282947   8.430842
    23  H    1.092437   2.153646   5.887251   7.227716   8.266310
    24  H    2.158402   1.092410   4.393101   5.736084   6.519136
    25  H    4.257699   3.515259   1.090479   2.153442   3.411682
    26  H    6.719330   5.955514   2.147959   1.091759   2.152450
    27  H    8.380733   7.348780   3.423404   2.176009   1.091511
                   16         17         18         19         20
    16  H    0.000000
    17  H    2.436203   0.000000
    18  H    3.550088   1.783279   0.000000
    19  H    2.131981   1.790355   1.772492   0.000000
    20  H    4.358814   4.738439   4.218505   4.029135   0.000000
    21  H    6.751407   6.618570   5.636733   6.012564   2.482770
    22  H    7.895715   6.960906   5.697634   6.733718   4.315212
    23  H    7.215960   5.602659   4.352786   5.857583   4.969392
    24  H    5.058329   3.184191   2.273684   3.825638   4.306056
    25  H    4.326515   4.392823   4.644232   4.723621   2.742068
    26  H    4.963448   5.877230   6.631439   6.217505   4.439671
    27  H    4.296912   5.977667   7.143483   6.186418   5.643214
                   21         22         23         24         25
    21  H    0.000000
    22  H    2.494699   0.000000
    23  H    4.306847   2.492397   0.000000
    24  H    4.969910   4.311638   2.478498   0.000000
    25  H    4.196988   5.225002   5.152092   4.024784   0.000000
    26  H    6.054701   7.478570   7.599157   6.355323   2.470011
    27  H    7.779272   9.388163   9.297990   7.580556   4.320242
                   26         27
    26  H    0.000000
    27  H    2.503284   0.000000
 Stoichiometry    C13H12ClN
 Framework group  C1[X(C13H12ClN)]
 Deg. of freedom    75
 Full point group                 C1      NOp   1
 Largest Abelian subgroup         C1      NOp   1
 Largest concise Abelian subgroup C1      NOp   1
                         Standard orientation:                         
 ---------------------------------------------------------------------
 Center     Atomic      Atomic             Coordinates (Angstroms)
 Number     Number       Type             X           Y           Z
 ---------------------------------------------------------------------
      1         17           0       -4.459225    0.504626    0.429029
      2          6           0       -2.913726   -0.174640    0.014068
      3          6           0       -1.773678    0.619346    0.133662
      4          6           0       -0.512610    0.093094   -0.189041
      5          7           0        0.620063    0.903744   -0.097719
      6          6           0        0.432245    2.342826   -0.062662
      7          6           0        1.922613    0.369026    0.028587
      8          6           0        2.194399   -0.647391    0.957705
      9          6           0        3.483066   -1.159752    1.087590
     10          6           0        4.527280   -0.656463    0.309316
     11          6           0        4.265730    0.363319   -0.605907
     12          6           0        2.974605    0.868048   -0.752881
     13          6           0       -0.435247   -1.234765   -0.652164
     14          6           0       -1.585260   -2.009793   -0.756380
     15          6           0       -2.838486   -1.494751   -0.423725
     16          1           0       -1.880819    1.644726    0.487613
     17          1           0       -0.179815    2.684661   -0.912460
     18          1           0        1.409067    2.834082   -0.116713
     19          1           0       -0.052062    2.670522    0.873275
     20          1           0        1.384580   -1.025888    1.584997
     21          1           0        3.677074   -1.950775    1.815654
     22          1           0        5.538743   -1.054807    0.417458
     23          1           0        5.073413    0.762079   -1.224015
     24          1           0        2.773432    1.645503   -1.493458
     25          1           0        0.529632   -1.650377   -0.944432
     26          1           0       -1.507040   -3.037069   -1.117661
     27          1           0       -3.745406   -2.096140   -0.508725
 ---------------------------------------------------------------------
 Rotational constants (GHZ):           1.4543830           0.2569023           0.2330252
 Standard basis: def2SVP (5D, 7F)
 There are   289 symmetry adapted cartesian basis functions of A   symmetry.
 There are   274 symmetry adapted basis functions of A   symmetry.
   274 basis functions,   471 primitive gaussians,   289 cartesian basis functions
    57 alpha electrons       57 beta electrons
       nuclear repulsion energy       994.4671028008 Hartrees.
 NAtoms=   27 NActive=   27 NUniq=   27 SFac= 1.00D+00 NAtFMM=   60 NAOKFM=F Big=F
 Integral buffers will be    131072 words long.
 Raffenetti 2 integral format.
 Two-electron integral symmetry is turned on.
 Nuclear repulsion after empirical dispersion term =      994.4492069604 Hartrees.
 One-electron integrals computed using PRISM.
   1 Symmetry operations used in ECPInt.
 ECPInt:  NShTT=    8256 NPrTT=   30622 LenC2=    7768 LenP2D=   20930.
 LDataN:  DoStor=T MaxTD1= 4 Len=   56
 NBasis=   274 RedAO= T EigKep=  2.57D-04  NBF=   274
 NBsUse=   274 1.00D-06 EigRej= -1.00D+00 NBFU=   274
 Initial guess from the checkpoint file:  "prod_5f_5.chk"
 B after Tr=     0.000000    0.000000   -0.000000
         Rot=    0.999952    0.009707   -0.001219   -0.000854 Ang=   1.13 deg.
 ExpMin= 1.22D-01 ExpMax= 1.04D+04 ExpMxC= 1.57D+03 IAcc=3 IRadAn=         5 AccDes= 0.00D+00
 Harris functional with IExCor= 4639 and IRadAn=       5 diagonalized for initial guess.
 HarFok:  IExCor= 4639 AccDes= 0.00D+00 IRadAn=         5 IDoV= 1 UseB2=F ITyADJ=14
 ICtDFT=  3500011 ScaDFX=  1.000000  1.000000  1.000000  1.000000
 FoFCou: FMM=F IPFlag=           0 FMFlag=      100000 FMFlg1=           0
         NFxFlg=           0 DoJE=T BraDBF=F KetDBF=T FulRan=T
         wScrn=  0.000000 ICntrl=       500 IOpCl=  0 I1Cent=   200000004 NGrid=           0
         NMat0=    1 NMatS0=      1 NMatT0=    0 NMatD0=    1 NMtDS0=    0 NMtDT0=    0
 Petite list used in FoFCou.
 Requested convergence on RMS density matrix=1.00D-08 within 128 cycles.
 Requested convergence on MAX density matrix=1.00D-06.
 Requested convergence on             energy=1.00D-06.
 No special actions if energy rises.
 Integral accuracy reduced to 1.0D-05 until final iterations.
 Initial convergence to 1.0D-05 achieved.  Increase integral accuracy.
 SCF Done:  E(RwB97XD) =  -1016.82935227     A.U. after   14 cycles
            NFock= 14  Conv=0.43D-08     -V/T= 2.0072
   1 Symmetry operations used in ECPInt.
 ECPInt:  NShTT=    8256 NPrTT=   30622 LenC2=    7768 LenP2D=   20930.
 LDataN:  DoStor=T MaxTD1= 5 Len=  102
 Calling FoFJK, ICntrl=      2127 FMM=F ISym2X=0 I1Cent= 0 IOpClX= 0 NMat=1 NMatS=1 NMatT=0.
 ***** Axes restored to original set *****
 -------------------------------------------------------------------
 Center     Atomic                   Forces (Hartrees/Bohr)
 Number     Number              X              Y              Z
 -------------------------------------------------------------------
      1       17          -0.001925814   -0.000235941    0.001596264
      2        6           0.004948533    0.000629301   -0.004075991
      3        6          -0.003728053   -0.000055903    0.001107053
      4        6           0.004026847   -0.000014473    0.001099239
      5        7          -0.002356460    0.002202045    0.001536753
      6        6           0.002291571   -0.001520560   -0.003020693
      7        6           0.000255518   -0.000185450    0.000026276
      8        6           0.000723314    0.000007283    0.000697394
      9        6           0.000024615    0.001212184    0.000356582
     10        6          -0.000755300    0.000313253    0.000644777
     11        6          -0.000233195   -0.000935465   -0.000271141
     12        6          -0.000165534   -0.000226298   -0.001504710
     13        6          -0.001847446   -0.000236040   -0.001614314
     14        6           0.002194273   -0.000423130    0.002473719
     15        6          -0.002914515   -0.000189810    0.000970425
     16        1          -0.001221144   -0.000087261   -0.001668786
     17        1          -0.000332297   -0.000126010    0.000435842
     18        1           0.000334806   -0.000094833    0.000795081
     19        1           0.000365712   -0.000059174    0.000831822
     20        1           0.000086060    0.000245786   -0.000375663
     21        1          -0.000233749    0.000005953    0.000151648
     22        1          -0.000479492    0.000106013    0.000218239
     23        1          -0.000211727    0.000094426    0.000125473
     24        1           0.000232284   -0.000164618   -0.000311802
     25        1          -0.000183378   -0.000460976   -0.000072242
     26        1           0.000100725    0.000149885   -0.000236521
     27        1           0.001003844    0.000049813    0.000085276
 -------------------------------------------------------------------
 Cartesian Forces:  Max     0.004948533 RMS     0.001369748

 GradGradGradGradGradGradGradGradGradGradGradGradGradGradGradGradGradGrad
 Berny optimization.
 Using GEDIIS/GDIIS optimizer.
 FormGI is forming the generalized inverse of G from B-inverse, IUseBI=4.
 Internal  Forces:  Max     0.006135206 RMS     0.001140123
 Search for a local minimum.
 Step number   2 out of a maximum of  145
 All quantities printed in internal units (Hartrees-Bohrs-Radians)
 Mixed Optimization -- RFO/linear search
 Update second derivatives using D2CorX and points    1    2
 DE= -5.53D-03 DEPred=-6.02D-03 R= 9.19D-01
 TightC=F SS=  1.41D+00  RLast= 2.24D-01 DXNew= 5.0454D-01 6.7337D-01
 Trust test= 9.19D-01 RLast= 2.24D-01 DXMaxT set to 5.05D-01
 ITU=  1  0
 Use linear search instead of GDIIS.
[...]
 Alpha virt. eigenvalues --   22.68682  22.71285  22.77229  22.84864  22.86153
 Alpha virt. eigenvalues --   22.90386  22.95602  23.27738  23.33438  25.98660
 Alpha virt. eigenvalues --   33.15079
          Condensed to atoms (all electrons):
               1          2          3          4          5          6
     1  Cl  16.878521   0.281601  -0.048525   0.009315  -0.000308  -0.000303
     2  C    0.281601   4.909774   0.315338   0.064024  -0.000485  -0.001626
     3  C   -0.048525   0.315338   5.433548   0.309753  -0.091879  -0.003768
     4  C    0.009315   0.064024   0.309753   4.956804   0.437828  -0.082837
     5  N   -0.000308  -0.000485  -0.091879   0.437828   6.425361   0.310158
     6  C   -0.000303  -0.001626  -0.003768  -0.082837   0.310158   4.935680
     7  C   -0.000001  -0.000427   0.006545  -0.142710   0.243948  -0.073442
     8  C   -0.000002   0.000120   0.001025   0.024372  -0.050995  -0.003440
     9  C   -0.000000   0.000065  -0.000990  -0.003289   0.008835   0.000573
    10  C    0.000000  -0.000001   0.000076   0.001009   0.000933  -0.000156
    11  C    0.000000  -0.000010   0.000086  -0.000174   0.005767   0.000570
    12  C    0.000001   0.000021   0.000689  -0.009307  -0.039132  -0.008103
    13  C   -0.000096  -0.100145   0.055624   0.361990  -0.068199   0.013185
    14  C    0.013758   0.063164  -0.125967   0.016625   0.002037  -0.001195
    15  C   -0.038921   0.374366   0.072713  -0.109943   0.001526   0.000907
    16  H    0.006462  -0.037512   0.424073  -0.049798  -0.005153   0.005867
    17  H    0.000036   0.001676  -0.003390  -0.006378  -0.045402   0.414142
    18  H   -0.000003   0.000135   0.000349   0.007534  -0.026681   0.406519
    19  H    0.000031  -0.000849   0.008589  -0.006562  -0.049936   0.407673
    20  H   -0.000001  -0.000035   0.000739   0.001271  -0.003146   0.000151
    21  H   -0.000000   0.000000   0.000005   0.000049  -0.000224   0.000004
    22  H    0.000000  -0.000000   0.000000   0.000005   0.000012  -0.000002
    23  H   -0.000000   0.000000  -0.000003  -0.000025  -0.000256   0.000027
    24  H   -0.000000  -0.000002   0.000024   0.000780   0.005942  -0.001959
    25  H    0.000019  -0.001781   0.007948  -0.045070  -0.004552  -0.000275
    26  H   -0.000286   0.010451  -0.002328   0.012015  -0.000154   0.000013
    27  H    0.000950  -0.067051   0.019503  -0.004407   0.000040   0.000009
               7          8          9         10         11         12
     1  Cl  -0.000001  -0.000002  -0.000000   0.000000   0.000000   0.000001
     2  C   -0.000427   0.000120   0.000065  -0.000001  -0.000010   0.000021
     3  C    0.006545   0.001025  -0.000990   0.000076   0.000086   0.000689
     4  C   -0.142710   0.024372  -0.003289   0.001009  -0.000174  -0.009307
     5  N    0.243948  -0.050995   0.008835   0.000933   0.005767  -0.039132
     6  C   -0.073442  -0.003440   0.000573  -0.000156   0.000570  -0.008103
     7  C    5.078753   0.420011  -0.013744  -0.084424  -0.031093   0.468678
     8  C    0.420011   5.098567   0.406367   0.033615  -0.059351   0.024042
     9  C   -0.013744   0.406367   4.937006   0.431881  -0.001083  -0.056237
    10  C   -0.084424   0.033615   0.431881   4.948267   0.451252   0.012436
    11  C   -0.031093  -0.059351  -0.001083   0.451252   4.881229   0.456375
    12  C    0.468678   0.024042  -0.056237   0.012436   0.456375   5.027854
    13  C    0.005871  -0.002271  -0.002258   0.000387  -0.000122   0.004042
    14  C   -0.002701   0.002661   0.000097   0.000014  -0.000063   0.000099
    15  C    0.000289   0.000087  -0.000017   0.000001   0.000003   0.000049
    16  H   -0.000680   0.000128  -0.000008  -0.000001   0.000010  -0.000049
    17  H    0.013641  -0.001033   0.000162  -0.000027  -0.000309  -0.000752
    18  H   -0.006641   0.000213   0.000477  -0.000136  -0.000331  -0.005079
    19  H   -0.006082   0.002719  -0.000859   0.000052   0.000241   0.003299
    20  H   -0.042026   0.431612  -0.041231   0.007959  -0.002136   0.008544
    21  H    0.012872  -0.053968   0.440988  -0.056212   0.010399  -0.003338
    22  H   -0.003492   0.011369  -0.055034   0.442752  -0.054628   0.010724
    23  H    0.014604  -0.004380   0.011403  -0.057333   0.441841  -0.055067
    24  H   -0.052662   0.009225  -0.002924   0.008551  -0.035861   0.428621
    25  H    0.002694  -0.003688  -0.000443   0.000155   0.000236   0.000062
    26  H    0.000091  -0.000046   0.000012  -0.000004   0.000004  -0.000017
    27  H   -0.000000   0.000003  -0.000000   0.000000  -0.000000  -0.000000
              13         14         15         16         17         18
     1  Cl  -0.000096   0.013758  -0.038921   0.006462   0.000036  -0.000003
     2  C   -0.100145   0.063164   0.374366  -0.037512   0.001676   0.000135
     3  C    0.055624  -0.125967   0.072713   0.424073  -0.003390   0.000349
     4  C    0.361990   0.016625  -0.109943  -0.049798  -0.006378   0.007534
     5  N   -0.068199   0.002037   0.001526  -0.005153  -0.045402  -0.026681
     6  C    0.013185  -0.001195   0.000907   0.005867   0.414142   0.406519
     7  C    0.005871  -0.002701   0.000289  -0.000680   0.013641  -0.006641
     8  C   -0.002271   0.002661   0.000087   0.000128  -0.001033   0.000213
     9  C   -0.002258   0.000097  -0.000017  -0.000008   0.000162   0.000477
    10  C    0.000387   0.000014   0.000001  -0.000001  -0.000027  -0.000136
    11  C   -0.000122  -0.000063   0.000003   0.000010  -0.000309  -0.000331
    12  C    0.004042   0.000099   0.000049  -0.000049  -0.000752  -0.005079
    13  C    5.129101   0.436297   0.039064   0.006767   0.000794  -0.000490
    14  C    0.436297   4.953511   0.382687  -0.003242   0.000011   0.000057
    15  C    0.039064   0.382687   5.116192   0.012457  -0.000280  -0.000015
    16  H    0.006767  -0.003242   0.012457   0.503177  -0.006748   0.000397
    17  H    0.000794   0.000011  -0.000280  -0.006748   0.552654  -0.013363
    18  H   -0.000490   0.000057  -0.000015   0.000397  -0.013363   0.511532
    19  H   -0.000325  -0.000095   0.000070   0.002246  -0.046949  -0.023753
    20  H   -0.000324   0.000155  -0.000006  -0.000007  -0.000018  -0.000162
    21  H   -0.000089  -0.000012  -0.000001   0.000000  -0.000001   0.000002
    22  H    0.000000  -0.000000   0.000000   0.000000   0.000000  -0.000001
    23  H    0.000009   0.000000  -0.000000  -0.000000   0.000007   0.000032
    24  H   -0.000158   0.000005   0.000002   0.000003  -0.000710  -0.002522
    25  H    0.430560  -0.038643   0.007208  -0.000113   0.000010  -0.000020
    26  H   -0.054255   0.438177  -0.055700   0.000042  -0.000000  -0.000000
    27  H    0.012385  -0.059493   0.445837  -0.000024  -0.000001   0.000000
              19         20         21         22         23         24
     1  Cl   0.000031  -0.000001  -0.000000   0.000000  -0.000000  -0.000000
     2  C   -0.000849  -0.000035   0.000000  -0.000000   0.000000  -0.000002
     3  C    0.008589   0.000739   0.000005   0.000000  -0.000003   0.000024
     4  C   -0.006562   0.001271   0.000049   0.000005  -0.000025   0.000780
     5  N   -0.049936  -0.003146  -0.000224   0.000012  -0.000256   0.005942
     6  C    0.407673   0.000151   0.000004  -0.000002   0.000027  -0.001959
     7  C   -0.006082  -0.042026   0.012872  -0.003492   0.014604  -0.052662
     8  C    0.002719   0.431612  -0.053968   0.011369  -0.004380   0.009225
     9  C   -0.000859  -0.041231   0.440988  -0.055034   0.011403  -0.002924
    10  C    0.000052   0.007959  -0.056212   0.442752  -0.057333   0.008551
    11  C    0.000241  -0.002136   0.010399  -0.054628   0.441841  -0.035861
    12  C    0.003299   0.008544  -0.003338   0.010724  -0.055067   0.428621
    13  C   -0.000325  -0.000324  -0.000089   0.000000   0.000009  -0.000158
    14  C   -0.000095   0.000155  -0.000012  -0.000000   0.000000   0.000005
    15  C    0.000070  -0.000006  -0.000001   0.000000  -0.000000   0.000002
    16  H    0.002246  -0.000007   0.000000   0.000000  -0.000000   0.000003
    17  H   -0.046949  -0.000018  -0.000001   0.000000   0.000007  -0.000710
    18  H   -0.023753  -0.000162   0.000002  -0.000001   0.000032  -0.002522
    19  H    0.578418   0.000378   0.000003  -0.000000  -0.000008   0.000520
    20  H    0.000378   0.498894  -0.006396  -0.000078   0.000017  -0.000142
    21  H    0.000003  -0.006396   0.537468  -0.006692  -0.000133   0.000031
    22  H   -0.000000  -0.000078  -0.006692   0.538114  -0.006755  -0.000084
    23  H   -0.000008   0.000017  -0.000133  -0.006755   0.539968  -0.007106
    24  H    0.000520  -0.000142   0.000031  -0.000084  -0.007106   0.509937
    25  H    0.000019  -0.000692   0.000000   0.000003  -0.000007  -0.000034
    26  H   -0.000000  -0.000002   0.000001  -0.000000   0.000000  -0.000000
    27  H    0.000000   0.000001   0.000000   0.000000   0.000000   0.000000
              25         26         27
     1  Cl   0.000019  -0.000286   0.000950
     2  C   -0.001781   0.010451  -0.067051
     3  C    0.007948  -0.002328   0.019503
     4  C   -0.045070   0.012015  -0.004407
     5  N   -0.004552  -0.000154   0.000040
     6  C   -0.000275   0.000013   0.000009
     7  C    0.002694   0.000091  -0.000000
     8  C   -0.003688  -0.000046   0.000003
     9  C   -0.000443   0.000012  -0.000000
    10  C    0.000155  -0.000004   0.000000
    11  C    0.000236   0.000004  -0.000000
    12  C    0.000062  -0.000017  -0.000000
    13  C    0.430560  -0.054255   0.012385
    14  C   -0.038643   0.438177  -0.059493
    15  C    0.007208  -0.055700   0.445837
    16  H   -0.000113   0.000042  -0.000024
    17  H    0.000010  -0.000000  -0.000001
    18  H   -0.000020  -0.000000   0.000000
    19  H    0.000019  -0.000000   0.000000
    20  H   -0.000692  -0.000002   0.000001
    21  H    0.000000   0.000001   0.000000
    22  H    0.000003  -0.000000   0.000000
    23  H   -0.000007   0.000000   0.000000
    24  H   -0.000034  -0.000000   0.000000
    25  H    0.499932  -0.006647  -0.000083
    26  H   -0.006647   0.543230  -0.006648
    27  H   -0.000083  -0.006648   0.529928
 Mulliken charges:
               1
     1  Cl  -0.102247
     2  C    0.189192
     3  C   -0.379776
     4  C    0.257125
     5  N   -0.055885
     6  C   -0.318373
     7  C    0.192129
     8  C   -0.286960
     9  C   -0.059750
    10  C   -0.141045
    11  C   -0.062850
    12  C   -0.268452
    13  C   -0.267342
    14  C   -0.077945
    15  C   -0.248572
    16  H    0.141706
    17  H    0.142229
    18  H    0.151950
    19  H    0.131159
    20  H    0.146683
    21  H    0.125244
    22  H    0.123788
    23  H    0.123164
    24  H    0.140524
    25  H    0.153200
    26  H    0.122052
    27  H    0.129053
 Sum of Mulliken charges =   0.00000
 Mulliken charges with hydrogens summed into heavy atoms:
               1
     1  Cl  -0.102247
     2  C    0.189192
     3  C   -0.238070
     4  C    0.257125
     5  N   -0.055885
     6  C    0.106965
     7  C    0.192129
     8  C   -0.140277
     9  C    0.065495
    10  C   -0.017257
    11  C    0.060314
    12  C   -0.127929
    13  C   -0.114141
    14  C    0.044107
    15  C   -0.119520
 Electronic spatial extent (au):  <R**2>=           4449.3806
 Charge=              0.0000 electrons
 Dipole moment (field-independent basis, Debye):
    X=              3.0390    Y=              0.2949    Z=             -0.1126  Tot=              3.0553
 Quadrupole moment (field-independent basis, Debye-Ang):
   XX=            -96.7102   YY=            -87.6498   ZZ=            -95.3783
   XY=              1.0549   XZ=             -0.5041   YZ=             -1.6208
 Traceless Quadrupole moment (field-independent basis, Debye-Ang):
   XX=             -3.4641   YY=              5.5963   ZZ=             -2.1322
   XY=              1.0549   XZ=             -0.5041   YZ=             -1.6208
 Octapole moment (field-independent basis, Debye-Ang**2):
  XXX=             54.0290  YYY=              6.7553  ZZZ=              5.6235  XYY=            -13.0631
  XXY=            -16.8406  XXZ=             -9.2962  XZZ=              4.4291  YZZ=              2.1080
  YYZ=             -2.9119  XYZ=            -14.7872
 Hexadecapole moment (field-independent basis, Debye-Ang**3):
 XXXX=          -4711.3470 YYYY=           -819.2504 ZZZZ=           -341.8992 XXXY=            -39.5273
 XXXZ=            -43.1361 YYYX=             14.4002 YYYZ=             10.8412 ZZZX=            -15.3544
 ZZZY=            -18.7150 XXYY=           -929.9451 XXZZ=           -863.6731 YYZZ=           -194.7888
 XXYZ=            -37.2910 YYXZ=              9.3256 ZZXY=            -11.9613
 N-N= 9.952381198389D+02 E-N=-4.378152718264D+03  KE= 1.013778152360D+03
 Breneman (CHELPG) radii used.
 Read replacement radii for each type of atom:
 Atom Element Radius
    1    17    2.00
    2     6    1.50
    3     6    1.50
    4     6    1.50
    5     7    1.70
    6     6    1.50
    7     6    1.50
    8     6    1.50
    9     6    1.50
   10     6    1.50
   11     6    1.50
   12     6    1.50
   13     6    1.50
   14     6    1.50
   15     6    1.50
   16     1    1.45
   17     1    1.45
   18     1    1.45
   19     1    1.45
   20     1    1.45
   21     1    1.45
   22     1    1.45
   23     1    1.45
   24     1    1.45
   25     1    1.45
   26     1    1.45
   27     1    1.45
 Generate Potential Derived Charges using the Breneman model, NDens= 1.
 Grid spacing= 0.300 Box extension= 2.800
 NStep X,Y,Z=   52     40     33   Total possible points=       68640
 Number of Points to Fit=   16872

 **********************************************************************

            Electrostatic Properties Using The SCF Density.

 **********************************************************************

       Atomic Center    1 is at  -4.470188  0.484991  0.365548
       Atomic Center    2 is at  -2.904208 -0.193803 -0.003270
       Atomic Center    3 is at  -1.785964  0.632662  0.085138
       Atomic Center    4 is at  -0.508291  0.119199 -0.203065
       Atomic Center    5 is at   0.614568  0.935828 -0.154747
       Atomic Center    6 is at   0.460750  2.362297  0.036749
       Atomic Center    7 is at   1.914274  0.382942 -0.004165
       Atomic Center    8 is at   2.208302 -0.479626  1.059193
       Atomic Center    9 is at   3.490804 -1.001077  1.206123
       Atomic Center   10 is at   4.499941 -0.653039  0.307835
       Atomic Center   11 is at   4.214286  0.213062 -0.746371
       Atomic Center   12 is at   2.926569  0.720469 -0.908644
       Atomic Center   13 is at  -0.406593 -1.237084 -0.579937
       Atomic Center   14 is at  -1.538581 -2.035807 -0.650890
       Atomic Center   15 is at  -2.808807 -1.531923 -0.365102
       Atomic Center   16 is at  -1.928006  1.668217  0.388037
       Atomic Center   17 is at  -0.235494  2.787823 -0.703050
       Atomic Center   18 is at   1.434826  2.849176 -0.091562
       Atomic Center   19 is at   0.089134  2.615060  1.047623
       Atomic Center   20 is at   1.418274 -0.742987  1.765717
       Atomic Center   21 is at   3.706843 -1.675239  2.037881
       Atomic Center   22 is at   5.506831 -1.057526  0.429261
       Atomic Center   23 is at   4.995958  0.485817 -1.458754
       Atomic Center   24 is at   2.692337  1.379959 -1.747246
       Atomic Center   25 is at   0.568251 -1.657861 -0.827125
       Atomic Center   26 is at  -1.432628 -3.081485 -0.948411
       Atomic Center   27 is at  -3.700004 -2.156228 -0.425014
   16872 points will be used for fitting atomic charges
 Fitting point charges to electrostatic potential
 Charges from ESP fit, RMS=   0.00394 RRMS=   0.38462:
 ESP charges:
               1
     1  Cl  -0.148092
     2  C    0.138353
     3  C   -0.243271
     4  C    0.358890
     5  N   -0.418666
     6  C    0.041291
     7  C    0.361522
     8  C   -0.140639
     9  C   -0.101380
    10  C   -0.129017
    11  C   -0.071151
    12  C   -0.226996
    13  C   -0.241642
    14  C   -0.064390
    15  C   -0.175791
    16  H    0.119795
    17  H    0.045506
    18  H    0.031141
    19  H    0.030951
    20  H    0.083309
    21  H    0.107139
    22  H    0.103018
    23  H    0.098556
    24  H    0.131693
    25  H    0.087609
    26  H    0.110816
    27  H    0.111449
 Sum of ESP charges =  -0.00000
 ESP charges with hydrogens summed into heavy atoms:
               1
     1  Cl  -0.148092
     2  C    0.138353
     3  C   -0.123476
     4  C    0.358890
     5  N   -0.418666
     6  C    0.148888
     7  C    0.361522
     8  C   -0.057330
     9  C    0.005759
    10  C   -0.025999
    11  C    0.027405
    12  C   -0.095304
    13  C   -0.154033
    14  C    0.046426
    15  C   -0.064343
 Charge=  -0.00000 Dipole=     3.1791     0.2731    -0.1624 Tot=     3.1949
 -----------------------------------------------------------------

              Electrostatic Properties (Atomic Units)

 -----------------------------------------------------------------
    Center     Electric         -------- Electric Field --------
               Potential          X             Y             Z
 -----------------------------------------------------------------
    1 Atom    -64.439933
    2 Atom    -14.709371
    3 Atom    -14.766253
    4 Atom    -14.715673
    5 Atom    -18.351602
    6 Atom    -14.729368
    7 Atom    -14.720049
    8 Atom    -14.761810
    9 Atom    -14.759211
   10 Atom    -14.761629
   11 Atom    -14.758642
   12 Atom    -14.760856
   13 Atom    -14.771524
   14 Atom    -14.763089
   15 Atom    -14.771437
   16 Atom     -1.095883
   17 Atom     -1.104531
   18 Atom     -1.097815
   19 Atom     -1.108225
   20 Atom     -1.096860
   21 Atom     -1.098962
   22 Atom     -1.099817
   23 Atom     -1.098121
   24 Atom     -1.094505
   25 Atom     -1.105065
   26 Atom     -1.104143
   27 Atom     -1.103098
 -----------------------------------------------------------------
 Unable to Open any file for archive entry.
 1\1\GINC-NOTCH130\SP\RwB97XD\def2TZVP\C13H12Cl1N1\U1366379\17-Feb-2026
 \0\\#N Guess=Read Geom=Check Integral(Ultrafine) Density Pop=(ChelpG,R
 eadRadii) NMR wB97XD def2TZVP\\prod_5f_5\\0,1\Cl,0,-4.2624687724,0.075
 0596243,1.1668532915\C,0,-2.8047081304,0.210082572,0.2151264382\C,0,-1
 .5776011079,0.1823403439,0.8744968887\C,0,-0.3825801686,0.2868302987,0
 .1395410791\N,0,0.8494001474,0.2964996315,0.7815390945\C,0,0.908848870
 4,0.3604551568,2.2263644842\C,0,2.0399947688,-0.0385754999,0.083111318
 6\C,0,2.1484528478,-1.2508053089,-0.6096669922\C,0,3.327084207,-1.5757
 391234,-1.2756685751\C,0,4.4178874964,-0.7065928919,-1.2418997457\C,0,
 4.317819909,0.4966345473,-0.5452579719\C,0,3.1325781278,0.8346521434,0
 .105091647\C,0,-0.4741549485,0.4207115348,-1.2624458948\C,0,-1.7113473
 342,0.4369753873,-1.8897271293\C,0,-2.9003851472,0.332703912,-1.165597
 5636\H,0,-1.5719290807,0.0698650938,1.9569086815\H,0,0.3211872844,1.20
 97292359,2.6091413404\H,0,1.9512084967,0.4987262188,2.5373409807\H,0,0
 .5347772014,-0.5637220912,2.7057597756\H,0,1.2957448527,-1.9329208003,
 -0.6266533341\H,0,3.3982351601,-2.5228493656,-1.8150284358\H,0,5.34370
 66991,-0.9668365425,-1.758922568\H,0,5.163997257,1.1866985023,-0.51896
 74576\H,0,3.0415213331,1.7873194707,0.6315695496\H,0,0.4344010955,0.52
 23610176,-1.8563051233\H,0,-1.7544460223,0.5450520121,-2.9758438436\H,
 0,-3.8735250423,0.3502549206,-1.6557699346\\Version=ES64L-G16RevC.01\S
 tate=1-A\HF=-1017.5717992\RMSD=1.284e-09\Dipole=1.1999708,-0.0229414,-
 0.0669704\Quadrupole=-2.1234505,-1.097908,3.2213585,0.8967057,1.691930
 4,1.9297483\PG=C01 [X(C13H12Cl1N1)]\\@
 The archive entry for this job was punched.


 IF THE FACTS DO NOT CONFORM TO THE THEORY, THEY MUST BE DISPOSED OF.
 Job cpu time:       0 days  1 hours 19 minutes 58.8 seconds.
 Elapsed time:       0 days  0 hours 10 minutes 18.8 seconds.
 File lengths (MBytes):  RWF=    183 Int=      0 D2E=      0 Chk=     28 Scr=      2
 Normal termination of Gaussian 16 at Tue Feb 17 16:37:11 2026.
