 Entering Gaussian System, Link 0=g16
 Input=prod_5l_25.com
 Output=prod_5l_25.log
 Initial command:
 /uufs/chpc.utah.edu/sys/installdir/gaussian16/C01/AVX/g16/l1.exe "/scratch/general/vast/u1366379/GAUSSSCRDIR/11028700-notchpeak.peaks/Gau-793746.inp" -scrdir="/scratch/general/vast/u1366379/GAUSSSCRDIR/11028700-notchpeak.peaks/"
 Entering Link 1 = /uufs/chpc.utah.edu/sys/installdir/gaussian16/C01/AVX/g16/l1.exe PID=    793748.
  
 Copyright (c) 1988-2019, Gaussian, Inc.  All Rights Reserved.
  
 This is part of the Gaussian(R) 16 program.  It is based on
 the Gaussian(R) 09 system (copyright 2009, Gaussian, Inc.),
 the Gaussian(R) 03 system (copyright 2003, Gaussian, Inc.),
 the Gaussian(R) 98 system (copyright 1998, Gaussian, Inc.),
 the Gaussian(R) 94 system (copyright 1995, Gaussian, Inc.),
 the Gaussian 92(TM) system (copyright 1992, Gaussian, Inc.),
 the Gaussian 90(TM) system (copyright 1990, Gaussian, Inc.),
 the Gaussian 88(TM) system (copyright 1988, Gaussian, Inc.),
 the Gaussian 86(TM) system (copyright 1986, Carnegie Mellon
 University), and the Gaussian 82(TM) system (copyright 1983,
 Carnegie Mellon University). Gaussian is a federally registered
 trademark of Gaussian, Inc.
  
 This software contains proprietary and confidential information,
 including trade secrets, belonging to Gaussian, Inc.
  
 This software is provided under written license and may be
 used, copied, transmitted, or stored only in accord with that
 written license.
  
 The following legend is applicable only to US Government
 contracts under FAR:
  
                    RESTRICTED RIGHTS LEGEND
  
 Use, reproduction and disclosure by the US Government is
 subject to restrictions as set forth in subparagraphs (a)
 and (c) of the Commercial Computer Software - Restricted
 Rights clause in FAR 52.227-19.
  
 Gaussian, Inc.
 340 Quinnipiac St., Bldg. 40, Wallingford CT 06492
  
  
 ---------------------------------------------------------------
 Warning -- This program may not be used in any manner that
 competes with the business of Gaussian, Inc. or will provide
 assistance to any competitor of Gaussian, Inc.  The licensee
 of this program is prohibited from giving any competitor of
 Gaussian, Inc. access to this program.  By using this program,
 the user acknowledges that Gaussian, Inc. is engaged in the
 business of creating and licensing software in the field of
 computational chemistry and represents and warrants to the
 licensee that it is not a competitor of Gaussian, Inc. and that
 it will not use this program in any manner prohibited above.
 ---------------------------------------------------------------
  

 Cite this work as:
 Gaussian 16, Revision C.01,
 M. J. Frisch, G. W. Trucks, H. B. Schlegel, G. E. Scuseria, 
 M. A. Robb, J. R. Cheeseman, G. Scalmani, V. Barone, 
 G. A. Petersson, H. Nakatsuji, X. Li, M. Caricato, A. V. Marenich, 
 J. Bloino, B. G. Janesko, R. Gomperts, B. Mennucci, H. P. Hratchian, 
 J. V. Ortiz, A. F. Izmaylov, J. L. Sonnenberg, D. Williams-Young, 
 F. Ding, F. Lipparini, F. Egidi, J. Goings, B. Peng, A. Petrone, 
 T. Henderson, D. Ranasinghe, V. G. Zakrzewski, J. Gao, N. Rega, 
 G. Zheng, W. Liang, M. Hada, M. Ehara, K. Toyota, R. Fukuda, 
 J. Hasegawa, M. Ishida, T. Nakajima, Y. Honda, O. Kitao, H. Nakai, 
 T. Vreven, K. Throssell, J. A. Montgomery, Jr., J. E. Peralta, 
 F. Ogliaro, M. J. Bearpark, J. J. Heyd, E. N. Brothers, K. N. Kudin, 
 V. N. Staroverov, T. A. Keith, R. Kobayashi, J. Normand, 
 K. Raghavachari, A. P. Rendell, J. C. Burant, S. S. Iyengar, 
 J. Tomasi, M. Cossi, J. M. Millam, M. Klene, C. Adamo, R. Cammi, 
 J. W. Ochterski, R. L. Martin, K. Morokuma, O. Farkas, 
 J. B. Foresman, and D. J. Fox, Gaussian, Inc., Wallingford CT, 2019.
 
 ******************************************
 Gaussian 16:  ES64L-G16RevC.01  3-Jul-2019
                17-Feb-2026 
 ******************************************
 %NProcShared=8
 Will use up to    8 processors via shared memory.
 %Mem=8GB
 %chk=prod_5l_25.chk
 ------------------------------------------------------
 #N OPT FREQ=NORAMAN Integral(Ultrafine) wB97XD def2SVP
 ------------------------------------------------------
 1/18=20,19=15,26=4,38=1/1,3;
 2/9=110,12=2,17=6,18=5,40=1/2;
 3/5=43,7=101,11=2,25=1,30=1,71=1,74=-58,75=-5/1,2,3;
 4//1;
 5/5=2,38=5/2;
 6/7=2,8=2,9=2,10=2,28=1/1;
 7//1,2,3,16;
 1/18=20,19=15,26=4/3(2);
 2/9=110/2;
 99//99;
 2/9=110/2;
 3/5=43,7=101,11=2,25=1,30=1,71=1,74=-58,75=-5/1,2,3;
 4/5=5,16=3,69=1/1;
 5/5=2,38=5/2;
 7//1,2,3,16;
 1/18=20,19=15,26=4/3(-5);
 2/9=110/2;
 6/7=2,8=2,9=2,10=2,19=2,28=1/1;
 99/9=1/99;
 ----------
 prod_5l_25
 ----------
 Symbolic Z-matrix:
 Charge =  0 Multiplicity = 1
 O                     0.43135   2.22614   0.36337 
 S                     0.04421   1.36481  -0.80225 
 N                     1.04059   0.00075  -1.07603 
 C                     2.08397  -0.35559  -0.22205 
 C                     2.97336  -1.36025  -0.61923 
 C                     3.99604  -1.76789   0.20476 
 C                     4.16198  -1.18607   1.44581 
 C                     3.3007   -0.18924   1.85814 
 C                     2.27778   0.22118   1.03756 
 C                    -1.39872   0.428    -0.28811 
 C                    -1.76092   0.40167   1.03705 
 C                    -2.86504  -0.32411   1.43551 
 C                    -3.61296  -1.03592   0.50876 
 C                    -4.8183   -1.79844   0.93224 
 C                    -3.23948  -0.98793  -0.82669 
 C                    -2.13492  -0.26055  -1.22164 
 O                    -0.23565   1.9396   -2.15962 
 H                     1.25198   0.0392   -2.05372 
 H                     2.83589  -1.81801  -1.58299 
 H                     4.66924  -2.54474  -0.11849 
 H                     4.96447  -1.50651   2.08949 
 H                     3.43481   0.27315   2.82226 
 H                     1.62788   1.01906   1.34469 
 H                    -1.17904   0.96094   1.75099 
 H                    -3.15577  -0.33951   2.47171 
 H                    -4.98674  -2.65916   0.28442 
 H                    -4.71118  -2.16839   1.95233 
 H                    -5.70728  -1.16838   0.89376 
 H                    -3.82258  -1.52247  -1.55659 
 H                    -1.84353  -0.21665  -2.25821 
 

 GradGradGradGradGradGradGradGradGradGradGradGradGradGradGradGradGradGrad
 Berny optimization.
 Initialization pass.
                           ----------------------------
                           !    Initial Parameters    !
                           ! (Angstroms and Degrees)  !
 --------------------------                            --------------------------
 ! Name  Definition              Value          Derivative Info.                !
 --------------------------------------------------------------------------------
 ! R1    R(1,2)                  1.5001         estimate D2E/DX2                !
 ! R2    R(2,3)                  1.7113         estimate D2E/DX2                !
 ! R3    R(2,10)                 1.7956         estimate D2E/DX2                !
 ! R4    R(2,17)                 1.5004         estimate D2E/DX2                !
 ! R5    R(3,4)                  1.3946         estimate D2E/DX2                !
 ! R6    R(3,18)                 1.001          estimate D2E/DX2                !
 ! R7    R(4,5)                  1.3993         estimate D2E/DX2                !
 ! R8    R(4,9)                  1.3989         estimate D2E/DX2                !
 ! R9    R(5,6)                  1.3751         estimate D2E/DX2                !
 ! R10   R(5,19)                 1.0758         estimate D2E/DX2                !
 ! R11   R(6,7)                  1.3807         estimate D2E/DX2                !
 ! R12   R(6,20)                 1.0776         estimate D2E/DX2                !
 ! R13   R(7,8)                  1.3804         estimate D2E/DX2                !
 ! R14   R(7,21)                 1.0775         estimate D2E/DX2                !
 ! R15   R(8,9)                  1.3741         estimate D2E/DX2                !
 ! R16   R(8,22)                 1.0776         estimate D2E/DX2                !
 ! R17   R(9,23)                 1.0739         estimate D2E/DX2                !
 ! R18   R(10,11)                1.374          estimate D2E/DX2                !
 ! R19   R(10,16)                1.3739         estimate D2E/DX2                !
 ! R20   R(11,12)                1.3801         estimate D2E/DX2                !
 ! R21   R(11,24)                1.0775         estimate D2E/DX2                !
 ! R22   R(12,13)                1.3874         estimate D2E/DX2                !
 ! R23   R(12,25)                1.0763         estimate D2E/DX2                !
 ! R24   R(13,14)                1.4878         estimate D2E/DX2                !
 ! R25   R(13,15)                1.3875         estimate D2E/DX2                !
 ! R26   R(14,26)                1.0904         estimate D2E/DX2                !
 ! R27   R(14,27)                1.0904         estimate D2E/DX2                !
 ! R28   R(14,28)                1.0903         estimate D2E/DX2                !
 ! R29   R(15,16)                1.3803         estimate D2E/DX2                !
 ! R30   R(15,29)                1.0763         estimate D2E/DX2                !
 ! R31   R(16,30)                1.0776         estimate D2E/DX2                !
 ! A1    A(1,2,3)              115.577          estimate D2E/DX2                !
 ! A2    A(1,2,10)             106.5268         estimate D2E/DX2                !
 ! A3    A(1,2,17)             122.081          estimate D2E/DX2                !
 ! A4    A(3,2,10)              95.6143         estimate D2E/DX2                !
 ! A5    A(3,2,17)             105.6188         estimate D2E/DX2                !
 ! A6    A(10,2,17)            108.0007         estimate D2E/DX2                !
 ! A7    A(2,3,4)              122.7737         estimate D2E/DX2                !
 ! A8    A(2,3,18)             104.3946         estimate D2E/DX2                !
 ! A9    A(4,3,18)             116.7372         estimate D2E/DX2                !
 ! A10   A(3,4,5)              119.023          estimate D2E/DX2                !
 ! A11   A(3,4,9)              123.3458         estimate D2E/DX2                !
 ! A12   A(5,4,9)              117.6161         estimate D2E/DX2                !
 ! A13   A(4,5,6)              121.0264         estimate D2E/DX2                !
 ! A14   A(4,5,19)             118.5921         estimate D2E/DX2                !
 ! A15   A(6,5,19)             120.3787         estimate D2E/DX2                !
 ! A16   A(5,6,7)              120.2036         estimate D2E/DX2                !
 ! A17   A(5,6,20)             119.9052         estimate D2E/DX2                !
 ! A18   A(7,6,20)             119.8912         estimate D2E/DX2                !
 ! A19   A(6,7,8)              119.8557         estimate D2E/DX2                !
 ! A20   A(6,7,21)             120.0771         estimate D2E/DX2                !
 ! A21   A(8,7,21)             120.0667         estimate D2E/DX2                !
 ! A22   A(7,8,9)              120.1182         estimate D2E/DX2                !
 ! A23   A(7,8,22)             119.9629         estimate D2E/DX2                !
 ! A24   A(9,8,22)             119.9174         estimate D2E/DX2                !
 ! A25   A(4,9,8)              121.1789         estimate D2E/DX2                !
 ! A26   A(4,9,23)             118.6856         estimate D2E/DX2                !
 ! A27   A(8,9,23)             120.1075         estimate D2E/DX2                !
 ! A28   A(2,10,11)            119.8674         estimate D2E/DX2                !
 ! A29   A(2,10,16)            119.837          estimate D2E/DX2                !
 ! A30   A(11,10,16)           120.2955         estimate D2E/DX2                !
 ! A31   A(10,11,12)           119.9623         estimate D2E/DX2                !
 ! A32   A(10,11,24)           119.1247         estimate D2E/DX2                !
 ! A33   A(12,11,24)           120.9099         estimate D2E/DX2                !
 ! A34   A(11,12,13)           120.5464         estimate D2E/DX2                !
 ! A35   A(11,12,25)           120.1051         estimate D2E/DX2                !
 ! A36   A(13,12,25)           119.3482         estimate D2E/DX2                !
 ! A37   A(12,13,14)           120.6332         estimate D2E/DX2                !
 ! A38   A(12,13,15)           118.6889         estimate D2E/DX2                !
 ! A39   A(14,13,15)           120.6465         estimate D2E/DX2                !
 ! A40   A(13,14,26)           111.1377         estimate D2E/DX2                !
 ! A41   A(13,14,27)           111.1359         estimate D2E/DX2                !
 ! A42   A(13,14,28)           110.7529         estimate D2E/DX2                !
 ! A43   A(26,14,27)           107.6489         estimate D2E/DX2                !
 ! A44   A(26,14,28)           108.0139         estimate D2E/DX2                !
 ! A45   A(27,14,28)           108.0102         estimate D2E/DX2                !
 ! A46   A(13,15,16)           120.5996         estimate D2E/DX2                !
 ! A47   A(13,15,29)           119.32           estimate D2E/DX2                !
 ! A48   A(16,15,29)           120.0801         estimate D2E/DX2                !
 ! A49   A(10,16,15)           119.9008         estimate D2E/DX2                !
 ! A50   A(10,16,30)           119.2273         estimate D2E/DX2                !
 ! A51   A(15,16,30)           120.8698         estimate D2E/DX2                !
 ! D1    D(1,2,3,4)              4.7022         estimate D2E/DX2                !
 ! D2    D(1,2,3,18)          -131.1589         estimate D2E/DX2                !
 ! D3    D(10,2,3,4)          -106.6401         estimate D2E/DX2                !
 ! D4    D(10,2,3,18)          117.4988         estimate D2E/DX2                !
 ! D5    D(17,2,3,4)           142.8784         estimate D2E/DX2                !
 ! D6    D(17,2,3,18)            7.0173         estimate D2E/DX2                !
 ! D7    D(1,2,10,11)          -12.3859         estimate D2E/DX2                !
 ! D8    D(1,2,10,16)          167.6838         estimate D2E/DX2                !
 ! D9    D(3,2,10,11)          106.4085         estimate D2E/DX2                !
 ! D10   D(3,2,10,16)          -73.5218         estimate D2E/DX2                !
 ! D11   D(17,2,10,11)        -145.1462         estimate D2E/DX2                !
 ! D12   D(17,2,10,16)          34.9235         estimate D2E/DX2                !
 ! D13   D(2,3,4,5)           -170.5005         estimate D2E/DX2                !
 ! D14   D(2,3,4,9)             10.947          estimate D2E/DX2                !
 ! D15   D(18,3,4,5)           -39.5516         estimate D2E/DX2                !
 ! D16   D(18,3,4,9)           141.8959         estimate D2E/DX2                !
 ! D17   D(3,4,5,6)           -178.3192         estimate D2E/DX2                !
 ! D18   D(3,4,5,19)             1.0677         estimate D2E/DX2                !
 ! D19   D(9,4,5,6)              0.3161         estimate D2E/DX2                !
 ! D20   D(9,4,5,19)           179.703          estimate D2E/DX2                !
 ! D21   D(3,4,9,8)            178.2359         estimate D2E/DX2                !
 ! D22   D(3,4,9,23)            -3.6859         estimate D2E/DX2                !
 ! D23   D(5,4,9,8)             -0.3355         estimate D2E/DX2                !
 ! D24   D(5,4,9,23)           177.7426         estimate D2E/DX2                !
 ! D25   D(4,5,6,7)             -0.0519         estimate D2E/DX2                !
 ! D26   D(4,5,6,20)           179.8645         estimate D2E/DX2                !
 ! D27   D(19,5,6,7)          -179.428          estimate D2E/DX2                !
 ! D28   D(19,5,6,20)            0.4885         estimate D2E/DX2                !
 ! D29   D(5,6,7,8)             -0.2044         estimate D2E/DX2                !
 ! D30   D(5,6,7,21)          -179.9521         estimate D2E/DX2                !
 ! D31   D(20,6,7,8)           179.8792         estimate D2E/DX2                !
 ! D32   D(20,6,7,21)            0.1314         estimate D2E/DX2                !
 ! D33   D(6,7,8,9)              0.1854         estimate D2E/DX2                !
 ! D34   D(6,7,8,22)          -179.3684         estimate D2E/DX2                !
 ! D35   D(21,7,8,9)           179.9332         estimate D2E/DX2                !
 ! D36   D(21,7,8,22)            0.3793         estimate D2E/DX2                !
 ! D37   D(7,8,9,4)              0.0902         estimate D2E/DX2                !
 ! D38   D(7,8,9,23)          -177.9608         estimate D2E/DX2                !
 ! D39   D(22,8,9,4)           179.6443         estimate D2E/DX2                !
 ! D40   D(22,8,9,23)            1.5932         estimate D2E/DX2                !
 ! D41   D(2,10,11,12)        -179.6204         estimate D2E/DX2                !
 ! D42   D(2,10,11,24)           1.0138         estimate D2E/DX2                !
 ! D43   D(16,10,11,12)          0.3096         estimate D2E/DX2                !
 ! D44   D(16,10,11,24)       -179.0562         estimate D2E/DX2                !
 ! D45   D(2,10,16,15)         179.5947         estimate D2E/DX2                !
 ! D46   D(2,10,16,30)          -0.9317         estimate D2E/DX2                !
 ! D47   D(11,10,16,15)         -0.3353         estimate D2E/DX2                !
 ! D48   D(11,10,16,30)        179.1383         estimate D2E/DX2                !
 ! D49   D(10,11,12,13)          0.3088         estimate D2E/DX2                !
 ! D50   D(10,11,12,25)       -179.4761         estimate D2E/DX2                !
 ! D51   D(24,11,12,13)        179.6631         estimate D2E/DX2                !
 ! D52   D(24,11,12,25)         -0.1218         estimate D2E/DX2                !
 ! D53   D(11,12,13,14)       -178.8555         estimate D2E/DX2                !
 ! D54   D(11,12,13,15)         -0.8825         estimate D2E/DX2                !
 ! D55   D(25,12,13,14)          0.9311         estimate D2E/DX2                !
 ! D56   D(25,12,13,15)        178.904          estimate D2E/DX2                !
 ! D57   D(12,13,14,26)       -150.9207         estimate D2E/DX2                !
 ! D58   D(12,13,14,27)        -31.0555         estimate D2E/DX2                !
 ! D59   D(12,13,14,28)         89.009          estimate D2E/DX2                !
 ! D60   D(15,13,14,26)         31.1461         estimate D2E/DX2                !
 ! D61   D(15,13,14,27)        151.0114         estimate D2E/DX2                !
 ! D62   D(15,13,14,28)        -88.9241         estimate D2E/DX2                !
 ! D63   D(12,13,15,16)          0.857          estimate D2E/DX2                !
 ! D64   D(12,13,15,29)       -178.9463         estimate D2E/DX2                !
 ! D65   D(14,13,15,16)        178.8297         estimate D2E/DX2                !
 ! D66   D(14,13,15,29)         -0.9736         estimate D2E/DX2                !
 ! D67   D(13,15,16,10)         -0.2571         estimate D2E/DX2                !
 ! D68   D(13,15,16,30)       -179.7218         estimate D2E/DX2                !
 ! D69   D(29,15,16,10)        179.5447         estimate D2E/DX2                !
 ! D70   D(29,15,16,30)          0.08           estimate D2E/DX2                !
 --------------------------------------------------------------------------------
 Trust Radius=3.00D-01 FncErr=1.00D-07 GrdErr=1.00D-06 EigMax=2.50D+02 EigMin=1.00D-04
 Number of steps in this run=    162 maximum allowed number of steps=    180.
 GradGradGradGradGradGradGradGradGradGradGradGradGradGradGradGradGradGrad

                          Input orientation:                          
 ---------------------------------------------------------------------
 Center     Atomic      Atomic             Coordinates (Angstroms)
 Number     Number       Type             X           Y           Z
 ---------------------------------------------------------------------
      1          8           0        0.431350    2.226140    0.363370
      2         16           0        0.044210    1.364810   -0.802250
      3          7           0        1.040590    0.000750   -1.076030
      4          6           0        2.083970   -0.355590   -0.222050
      5          6           0        2.973360   -1.360250   -0.619230
      6          6           0        3.996040   -1.767890    0.204760
      7          6           0        4.161980   -1.186070    1.445810
      8          6           0        3.300700   -0.189240    1.858140
      9          6           0        2.277780    0.221180    1.037560
     10          6           0       -1.398720    0.428000   -0.288110
     11          6           0       -1.760920    0.401670    1.037050
     12          6           0       -2.865040   -0.324110    1.435510
     13          6           0       -3.612960   -1.035920    0.508760
     14          6           0       -4.818300   -1.798440    0.932240
     15          6           0       -3.239480   -0.987930   -0.826690
     16          6           0       -2.134920   -0.260550   -1.221640
     17          8           0       -0.235650    1.939600   -2.159620
     18          1           0        1.251980    0.039200   -2.053720
     19          1           0        2.835890   -1.818010   -1.582990
     20          1           0        4.669240   -2.544740   -0.118490
     21          1           0        4.964470   -1.506510    2.089490
     22          1           0        3.434810    0.273150    2.822260
     23          1           0        1.627880    1.019060    1.344690
     24          1           0       -1.179040    0.960940    1.750990
     25          1           0       -3.155770   -0.339510    2.471710
     26          1           0       -4.986740   -2.659160    0.284420
     27          1           0       -4.711180   -2.168390    1.952330
     28          1           0       -5.707280   -1.168380    0.893760
     29          1           0       -3.822580   -1.522470   -1.556590
     30          1           0       -1.843530   -0.216650   -2.258210
 ---------------------------------------------------------------------
                    Distance matrix (angstroms):
                    1          2          3          4          5
     1  O    0.000000
     2  S    1.500146   0.000000
     3  N    2.719450   1.711253   0.000000
     4  C    3.120769   2.730756   1.394597   0.000000
     5  C    4.504388   4.004918   2.407610   1.399324   0.000000
     6  C    5.355786   5.142455   3.674669   2.415113   1.375138
     7  C    5.170344   5.340112   4.184650   2.790982   2.389047
     8  C    4.037520   4.483021   3.708577   2.415635   2.759670
     9  C    2.807793   3.111531   2.458961   1.398872   2.393680
    10  C    2.647053   1.795550   2.598768   3.570365   4.735247
    11  C    2.930628   2.751210   3.531898   4.116061   5.316111
    12  C    4.303423   4.040267   4.654816   5.219310   6.275544
    13  C    5.197944   4.566962   5.024119   5.783766   6.690079
    14  C    6.639253   6.054635   6.449560   7.145315   7.956698
    15  C    5.022099   4.039629   4.399847   5.394865   6.227443
    16  C    3.909172   2.750689   3.189568   4.336732   5.259920
    17  O    2.625352   1.500386   2.561659   3.795090   4.853819
    18  H    3.361319   2.186808   1.001020   2.050142   2.641850
    19  H    5.091687   4.305041   2.605379   2.134529   1.075767
    20  H    6.399468   6.094507   4.534700   3.389207   2.128325
    21  H    6.120567   6.388709   5.262051   3.868477   3.364978
    22  H    4.345237   5.081827   4.582920   3.389381   3.837289
    23  H    1.962579   2.690150   2.691050   2.133625   3.365771
    24  H    2.473778   2.859805   3.720318   4.034027   5.314912
    25  H    4.888260   4.885017   5.505604   5.891645   6.939889
    26  H    7.295758   6.533272   6.727158   7.453716   8.115845
    27  H    6.948547   6.533372   6.852663   7.361266   8.143597
    28  H    7.034690   6.509465   7.126057   7.912600   8.813595
    29  H    5.986171   4.884412   5.118746   6.166842   6.862198
    30  H    4.244406   2.860839   3.124574   4.426117   5.215027
                    6          7          8          9         10
     6  C    0.000000
     7  C    1.380672   0.000000
     8  C    2.389414   1.380395   0.000000
     9  C    2.757240   2.386887   1.374104   0.000000
    10  C    5.845365   6.044261   5.203069   3.913672   0.000000
    11  C    6.208243   6.145628   5.161721   4.042731   1.374020
    12  C    7.118544   7.079696   6.181679   5.186936   2.384666
    13  C    7.650168   7.832643   7.094814   6.046548   2.771448
    14  C    8.844363   9.015774   8.328564   7.378639   4.259086
    15  C    7.350168   7.745007   7.114785   5.947902   2.383972
    16  C    6.472663   6.900929   6.247887   4.980760   1.373889
    17  O    6.102702   6.489075   5.760219   4.415004   2.672118
    18  H    3.987000   4.713395   4.421774   3.262115   3.208544
    19  H    2.131786   3.366228   3.835403   3.367056   4.965199
    20  H    1.077583   2.133151   3.365761   3.834820   6.759149
    21  H    2.135037   1.077495   2.134679   3.363001   7.062967
    22  H    3.366323   2.133709   1.077644   2.127575   5.749904
    23  H    3.830759   3.360727   2.126487   1.073923   3.489369
    24  H    6.051346   5.764484   4.626280   3.606360   2.119012
    25  H    7.637259   7.437647   6.487299   5.647533   3.360491
    26  H    9.027239   9.339052   8.789696   7.850913   4.767833
    27  H    8.889886   8.941727   8.253250   7.442608   4.767935
    28  H    9.746207   9.884704   9.112214   8.106339   4.744358
    29  H    8.018317   8.537023   8.011180   6.854511   3.359832
    30  H    6.524810   7.122197   6.588489   5.295186   2.120076
                   11         12         13         14         15
    11  C    0.000000
    12  C    1.380075   0.000000
    13  C    2.403291   1.387416   0.000000
    14  C    3.768162   2.498430   1.487823   0.000000
    15  C    2.755114   2.387135   1.387522   2.498686   0.000000
    16  C    2.383294   2.756367   2.404181   3.768930   1.380261
    17  O    3.861396   4.996302   5.232609   6.673322   4.401151
    18  H    4.331491   5.408935   5.602663   7.010077   4.767999
    19  H    5.737791   6.621456   6.824570   8.056885   6.178280
    20  H    7.166838   8.006965   8.441849   9.574676   8.091542
    21  H    7.069629   7.945249   8.734556   9.855305   8.722260
    22  H    5.495371   6.478264   7.532397   8.716506   7.710467
    23  H    3.458291   4.690275   5.691057   7.047103   5.695094
    24  H    1.077533   2.143240   3.384457   4.639908   3.832485
    25  H    2.133824   1.076323   2.132412   2.694893   3.362573
    26  H    4.510105   3.358434   2.138342   1.090359   2.660920
    27  H    4.018330   2.660208   2.138333   1.090377   3.358919
    28  H    4.249629   3.014069   2.133529   1.090294   3.013726
    29  H    3.831413   3.362382   2.132215   2.694790   1.076333
    30  H    3.353786   3.833875   3.384998   4.640074   2.143082
                   16         17         18         19         20
    16  C    0.000000
    17  O    3.054127   0.000000
    18  H    3.500471   2.415735   0.000000
    19  H    5.221610   4.887381   2.485877   0.000000
    20  H    7.261615   6.952227   4.701013   2.456434   0.000000
    21  H    7.932045   7.547970   5.773906   4.256171   2.457694
    22  H    6.903612   6.408468   5.347398   4.913032   4.255859
    23  H    4.730974   4.074350   3.556771   4.252007   4.908303
    24  H    3.352950   4.140124   4.608175   5.912499   7.070157
    25  H    3.832650   5.930486   6.328602   7.384209   8.532465
    26  H    4.019257   7.049453   7.188162   8.086303   9.665060
    27  H    4.511214   7.335808   7.515395   8.341434   9.613647
    28  H    4.249803   6.994384   7.653574   8.918636  10.516234
    29  H    2.133736   5.021518   5.332646   6.665078   8.673187
    30  H    1.077642   2.691545   3.112789   4.991718   7.239791
                   21         22         23         24         25
    21  H    0.000000
    22  H    2.458455   0.000000
    23  H    4.250419   2.450427   0.000000
    24  H    6.629148   4.786260   2.836769   0.000000
    25  H    8.212568   6.628271   5.098940   2.473473   0.000000
    26  H   10.179070   9.271547   7.642426   5.454771   3.676611
    27  H    9.699232   8.548395   7.121288   4.723268   2.456391
    28  H   10.743852   9.453832   7.667647   5.076791   3.112419
    29  H    9.513485   8.664196   6.677149   4.908739   4.251027
    30  H    8.180165   7.342476   5.153499   4.231070   4.910113
                   26         27         28         29         30
    26  H    0.000000
    27  H    1.760316   0.000000
    28  H    1.764341   1.764315   0.000000
    29  H    2.456960   3.676866   3.111541   0.000000
    30  H    4.723409   5.455397   5.076344   2.472666   0.000000
 Stoichiometry    C13H13NO2S
 Framework group  C1[X(C13H13NO2S)]
 Deg. of freedom    84
 Full point group                 C1      NOp   1
 Largest Abelian subgroup         C1      NOp   1
 Largest concise Abelian subgroup C1      NOp   1
                         Standard orientation:                         
 ---------------------------------------------------------------------
 Center     Atomic      Atomic             Coordinates (Angstroms)
 Number     Number       Type             X           Y           Z
 ---------------------------------------------------------------------
      1          8           0        0.501130    1.548278    1.682693
      2         16           0        0.051684    1.614054    0.252969
      3          7           0        1.016923    0.750337   -0.865376
      4          6           0        2.092094   -0.047976   -0.476012
      5          6           0        2.949772   -0.557448   -1.457304
      6          6           0        4.002267   -1.376793   -1.122739
      7          6           0        4.230373   -1.710442    0.197451
      8          6           0        3.401338   -1.216130    1.184287
      9          6           0        2.348791   -0.396800    0.854128
     10          6           0       -1.379464    0.538207    0.117440
     11          6           0       -1.683275   -0.328398    1.139510
     12          6           0       -2.778275   -1.161738    1.034033
     13          6           0       -3.575624   -1.138107   -0.101133
     14          6           0       -4.771121   -2.017508   -0.206281
     15          6           0       -3.260711   -0.248031   -1.117898
     16          6           0       -2.165095    0.584330   -1.008715
     17          8           0       -0.280053    2.913846   -0.419081
     18          1           0        1.185545    1.403433   -1.605021
     19          1           0        2.763957   -0.303090   -2.485920
     20          1           0        4.650251   -1.760773   -1.893363
     21          1           0        5.056122   -2.351978    0.457382
     22          1           0        3.583874   -1.467195    2.216258
     23          1           0        1.723650    0.014072    1.624644
     24          1           0       -1.063178   -0.338062    2.020682
     25          1           0       -3.023272   -1.835494    1.836841
     26          1           0       -4.979288   -2.275548   -1.245012
     27          1           0       -4.624085   -2.948195    0.342467
     28          1           0       -5.652527   -1.521615    0.201098
     29          1           0       -3.882402   -0.209149   -1.995668
     30          1           0       -1.919079    1.280373   -1.793771
 ---------------------------------------------------------------------
 Rotational constants (GHZ):           0.7285893           0.2588714           0.2297256
 Standard basis: def2SVP (5D, 7F)
 There are   324 symmetry adapted cartesian basis functions of A   symmetry.
 There are   307 symmetry adapted basis functions of A   symmetry.
   307 basis functions,   528 primitive gaussians,   324 cartesian basis functions
    65 alpha electrons       65 beta electrons
       nuclear repulsion energy      1305.7287653146 Hartrees.
 NAtoms=   30 NActive=   30 NUniq=   30 SFac= 1.00D+00 NAtFMM=   60 NAOKFM=F Big=F
 Integral buffers will be    131072 words long.
 Raffenetti 2 integral format.
 Two-electron integral symmetry is turned on.
 Nuclear repulsion after empirical dispersion term =     1305.7100720780 Hartrees.
 One-electron integrals computed using PRISM.
   1 Symmetry operations used in ECPInt.
 ECPInt:  NShTT=   10296 NPrTT=   38220 LenC2=    9365 LenP2D=   24549.
 LDataN:  DoStor=T MaxTD1= 4 Len=   56
 NBasis=   307 RedAO= T EigKep=  2.41D-04  NBF=   307
 NBsUse=   307 1.00D-06 EigRej= -1.00D+00 NBFU=   307
 ExpMin= 1.22D-01 ExpMax= 9.18D+03 ExpMxC= 1.38D+03 IAcc=3 IRadAn=         5 AccDes= 0.00D+00
 Harris functional with IExCor= 4639 and IRadAn=       5 diagonalized for initial guess.
 HarFok:  IExCor= 4639 AccDes= 0.00D+00 IRadAn=         5 IDoV= 1 UseB2=F ITyADJ=14
 ICtDFT=  3500011 ScaDFX=  1.000000  1.000000  1.000000  1.000000
 FoFCou: FMM=F IPFlag=           0 FMFlag=      100000 FMFlg1=           0
         NFxFlg=           0 DoJE=T BraDBF=F KetDBF=T FulRan=T
         wScrn=  0.000000 ICntrl=       500 IOpCl=  0 I1Cent=   200000004 NGrid=           0
         NMat0=    1 NMatS0=      1 NMatT0=    0 NMatD0=    1 NMtDS0=    0 NMtDT0=    0
 Petite list used in FoFCou.
 Requested convergence on RMS density matrix=1.00D-08 within 128 cycles.
 Requested convergence on MAX density matrix=1.00D-06.
 Requested convergence on             energy=1.00D-06.
 No special actions if energy rises.
 Integral accuracy reduced to 1.0D-05 until final iterations.
 Initial convergence to 1.0D-05 achieved.  Increase integral accuracy.
 SCF Done:  E(RwB97XD) =  -1105.64323124     A.U. after   16 cycles
            NFock= 16  Conv=0.36D-08     -V/T= 2.0071

 **********************************************************************

            Population analysis using the SCF Density.

 **********************************************************************

 Orbital symmetries:
       Occupied  (A) (A) (A) (A) (A) (A) (A) (A) (A) (A) (A) (A)
                 (A) (A) (A) (A) (A) (A) (A) (A) (A) (A) (A) (A)
                 (A) (A) (A) (A) (A) (A) (A) (A) (A) (A) (A) (A)
                 (A) (A) (A) (A) (A) (A) (A) (A) (A) (A) (A) (A)
                 (A) (A) (A) (A) (A) (A) (A) (A) (A) (A) (A) (A)
                 (A) (A) (A) (A) (A)
       Virtual   (A) (A) (A) (A) (A) (A) (A) (A) (A) (A) (A) (A)
                 (A) (A) (A) (A) (A) (A) (A) (A) (A) (A) (A) (A)
                 (A) (A) (A) (A) (A) (A) (A) (A) (A) (A) (A) (A)
                 (A) (A) (A) (A) (A) (A) (A) (A) (A) (A) (A) (A)
                 (A) (A) (A) (A) (A) (A) (A) (A) (A) (A) (A) (A)
                 (A) (A) (A) (A) (A) (A) (A) (A) (A) (A) (A) (A)
                 (A) (A) (A) (A) (A) (A) (A) (A) (A) (A) (A) (A)
                 (A) (A) (A) (A) (A) (A) (A) (A) (A) (A) (A) (A)
                 (A) (A) (A) (A) (A) (A) (A) (A) (A) (A) (A) (A)
                 (A) (A) (A) (A) (A) (A) (A) (A) (A) (A) (A) (A)
                 (A) (A) (A) (A) (A) (A) (A) (A) (A) (A) (A) (A)
                 (A) (A) (A) (A) (A) (A) (A) (A) (A) (A) (A) (A)
                 (A) (A) (A) (A) (A) (A) (A) (A) (A) (A) (A) (A)
                 (A) (A) (A) (A) (A) (A) (A) (A) (A) (A) (A) (A)
                 (A) (A) (A) (A) (A) (A) (A) (A) (A) (A) (A) (A)
                 (A) (A) (A) (A) (A) (A) (A) (A) (A) (A) (A) (A)
                 (A) (A) (A) (A) (A) (A) (A) (A) (A) (A) (A) (A)
                 (A) (A) (A) (A) (A) (A) (A) (A) (A) (A) (A) (A)
                 (A) (A) (A) (A) (A) (A) (A) (A) (A) (A) (A) (A)
                 (A) (A) (A) (A) (A) (A) (A) (A) (A) (A) (A) (A)
                 (A) (A)
 The electronic state is 1-A.
 Alpha  occ. eigenvalues --  -89.25938 -19.26638 -19.26033 -14.49817 -10.35504
 Alpha  occ. eigenvalues --  -10.33361 -10.32498 -10.32243 -10.32069 -10.31426
 Alpha  occ. eigenvalues --  -10.31312 -10.30700 -10.30433 -10.30306 -10.29982
 Alpha  occ. eigenvalues --  -10.29469 -10.29266  -8.27695  -6.23129  -6.23038
 Alpha  occ. eigenvalues --   -6.22880  -1.20580  -1.09329  -1.05206  -0.98581
 Alpha  occ. eigenvalues --   -0.95285  -0.90203  -0.86319  -0.85049  -0.84641
 Alpha  occ. eigenvalues --   -0.81336  -0.75897  -0.72535  -0.71474  -0.70794
 Alpha  occ. eigenvalues --   -0.68018  -0.64430  -0.63728  -0.60565  -0.58838
 Alpha  occ. eigenvalues --   -0.58278  -0.56478  -0.54739  -0.54084  -0.53501
 Alpha  occ. eigenvalues --   -0.52958  -0.52792  -0.52706  -0.51458  -0.49570
 Alpha  occ. eigenvalues --   -0.48508  -0.47288  -0.46343  -0.46022  -0.44198
 Alpha  occ. eigenvalues --   -0.44081  -0.42946  -0.41526  -0.40902  -0.39443
 Alpha  occ. eigenvalues --   -0.38704  -0.35315  -0.34659  -0.33829  -0.30407
 Alpha virt. eigenvalues --    0.02916   0.04354   0.06052   0.06472   0.10652
 Alpha virt. eigenvalues --    0.13072   0.13500   0.14715   0.15276   0.15998
 Alpha virt. eigenvalues --    0.17017   0.17225   0.18594   0.19384   0.20623
 Alpha virt. eigenvalues --    0.20820   0.21664   0.22298   0.23742   0.24386
 Alpha virt. eigenvalues --    0.24606   0.25914   0.29031   0.30753   0.32170
 Alpha virt. eigenvalues --    0.34806   0.36367   0.36592   0.37443   0.37671
 Alpha virt. eigenvalues --    0.38752   0.39848   0.40020   0.41549   0.43905
 Alpha virt. eigenvalues --    0.46384   0.47423   0.47894   0.48583   0.49036
 Alpha virt. eigenvalues --    0.49836   0.51306   0.52090   0.52536   0.53688
 Alpha virt. eigenvalues --    0.54769   0.54954   0.55668   0.56368   0.57766
 Alpha virt. eigenvalues --    0.58095   0.58912   0.58984   0.61044   0.61498
 Alpha virt. eigenvalues --    0.62021   0.63092   0.63939   0.64803   0.65374
 Alpha virt. eigenvalues --    0.68582   0.69833   0.70510   0.70943   0.71824
 Alpha virt. eigenvalues --    0.72100   0.72172   0.73037   0.73805   0.74264
 Alpha virt. eigenvalues --    0.74860   0.75420   0.76191   0.76245   0.76905
 Alpha virt. eigenvalues --    0.77874   0.78354   0.78844   0.79014   0.80468
 Alpha virt. eigenvalues --    0.80979   0.82544   0.83022   0.83576   0.84670
 Alpha virt. eigenvalues --    0.85162   0.86266   0.86405   0.88156   0.89589
 Alpha virt. eigenvalues --    0.91785   0.92473   0.93717   0.94938   0.96955
 Alpha virt. eigenvalues --    0.97655   0.99877   1.00871   1.03989   1.05403
 Alpha virt. eigenvalues --    1.07496   1.09037   1.12230   1.12627   1.14340
 Alpha virt. eigenvalues --    1.14882   1.17576   1.18804   1.21293   1.23633
 Alpha virt. eigenvalues --    1.23875   1.25613   1.27050   1.27986   1.29132
 Alpha virt. eigenvalues --    1.30094   1.31550   1.31919   1.32744   1.33191
 Alpha virt. eigenvalues --    1.34111   1.34436   1.37005   1.37833   1.38201
 Alpha virt. eigenvalues --    1.38863   1.39795   1.42515   1.45125   1.52749
 Alpha virt. eigenvalues --    1.54949   1.55959   1.60213   1.60728   1.62719
 Alpha virt. eigenvalues --    1.63382   1.67165   1.69456   1.73858   1.75010
 Alpha virt. eigenvalues --    1.77591   1.77745   1.79264   1.80164   1.81036
 Alpha virt. eigenvalues --    1.81982   1.82549   1.83135   1.83719   1.84418
 Alpha virt. eigenvalues --    1.84996   1.86027   1.86598   1.87340   1.87893
 Alpha virt. eigenvalues --    1.87972   1.88435   1.90147   1.91908   1.92410
 Alpha virt. eigenvalues --    1.93315   1.95336   1.97151   1.98273   2.03135
 Alpha virt. eigenvalues --    2.04151   2.04923   2.05397   2.06381   2.08228
 Alpha virt. eigenvalues --    2.10348   2.10806   2.13239   2.14125   2.16852
 Alpha virt. eigenvalues --    2.17618   2.20287   2.20683   2.22227   2.23060
 Alpha virt. eigenvalues --    2.24067   2.25201   2.29684   2.30785   2.31178
 Alpha virt. eigenvalues --    2.33776   2.35821   2.35977   2.38201   2.39918
 Alpha virt. eigenvalues --    2.40718   2.42559   2.43729   2.44416   2.45922
 Alpha virt. eigenvalues --    2.45975   2.52214   2.55984   2.56339   2.56635
 Alpha virt. eigenvalues --    2.59976   2.60926   2.68570   2.69429   2.71188
 Alpha virt. eigenvalues --    2.71724   2.72343   2.73443   2.73687   2.74100
 Alpha virt. eigenvalues --    2.74858   2.75654   2.77610   2.78152   2.80673
 Alpha virt. eigenvalues --    2.83100   2.83609   2.84420   2.84802   2.85492
 Alpha virt. eigenvalues --    2.88867   2.94459   2.95551   2.97088   2.99004
 Alpha virt. eigenvalues --    3.01075   3.01350   3.02784   3.03387   3.05139
 Alpha virt. eigenvalues --    3.06331   3.08894   3.23146   3.23866   3.25629
 Alpha virt. eigenvalues --    3.31615   3.33795   3.34022   3.46520   3.47384
 Alpha virt. eigenvalues --    3.69819   3.78791
          Condensed to atoms (all electrons):
               1          2          3          4          5          6
     1  O    8.149509   0.399543  -0.036480   0.000666   0.000194  -0.000004
     2  S    0.399543  13.931506   0.195327  -0.031980   0.000166  -0.000155
     3  N   -0.036480   0.195327   6.877393   0.269517  -0.072990   0.006604
     4  C    0.000666  -0.031980   0.269517   5.167672   0.260942   0.111498
     5  C    0.000194   0.000166  -0.072990   0.260942   5.142303   0.311470
     6  C   -0.000004  -0.000155   0.006604   0.111498   0.311470   5.006104
     7  C   -0.000032   0.000037  -0.000473  -0.164032   0.085941   0.284882
     8  C    0.001444  -0.000856   0.007437   0.111265  -0.146308   0.096499
     9  C   -0.022446   0.000678  -0.079726   0.251597   0.077050  -0.147309
    10  C   -0.067086   0.235900  -0.109416   0.004961  -0.000752  -0.000008
    11  C    0.005405  -0.034674  -0.001044   0.001186   0.000018  -0.000004
    12  C    0.001612   0.001684  -0.000263  -0.000111  -0.000003   0.000000
    13  C   -0.000037   0.001021   0.000034   0.000014  -0.000000   0.000000
    14  C    0.000000   0.000008  -0.000000  -0.000000  -0.000000   0.000000
    15  C    0.000014  -0.000191  -0.000346  -0.000006   0.000005  -0.000000
    16  C    0.004222  -0.028135   0.001913  -0.000081  -0.000102   0.000002
    17  O   -0.024932   0.427755  -0.046996   0.000819  -0.000079   0.000000
    18  H    0.001509  -0.002906   0.318638  -0.002015  -0.014335   0.000209
    19  H    0.000012  -0.000146  -0.009476  -0.082399   0.451924  -0.059641
    20  H   -0.000000   0.000003  -0.000110   0.015545  -0.069498   0.454095
    21  H    0.000000   0.000000   0.000011  -0.001458   0.014488  -0.070470
    22  H    0.000028  -0.000008  -0.000103   0.015417  -0.001946   0.014178
    23  H    0.030312  -0.003504  -0.013658  -0.068848   0.013843  -0.002206
    24  H    0.013776  -0.012063   0.000787  -0.000364  -0.000019   0.000001
    25  H   -0.000008  -0.000151   0.000004  -0.000001   0.000000  -0.000000
    26  H    0.000000  -0.000000  -0.000000   0.000000  -0.000000   0.000000
    27  H    0.000000  -0.000000  -0.000000   0.000000  -0.000000  -0.000000
    28  H   -0.000000  -0.000000   0.000000  -0.000000   0.000000   0.000000
    29  H    0.000000  -0.000174   0.000000  -0.000001   0.000000   0.000000
    30  H    0.000227  -0.006455   0.001711  -0.000023   0.000026   0.000000
               7          8          9         10         11         12
     1  O   -0.000032   0.001444  -0.022446  -0.067086   0.005405   0.001612
     2  S    0.000037  -0.000856   0.000678   0.235900  -0.034674   0.001684
     3  N   -0.000473   0.007437  -0.079726  -0.109416  -0.001044  -0.000263
     4  C   -0.164032   0.111265   0.251597   0.004961   0.001186  -0.000111
     5  C    0.085941  -0.146308   0.077050  -0.000752   0.000018  -0.000003
     6  C    0.284882   0.096499  -0.147309  -0.000008  -0.000004   0.000000
     7  C    5.106802   0.271685   0.090435   0.000008   0.000001  -0.000000
     8  C    0.271685   5.048867   0.266044  -0.000296   0.000016   0.000008
     9  C    0.090435   0.266044   5.210268  -0.001864   0.000900  -0.000038
    10  C    0.000008  -0.000296  -0.001864   5.714995   0.276236   0.092900
    11  C    0.000001   0.000016   0.000900   0.276236   5.050453   0.275892
    12  C   -0.000000   0.000008  -0.000038   0.092900   0.275892   5.093547
    13  C    0.000000  -0.000000  -0.000008  -0.180914   0.095325   0.288473
    14  C   -0.000000   0.000000   0.000000   0.000674   0.009595  -0.076969
    15  C    0.000000   0.000000   0.000003   0.090538  -0.119835   0.051041
    16  C   -0.000001   0.000004  -0.000070   0.190611   0.038878  -0.120436
    17  O   -0.000000   0.000006   0.000114  -0.064319   0.001758  -0.000005
    18  H    0.000008  -0.000246   0.004402   0.002515  -0.000529   0.000013
    19  H    0.014870  -0.002173   0.016883   0.000014   0.000001  -0.000000
    20  H   -0.069253   0.013876  -0.001923  -0.000000  -0.000000   0.000000
    21  H    0.451758  -0.067964   0.014755   0.000000   0.000000   0.000000
    22  H   -0.074365   0.457554  -0.067710  -0.000002  -0.000000  -0.000000
    23  H    0.013794  -0.054263   0.451567  -0.002100   0.001365   0.000226
    24  H   -0.000005   0.000194   0.000166  -0.067851   0.448400  -0.053758
    25  H    0.000000  -0.000000  -0.000001   0.016323  -0.065978   0.460650
    26  H   -0.000000  -0.000000   0.000000   0.000012  -0.000547   0.007425
    27  H   -0.000000  -0.000000   0.000000   0.000026   0.000785  -0.008729
    28  H    0.000000   0.000000  -0.000000   0.000080  -0.000222  -0.003610
    29  H   -0.000000   0.000000   0.000000   0.016322  -0.001996   0.014629
    30  H    0.000000   0.000000  -0.000021  -0.080721   0.012553  -0.001730
              13         14         15         16         17         18
     1  O   -0.000037   0.000000   0.000014   0.004222  -0.024932   0.001509
     2  S    0.001021   0.000008  -0.000191  -0.028135   0.427755  -0.002906
     3  N    0.000034  -0.000000  -0.000346   0.001913  -0.046996   0.318638
     4  C    0.000014  -0.000000  -0.000006  -0.000081   0.000819  -0.002015
     5  C   -0.000000  -0.000000   0.000005  -0.000102  -0.000079  -0.014335
     6  C    0.000000   0.000000  -0.000000   0.000002   0.000000   0.000209
     7  C    0.000000  -0.000000   0.000000  -0.000001  -0.000000   0.000008
     8  C   -0.000000   0.000000   0.000000   0.000004   0.000006  -0.000246
     9  C   -0.000008   0.000000   0.000003  -0.000070   0.000114   0.004402
    10  C   -0.180914   0.000674   0.090538   0.190611  -0.064319   0.002515
    11  C    0.095325   0.009595  -0.119835   0.038878   0.001758  -0.000529
    12  C    0.288473  -0.076969   0.051041  -0.120436  -0.000005   0.000013
    13  C    5.258441   0.407203   0.290359   0.091439  -0.000029   0.000011
    14  C    0.407203   4.549792  -0.076695   0.009959   0.000000   0.000000
    15  C    0.290359  -0.076695   5.063669   0.307772   0.001095   0.000022
    16  C    0.091439   0.009959   0.307772   5.080371   0.007677   0.002547
    17  O   -0.000029   0.000000   0.001095   0.007677   8.147777   0.011718
    18  H    0.000011   0.000000   0.000022   0.002547   0.011718   0.508483
    19  H    0.000000  -0.000000  -0.000001  -0.000008  -0.000026   0.003133
    20  H   -0.000000  -0.000000   0.000000  -0.000000  -0.000000  -0.000024
    21  H    0.000000   0.000000   0.000000  -0.000000   0.000000  -0.000001
    22  H    0.000000  -0.000000  -0.000000   0.000000   0.000000   0.000010
    23  H    0.000002  -0.000000  -0.000010  -0.000334   0.000273  -0.000373
    24  H    0.013777  -0.000211  -0.001832   0.013699   0.000132  -0.000045
    25  H   -0.076726  -0.013729   0.014703  -0.002097   0.000001  -0.000000
    26  H   -0.018790   0.391963  -0.008766   0.000757   0.000000   0.000000
    27  H   -0.018902   0.392301   0.007449  -0.000561   0.000000  -0.000000
    28  H   -0.011555   0.389578  -0.003506  -0.000201  -0.000000  -0.000000
    29  H   -0.075933  -0.013580   0.459862  -0.066419  -0.000007  -0.000005
    30  H    0.014214  -0.000246  -0.046842   0.446903   0.011108   0.000019
              19         20         21         22         23         24
     1  O    0.000012  -0.000000   0.000000   0.000028   0.030312   0.013776
     2  S   -0.000146   0.000003   0.000000  -0.000008  -0.003504  -0.012063
     3  N   -0.009476  -0.000110   0.000011  -0.000103  -0.013658   0.000787
     4  C   -0.082399   0.015545  -0.001458   0.015417  -0.068848  -0.000364
     5  C    0.451924  -0.069498   0.014488  -0.001946   0.013843  -0.000019
     6  C   -0.059641   0.454095  -0.070470   0.014178  -0.002206   0.000001
     7  C    0.014870  -0.069253   0.451758  -0.074365   0.013794  -0.000005
     8  C   -0.002173   0.013876  -0.067964   0.457554  -0.054263   0.000194
     9  C    0.016883  -0.001923   0.014755  -0.067710   0.451567   0.000166
    10  C    0.000014  -0.000000   0.000000  -0.000002  -0.002100  -0.067851
    11  C    0.000001  -0.000000   0.000000  -0.000000   0.001365   0.448400
    12  C   -0.000000   0.000000   0.000000  -0.000000   0.000226  -0.053758
    13  C    0.000000  -0.000000   0.000000   0.000000   0.000002   0.013777
    14  C   -0.000000  -0.000000   0.000000  -0.000000  -0.000000  -0.000211
    15  C   -0.000001   0.000000   0.000000  -0.000000  -0.000010  -0.001832
    16  C   -0.000008  -0.000000  -0.000000   0.000000  -0.000334   0.013699
    17  O   -0.000026  -0.000000   0.000000   0.000000   0.000273   0.000132
    18  H    0.003133  -0.000024  -0.000001   0.000010  -0.000373  -0.000045
    19  H    0.688019  -0.013149  -0.000234   0.000023  -0.000103  -0.000001
    20  H   -0.013149   0.668269  -0.012378  -0.000259   0.000014   0.000000
    21  H   -0.000234  -0.012378   0.673433  -0.012072  -0.000200  -0.000000
    22  H    0.000023  -0.000259  -0.012072   0.668060  -0.013094   0.000003
    23  H   -0.000103   0.000014  -0.000200  -0.013094   0.614902   0.001030
    24  H   -0.000001   0.000000  -0.000000   0.000003   0.001030   0.623913
    25  H    0.000000   0.000000  -0.000000  -0.000000   0.000001  -0.011552
    26  H   -0.000000   0.000000  -0.000000   0.000000  -0.000000   0.000008
    27  H   -0.000000   0.000000   0.000000  -0.000000   0.000000  -0.000006
    28  H    0.000000   0.000000  -0.000000   0.000000  -0.000000   0.000005
    29  H   -0.000000   0.000000  -0.000000  -0.000000   0.000000   0.000023
    30  H   -0.000004   0.000000  -0.000000   0.000000  -0.000020  -0.000239
              25         26         27         28         29         30
     1  O   -0.000008   0.000000   0.000000  -0.000000   0.000000   0.000227
     2  S   -0.000151  -0.000000  -0.000000  -0.000000  -0.000174  -0.006455
     3  N    0.000004  -0.000000  -0.000000   0.000000   0.000000   0.001711
     4  C   -0.000001   0.000000   0.000000  -0.000000  -0.000001  -0.000023
     5  C    0.000000  -0.000000  -0.000000   0.000000   0.000000   0.000026
     6  C   -0.000000   0.000000  -0.000000   0.000000   0.000000   0.000000
     7  C    0.000000  -0.000000  -0.000000   0.000000  -0.000000   0.000000
     8  C   -0.000000  -0.000000  -0.000000   0.000000   0.000000   0.000000
     9  C   -0.000001   0.000000   0.000000  -0.000000   0.000000  -0.000021
    10  C    0.016323   0.000012   0.000026   0.000080   0.016322  -0.080721
    11  C   -0.065978  -0.000547   0.000785  -0.000222  -0.001996   0.012553
    12  C    0.460650   0.007425  -0.008729  -0.003610   0.014629  -0.001730
    13  C   -0.076726  -0.018790  -0.018902  -0.011555  -0.075933   0.014214
    14  C   -0.013729   0.391963   0.392301   0.389578  -0.013580  -0.000246
    15  C    0.014703  -0.008766   0.007449  -0.003506   0.459862  -0.046842
    16  C   -0.002097   0.000757  -0.000561  -0.000201  -0.066419   0.446903
    17  O    0.000001   0.000000   0.000000  -0.000000  -0.000007   0.011108
    18  H   -0.000000   0.000000  -0.000000  -0.000000  -0.000005   0.000019
    19  H    0.000000  -0.000000  -0.000000   0.000000  -0.000000  -0.000004
    20  H    0.000000   0.000000   0.000000   0.000000   0.000000   0.000000
    21  H   -0.000000  -0.000000   0.000000  -0.000000  -0.000000  -0.000000
    22  H   -0.000000   0.000000  -0.000000   0.000000  -0.000000   0.000000
    23  H    0.000001  -0.000000   0.000000  -0.000000   0.000000  -0.000020
    24  H   -0.011552   0.000008  -0.000006   0.000005   0.000023  -0.000239
    25  H    0.666920   0.000157   0.004474   0.000739  -0.000225   0.000024
    26  H    0.000157   0.621092  -0.022348  -0.017244   0.004481  -0.000001
    27  H    0.004474  -0.022348   0.619770  -0.017155   0.000157   0.000008
    28  H    0.000739  -0.017244  -0.017155   0.597616   0.000709   0.000005
    29  H   -0.000225   0.004481   0.000157   0.000709   0.667346  -0.011871
    30  H    0.000024  -0.000001   0.000008   0.000005  -0.011871   0.641061
 Mulliken charges:
               1
     1  O   -0.457449
     2  S    0.927772
     3  N   -0.308294
     4  C    0.140225
     5  C   -0.052338
     6  C   -0.005747
     7  C   -0.012060
     8  C   -0.002796
     9  C   -0.063743
    10  C   -0.066788
    11  C    0.006063
    12  C   -0.022447
    13  C   -0.077421
    14  C    0.030359
    15  C   -0.028501
    16  C    0.021689
    17  O   -0.473839
    18  H    0.167243
    19  H   -0.007517
    20  H    0.014791
    21  H    0.010332
    22  H    0.014286
    23  H    0.031385
    24  H    0.032032
    25  H    0.006473
    26  H    0.041802
    27  H    0.042731
    28  H    0.064761
    29  H    0.006680
    30  H    0.020314
 Sum of Mulliken charges =  -0.00000
 Mulliken charges with hydrogens summed into heavy atoms:
               1
     1  O   -0.457449
     2  S    0.927772
     3  N   -0.141051
     4  C    0.140225
     5  C   -0.059855
     6  C    0.009045
     7  C   -0.001728
     8  C    0.011490
     9  C   -0.032358
    10  C   -0.066788
    11  C    0.038095
    12  C   -0.015974
    13  C   -0.077421
    14  C    0.179653
    15  C   -0.021821
    16  C    0.042003
    17  O   -0.473839
 Electronic spatial extent (au):  <R**2>=           4998.0177
 Charge=              0.0000 electrons
 Dipole moment (field-independent basis, Debye):
    X=             -1.5374    Y=             -3.5230    Z=             -1.9619  Tot=              4.3155
 Quadrupole moment (field-independent basis, Debye-Ang):
   XX=            -91.2329   YY=           -115.1120   ZZ=            -99.7397
   XY=              3.2881   XZ=             -1.6751   YZ=             -5.9598
 Traceless Quadrupole moment (field-independent basis, Debye-Ang):
   XX=             10.7953   YY=            -13.0838   ZZ=              2.2885
   XY=              3.2881   XZ=             -1.6751   YZ=             -5.9598
 Octapole moment (field-independent basis, Debye-Ang**2):
  XXX=            -36.2844  YYY=            -14.0316  ZZZ=             -9.7133  XYY=              0.6857
  XXY=            -34.9558  XXZ=            -12.5925  XZZ=              2.8857  YZZ=             -0.9343
  YYZ=              2.7242  XYZ=             -1.8479
 Hexadecapole moment (field-independent basis, Debye-Ang**3):
 XXXX=          -4553.4989 YYYY=          -1381.0179 ZZZZ=           -668.8661 XXXY=            -11.1674
 XXXZ=             21.0974 YYYX=             42.4078 YYYZ=              3.8985 ZZZX=             -1.2805
 ZZZY=            -30.9494 XXYY=           -945.1252 XXZZ=           -846.9376 YYZZ=           -323.9237
 XXYZ=            -11.5457 YYXZ=            -12.6342 ZZXY=             -6.9166
 N-N= 1.305710072078D+03 E-N=-5.200145093414D+03  KE= 1.097867505995D+03
   1 Symmetry operations used in ECPInt.
 ECPInt:  NShTT=   10296 NPrTT=   38220 LenC2=    9365 LenP2D=   24549.
 LDataN:  DoStor=T MaxTD1= 5 Len=  102
 Calling FoFJK, ICntrl=      2127 FMM=F ISym2X=0 I1Cent= 0 IOpClX= 0 NMat=1 NMatS=1 NMatT=0.
 ***** Axes restored to original set *****
 -------------------------------------------------------------------
 Center     Atomic                   Forces (Hartrees/Bohr)
 Number     Number              X              Y              Z
 -------------------------------------------------------------------
      1        8          -0.008712467   -0.024987072   -0.048904360
      2       16          -0.027921263    0.024170680   -0.003915176
      3        7          -0.005826688    0.030046891    0.006099855
      4        6           0.018789595   -0.007640773    0.013991022
      5        6          -0.012014906    0.006239251   -0.005989683
      6        6           0.002625768   -0.000569207    0.001910283
      7        6           0.005720929   -0.001899720    0.005404490
      8        6           0.004980150   -0.005634527   -0.000560852
      9        6          -0.011652046    0.002323131   -0.005845881
     10        6           0.007426947    0.014763738    0.000598398
     11        6           0.003985590    0.006041018    0.009865291
     12        6           0.000371135   -0.001953495   -0.002978785
     13        6          -0.004183257   -0.000400988    0.002861617
     14        6          -0.000557736   -0.005075487    0.001549906
     15        6           0.003934228    0.001494613    0.000217939
     16        6          -0.002030080   -0.002199369   -0.012522469
     17        8           0.017504642   -0.020914522    0.047463043
     18        1           0.007156068   -0.004429467   -0.016304772
     19        1          -0.000822287   -0.006189453   -0.011426074
     20        1           0.006007853   -0.007522523   -0.004023530
     21        1           0.008034510   -0.003372447    0.006099712
     22        1           0.000269204    0.005085619    0.008875505
     23        1          -0.002575649    0.004785424    0.005920876
     24        1           0.004727892    0.005398067    0.007448297
     25        1          -0.001817565    0.000136374    0.011579097
     26        1          -0.002271268   -0.004392949   -0.003809279
     27        1          -0.000612337   -0.001463353    0.005961394
     28        1          -0.006642342    0.003907939   -0.000093045
     29        1          -0.005257126   -0.005727527   -0.008824449
     30        1           0.001362504   -0.000019865   -0.010648370
 -------------------------------------------------------------------
 Cartesian Forces:  Max     0.048904360 RMS     0.011441780

 GradGradGradGradGradGradGradGradGradGradGradGradGradGradGradGradGradGrad
 Berny optimization.
 FormGI is forming the generalized inverse of G from B-inverse, IUseBI=4.
 Internal  Forces:  Max     0.054589928 RMS     0.010308968
 Search for a local minimum.
 Step number   1 out of a maximum of  162
 All quantities printed in internal units (Hartrees-Bohrs-Radians)
 Mixed Optimization -- RFO/linear search
 Second derivative matrix not updated -- first step.
 ITU=  0
     Eigenvalues ---    0.00429   0.00927   0.01147   0.01610   0.01745
     Eigenvalues ---    0.01763   0.02008   0.02143   0.02247   0.02269
     Eigenvalues ---    0.02277   0.02300   0.02309   0.02341   0.02346
     Eigenvalues ---    0.02348   0.02369   0.02385   0.02387   0.02394
     Eigenvalues ---    0.02395   0.02422   0.02535   0.07314   0.07341
     Eigenvalues ---    0.10140   0.11352   0.12161   0.13609   0.15992
     Eigenvalues ---    0.15999   0.15999   0.15999   0.16000   0.16000
     Eigenvalues ---    0.16000   0.16000   0.16000   0.16000   0.16000
     Eigenvalues ---    0.16000   0.17223   0.21999   0.22000   0.22000
     Eigenvalues ---    0.22888   0.22976   0.23459   0.23996   0.24983
     Eigenvalues ---    0.24992   0.25000   0.25000   0.26470   0.33689
     Eigenvalues ---    0.34569   0.34769   0.34771   0.34779   0.36280
     Eigenvalues ---    0.36281   0.36288   0.36294   0.36299   0.36441
     Eigenvalues ---    0.36442   0.36511   0.36739   0.42648   0.43514
     Eigenvalues ---    0.44022   0.44277   0.46528   0.47122   0.47509
     Eigenvalues ---    0.47825   0.48067   0.49072   0.49247   0.49280
     Eigenvalues ---    0.50045   0.50104   0.76549   0.76628
 RFO step:  Lambda=-4.12653060D-02 EMin= 4.29166100D-03
 Linear search not attempted -- first point.
 Maximum step size (   0.300) exceeded in Quadratic search.
    -- Step size scaled by   0.930
 Iteration  1 RMS(Cart)=  0.18318298 RMS(Int)=  0.00719366
 Iteration  2 RMS(Cart)=  0.03121455 RMS(Int)=  0.00081139
 Iteration  3 RMS(Cart)=  0.00045952 RMS(Int)=  0.00079690
 Iteration  4 RMS(Cart)=  0.00000069 RMS(Int)=  0.00079690
 Variable       Old X    -DE/DX   Delta X   Delta X   Delta X     New X
                                 (Linear)    (Quad)   (Total)
    R1        2.83486  -0.05459   0.00000  -0.06289  -0.06289   2.77197
    R2        3.23380   0.00244   0.00000   0.00586   0.00586   3.23966
    R3        3.39310  -0.00388   0.00000  -0.01181  -0.01181   3.38129
    R4        2.83532  -0.05422   0.00000  -0.06253  -0.06253   2.77279
    R5        2.63541   0.02696   0.00000   0.04951   0.04951   2.68492
    R6        1.89165   0.01726   0.00000   0.03111   0.03111   1.92276
    R7        2.64434   0.00565   0.00000   0.00991   0.00990   2.65424
    R8        2.64349   0.00781   0.00000   0.01429   0.01430   2.65778
    R9        2.59863   0.01559   0.00000   0.02647   0.02646   2.62509
   R10        2.03291   0.01298   0.00000   0.02971   0.02971   2.06261
   R11        2.60909   0.01124   0.00000   0.01995   0.01995   2.62904
   R12        2.03634   0.01038   0.00000   0.02390   0.02390   2.06024
   R13        2.60857   0.01216   0.00000   0.02188   0.02189   2.63045
   R14        2.03617   0.01063   0.00000   0.02447   0.02447   2.06064
   R15        2.59668   0.01971   0.00000   0.03409   0.03410   2.63078
   R16        2.03645   0.01016   0.00000   0.02338   0.02338   2.05984
   R17        2.02942   0.00681   0.00000   0.01550   0.01550   2.04492
   R18        2.59652   0.01717   0.00000   0.02992   0.02993   2.62645
   R19        2.59627   0.01906   0.00000   0.03310   0.03310   2.62938
   R20        2.60796   0.01270   0.00000   0.02225   0.02225   2.63021
   R21        2.03624   0.01029   0.00000   0.02368   0.02368   2.05993
   R22        2.62184   0.01382   0.00000   0.02429   0.02428   2.64612
   R23        2.03396   0.01164   0.00000   0.02669   0.02669   2.06064
   R24        2.81158   0.01280   0.00000   0.03148   0.03148   2.84306
   R25        2.62204   0.01586   0.00000   0.02790   0.02790   2.64994
   R26        2.06048   0.00609   0.00000   0.01456   0.01456   2.07503
   R27        2.06051   0.00601   0.00000   0.01438   0.01438   2.07489
   R28        2.06036   0.00768   0.00000   0.01836   0.01836   2.07872
   R29        2.60831   0.00988   0.00000   0.01723   0.01723   2.62554
   R30        2.03397   0.01168   0.00000   0.02678   0.02678   2.06075
   R31        2.03645   0.01061   0.00000   0.02443   0.02443   2.06088
    A1        2.01720  -0.00464   0.00000  -0.01535  -0.01981   1.99739
    A2        1.85924  -0.00191   0.00000   0.02254   0.02206   1.88130
    A3        2.13072  -0.00137   0.00000  -0.03565  -0.03862   2.09210
    A4        1.66879   0.02886   0.00000   0.11436   0.11337   1.78216
    A5        1.84340  -0.01338   0.00000  -0.06265  -0.06562   1.77777
    A6        1.88497   0.00090   0.00000   0.02040   0.02250   1.90746
    A7        2.14280   0.04557   0.00000   0.16360   0.16188   2.30469
    A8        1.82203  -0.01343   0.00000  -0.02579  -0.02741   1.79461
    A9        2.03745  -0.01779   0.00000  -0.05452  -0.05768   1.97977
   A10        2.07734  -0.02312   0.00000  -0.07324  -0.07327   2.00407
   A11        2.15279   0.02131   0.00000   0.06873   0.06860   2.22139
   A12        2.05279   0.00177   0.00000   0.00400   0.00393   2.05671
   A13        2.11231   0.00233   0.00000   0.00651   0.00649   2.11880
   A14        2.06982  -0.00006   0.00000   0.00187   0.00188   2.07170
   A15        2.10100  -0.00227   0.00000  -0.00834  -0.00833   2.09267
   A16        2.09795   0.00061   0.00000   0.00211   0.00210   2.10005
   A17        2.09274  -0.00135   0.00000  -0.00590  -0.00589   2.08685
   A18        2.09250   0.00074   0.00000   0.00378   0.00379   2.09628
   A19        2.09188  -0.00513   0.00000  -0.01639  -0.01639   2.07549
   A20        2.09574   0.00221   0.00000   0.00656   0.00655   2.10229
   A21        2.09556   0.00292   0.00000   0.00984   0.00984   2.10540
   A22        2.09646   0.00467   0.00000   0.01864   0.01866   2.11512
   A23        2.09375  -0.00106   0.00000  -0.00344  -0.00345   2.09030
   A24        2.09295  -0.00361   0.00000  -0.01520  -0.01521   2.07774
   A25        2.11497  -0.00424   0.00000  -0.01481  -0.01479   2.10018
   A26        2.07145   0.00636   0.00000   0.02710   0.02708   2.09854
   A27        2.09627  -0.00211   0.00000  -0.01210  -0.01211   2.08416
   A28        2.09208  -0.00084   0.00000  -0.00369  -0.00369   2.08839
   A29        2.09155  -0.00276   0.00000  -0.00984  -0.00984   2.08171
   A30        2.09955   0.00360   0.00000   0.01353   0.01353   2.11308
   A31        2.09374  -0.00411   0.00000  -0.01325  -0.01326   2.08048
   A32        2.07912   0.00303   0.00000   0.01112   0.01112   2.09024
   A33        2.11028   0.00109   0.00000   0.00218   0.00218   2.11246
   A34        2.10393   0.00239   0.00000   0.00783   0.00783   2.11176
   A35        2.09623  -0.00250   0.00000  -0.00995  -0.00994   2.08629
   A36        2.08302   0.00011   0.00000   0.00211   0.00211   2.08513
   A37        2.10545   0.00044   0.00000   0.00228   0.00228   2.10773
   A38        2.07151  -0.00053   0.00000  -0.00337  -0.00338   2.06813
   A39        2.10568   0.00010   0.00000   0.00118   0.00119   2.10687
   A40        1.93972   0.00110   0.00000   0.00582   0.00580   1.94552
   A41        1.93969   0.00105   0.00000   0.00563   0.00561   1.94529
   A42        1.93300   0.00016   0.00000  -0.00073  -0.00072   1.93228
   A43        1.87883  -0.00012   0.00000   0.00223   0.00218   1.88101
   A44        1.88520  -0.00119   0.00000  -0.00693  -0.00692   1.87827
   A45        1.88513  -0.00114   0.00000  -0.00662  -0.00662   1.87852
   A46        2.10486   0.00247   0.00000   0.00780   0.00779   2.11265
   A47        2.08253   0.00012   0.00000   0.00238   0.00238   2.08491
   A48        2.09579  -0.00259   0.00000  -0.01018  -0.01017   2.08562
   A49        2.09266  -0.00382   0.00000  -0.01251  -0.01251   2.08015
   A50        2.08091   0.00346   0.00000   0.01345   0.01345   2.09436
   A51        2.10958   0.00035   0.00000  -0.00093  -0.00093   2.10865
    D1        0.08207   0.01459   0.00000   0.13696   0.13658   0.21865
    D2       -2.28915   0.01155   0.00000   0.08464   0.08207  -2.20709
    D3       -1.86122   0.00220   0.00000   0.05245   0.05261  -1.80861
    D4        2.05074  -0.00084   0.00000   0.00013  -0.00190   2.04884
    D5        2.49370  -0.00562   0.00000   0.00563   0.00914   2.50284
    D6        0.12248  -0.00866   0.00000  -0.04669  -0.04537   0.07710
    D7       -0.21617  -0.00306   0.00000  -0.02244  -0.02384  -0.24001
    D8        2.92663  -0.00298   0.00000  -0.02119  -0.02260   2.90403
    D9        1.85718   0.00274   0.00000   0.01210   0.01263   1.86980
   D10       -1.28320   0.00281   0.00000   0.01335   0.01386  -1.26934
   D11       -2.53328  -0.00059   0.00000  -0.00784  -0.00694  -2.54022
   D12        0.60953  -0.00052   0.00000  -0.00659  -0.00571   0.60382
   D13       -2.97580  -0.00277   0.00000  -0.00783  -0.00693  -2.98272
   D14        0.19106  -0.00119   0.00000   0.01653   0.01745   0.20851
   D15       -0.69031   0.00720   0.00000   0.07833   0.07740  -0.61291
   D16        2.47655   0.00878   0.00000   0.10268   0.10178   2.57833
   D17       -3.11226   0.00030   0.00000   0.00852   0.00755  -3.10471
   D18        0.01864   0.00065   0.00000   0.01295   0.01214   0.03077
   D19        0.00552  -0.00087   0.00000  -0.01341  -0.01330  -0.00779
   D20        3.13641  -0.00053   0.00000  -0.00899  -0.00871   3.12770
   D21        3.11080  -0.00125   0.00000  -0.01566  -0.01656   3.09424
   D22       -0.06433  -0.00082   0.00000  -0.00910  -0.00974  -0.07407
   D23       -0.00586   0.00065   0.00000   0.00945   0.00946   0.00360
   D24        3.10219   0.00109   0.00000   0.01600   0.01628   3.11847
   D25       -0.00091   0.00053   0.00000   0.00836   0.00814   0.00723
   D26        3.13923   0.00037   0.00000   0.00530   0.00527  -3.13869
   D27       -3.13161   0.00017   0.00000   0.00379   0.00342  -3.12818
   D28        0.00853   0.00000   0.00000   0.00072   0.00056   0.00908
   D29       -0.00357   0.00010   0.00000   0.00124   0.00130  -0.00226
   D30       -3.14076  -0.00017   0.00000  -0.00272  -0.00261   3.13981
   D31        3.13948   0.00027   0.00000   0.00431   0.00419  -3.13951
   D32        0.00229  -0.00000   0.00000   0.00035   0.00028   0.00257
   D33        0.00324  -0.00034   0.00000  -0.00523  -0.00511  -0.00187
   D34       -3.13057  -0.00042   0.00000  -0.00575  -0.00578  -3.13635
   D35        3.14043  -0.00007   0.00000  -0.00128  -0.00119   3.13924
   D36        0.00662  -0.00015   0.00000  -0.00180  -0.00186   0.00476
   D37        0.00157  -0.00005   0.00000  -0.00030  -0.00043   0.00114
   D38       -3.10600  -0.00066   0.00000  -0.00769  -0.00795  -3.11395
   D39        3.13538   0.00004   0.00000   0.00027   0.00029   3.13567
   D40        0.02781  -0.00057   0.00000  -0.00712  -0.00723   0.02058
   D41       -3.13497   0.00069   0.00000   0.00995   0.00995  -3.12502
   D42        0.01769   0.00031   0.00000   0.00436   0.00436   0.02206
   D43        0.00540   0.00061   0.00000   0.00868   0.00868   0.01408
   D44       -3.12512   0.00023   0.00000   0.00309   0.00309  -3.12203
   D45        3.13452  -0.00058   0.00000  -0.00833  -0.00835   3.12617
   D46       -0.01626  -0.00041   0.00000  -0.00583  -0.00584  -0.02210
   D47       -0.00585  -0.00050   0.00000  -0.00707  -0.00708  -0.01294
   D48        3.12655  -0.00034   0.00000  -0.00456  -0.00457   3.12198
   D49        0.00539  -0.00056   0.00000  -0.00817  -0.00814  -0.00275
   D50       -3.13245  -0.00048   0.00000  -0.00699  -0.00696  -3.13941
   D51        3.13571  -0.00016   0.00000  -0.00242  -0.00242   3.13329
   D52       -0.00213  -0.00008   0.00000  -0.00124  -0.00124  -0.00337
   D53       -3.12162   0.00022   0.00000   0.00305   0.00306  -3.11855
   D54       -0.01540   0.00041   0.00000   0.00608   0.00610  -0.00930
   D55        0.01625   0.00014   0.00000   0.00186   0.00186   0.01811
   D56        3.12246   0.00033   0.00000   0.00488   0.00490   3.12736
   D57       -2.63406  -0.00055   0.00000  -0.00361  -0.00362  -2.63768
   D58       -0.54202   0.00074   0.00000   0.00685   0.00688  -0.53514
   D59        1.55350   0.00011   0.00000   0.00175   0.00176   1.55526
   D60        0.54360  -0.00073   0.00000  -0.00660  -0.00663   0.53697
   D61        2.63565   0.00055   0.00000   0.00386   0.00387   2.63951
   D62       -1.55202  -0.00007   0.00000  -0.00124  -0.00125  -1.55327
   D63        0.01496  -0.00030   0.00000  -0.00448  -0.00448   0.01048
   D64       -3.12320  -0.00027   0.00000  -0.00397  -0.00398  -3.12719
   D65        3.12117  -0.00010   0.00000  -0.00143  -0.00142   3.11975
   D66       -0.01699  -0.00007   0.00000  -0.00092  -0.00093  -0.01792
   D67       -0.00449   0.00034   0.00000   0.00494   0.00491   0.00043
   D68       -3.13674   0.00015   0.00000   0.00232   0.00230  -3.13443
   D69        3.13365   0.00031   0.00000   0.00446   0.00445   3.13809
   D70        0.00140   0.00013   0.00000   0.00184   0.00184   0.00323
         Item               Value     Threshold  Converged?
 Maximum Force            0.054590     0.000450     NO 
 RMS     Force            0.010309     0.000300     NO 
 Maximum Displacement     0.602206     0.001800     NO 
 RMS     Displacement     0.207911     0.001200     NO 
 Predicted change in Energy=-2.337473D-02
 GradGradGradGradGradGradGradGradGradGradGradGradGradGradGradGradGradGrad

                          Input orientation:                          
 ---------------------------------------------------------------------
 Center     Atomic      Atomic             Coordinates (Angstroms)
 Number     Number       Type             X           Y           Z
 ---------------------------------------------------------------------
      1          8           0        0.229401    2.349446    0.203979
      2         16           0       -0.055818    1.340258   -0.821633
      3          7           0        1.122243    0.100837   -0.944215
      4          6           0        2.203100   -0.271502   -0.100544
      5          6           0        3.074533   -1.228411   -0.646190
      6          6           0        4.152267   -1.722156    0.077973
      7          6           0        4.387983   -1.280209    1.375908
      8          6           0        3.529244   -0.336263    1.931902
      9          6           0        2.449391    0.168177    1.212502
     10          6           0       -1.506399    0.429515   -0.303982
     11          6           0       -1.962199    0.547672    1.003684
     12          6           0       -3.079666   -0.180389    1.401729
     13          6           0       -3.748235   -1.022926    0.505129
     14          6           0       -4.973061   -1.784857    0.932596
     15          6           0       -3.273695   -1.110207   -0.811532
     16          6           0       -2.158450   -0.389546   -1.220485
     17          8           0       -0.212997    1.746513   -2.222781
     18          1           0        1.367342    0.119082   -1.931567
     19          1           0        2.888716   -1.589233   -1.659414
     20          1           0        4.811457   -2.462498   -0.375864
     21          1           0        5.232382   -1.667605    1.946854
     22          1           0        3.703876    0.023283    2.945989
     23          1           0        1.815158    0.920151    1.663364
     24          1           0       -1.445828    1.209623    1.698973
     25          1           0       -3.443159   -0.090217    2.425844
     26          1           0       -5.079451   -2.722461    0.371064
     27          1           0       -4.937267   -2.036159    2.000836
     28          1           0       -5.881576   -1.188960    0.760767
     29          1           0       -3.790606   -1.751173   -1.526490
     30          1           0       -1.796547   -0.455097   -2.247166
 ---------------------------------------------------------------------
                    Distance matrix (angstroms):
                    1          2          3          4          5
     1  O    0.000000
     2  S    1.466864   0.000000
     3  N    2.678014   1.714356   0.000000
     4  C    3.295086   2.867132   1.420799   0.000000
     5  C    4.649583   4.053139   2.380579   1.404564   0.000000
     6  C    5.655324   5.281633   3.680926   2.436291   1.389138
     7  C    5.642837   5.607441   4.237372   2.823316   2.411786
     8  C    4.592136   4.821343   3.775813   2.427693   2.765727
     9  C    3.271606   3.433300   2.533236   1.406438   2.407487
    10  C    2.637643   1.789302   2.725379   3.780634   4.883725
    11  C    2.947716   2.755768   3.675290   4.386351   5.589743
    12  C    4.334120   4.049612   4.820641   5.492972   6.570121
    13  C    5.223522   4.580271   5.204325   6.029085   6.922278
    14  C    6.684980   6.084648   6.650638   7.406409   8.219852
    15  C    5.027141   4.044701   4.561633   5.586072   6.351481
    16  C    3.902949   2.751793   3.328625   4.504588   5.330818
    17  O    2.539372   1.467299   2.475045   3.796551   4.705706
    18  H    3.290895   2.179130   1.017482   2.050291   2.526348
    19  H    5.104642   4.237224   2.547208   2.153267   1.091487
    20  H    6.669802   6.192740   4.528135   3.417571   2.147778
    21  H    6.648618   6.684072   5.327186   3.913757   3.401922
    22  H    5.000163   5.483128   4.669533   3.408899   3.855717
    23  H    2.585984   3.138829   2.819730   2.163772   3.396525
    24  H    2.518054   2.881431   3.848485   4.329742   5.646013
    25  H    4.937240   4.905756   5.677737   6.188355   7.294737
    26  H    7.344118   6.570015   6.939883   7.698387   8.351913
    27  H    7.011183   6.572295   7.068079   7.649487   8.476328
    28  H    7.083387   6.545257   7.322842   8.182027   9.066034
    29  H    5.997504   4.899225   5.282525   6.336186   6.941062
    30  H    4.240052   2.878468   3.244391   4.543001   5.185418
                    6          7          8          9         10
     6  C    0.000000
     7  C    1.391228   0.000000
     8  C    2.397063   1.391976   0.000000
     9  C    2.785732   2.425420   1.392150   0.000000
    10  C    6.065977   6.363091   5.562670   4.244561   0.000000
    11  C    6.587545   6.618498   5.639050   4.432803   1.389857
    12  C    7.512005   7.548249   6.631974   5.543264   2.399291
    13  C    7.942878   8.186727   7.447745   6.350565   2.791070
    14  C    9.165474   9.385113   8.682524   7.680200   4.295383
    15  C    7.504039   7.969636   7.376002   6.203603   2.398267
    16  C    6.579285   7.098614   6.503096   5.240484   1.391406
    17  O    6.031638   6.578801   5.966885   4.623918   2.662548
    18  H    3.896693   4.692726   4.450568   3.325418   3.317196
    19  H    2.152381   3.399482   3.857171   3.395496   5.022905
    20  H    1.090232   2.155422   3.389798   3.875915   6.948685
    21  H    2.159246   1.090442   2.161799   3.413855   7.407790
    22  H    3.387201   2.152266   1.090019   2.144693   6.154211
    23  H    3.867470   3.397594   2.142144   1.082124   3.891519
    24  H    6.523928   6.351141   5.214918   4.061280   2.150364
    25  H    8.115800   7.990322   6.994207   6.021720   3.387197
    26  H    9.290378   9.629233   9.068616   8.108469   4.812207
    27  H    9.296000   9.376689   8.635752   7.748760   4.812752
    28  H   10.071172  10.288371   9.521670   8.452863   4.784905
    29  H    8.103355   8.691090   8.218434   7.079798   3.386374
    30  H    6.511535   7.214976   6.770730   5.512327   2.154690
                   11         12         13         14         15
    11  C    0.000000
    12  C    1.391850   0.000000
    13  C    2.430074   1.400266   0.000000
    14  C    3.809335   2.525737   1.504482   0.000000
    15  C    2.786323   2.408471   1.402285   2.526852   0.000000
    16  C    2.421533   2.787184   2.430295   3.808502   1.389376
    17  O    3.860959   5.006777   5.254445   6.714551   4.418183
    18  H    4.459285   5.565646   5.780207   7.213121   4.929994
    19  H    5.932101   6.853978   7.003932   8.280357   6.238884
    20  H    7.539674   8.404622   8.724497   9.894849   8.209030
    21  H    7.586766   8.461626   9.118425  10.256390   8.959505
    22  H    6.012649   6.960077   7.911152   9.089134   8.005639
    23  H    3.852577   5.023838   6.005698   7.343774   6.011979
    24  H    1.090066   2.165621   3.422078   4.689948   3.876254
    25  H    2.150043   1.090445   2.156887   2.728038   3.398485
    26  H    4.561934   3.394634   2.162990   1.098061   2.694189
    27  H    4.064668   2.693231   2.162771   1.097985   3.396215
    28  H    4.293765   3.046104   2.155008   1.100009   3.046206
    29  H    3.876795   3.398126   2.158614   2.728816   1.090504
    30  H    3.406025   3.877666   3.421497   4.687152   2.161522
                   16         17         18         19         20
    16  C    0.000000
    17  O    3.058125   0.000000
    18  H    3.632567   2.287096   0.000000
    19  H    5.206322   4.589685   2.303689   0.000000
    20  H    7.320527   6.809700   4.576756   2.471240   0.000000
    21  H    8.141859   7.661215   5.759595   4.301637   2.490794
    22  H    7.203944   6.710261   5.409170   4.947164   4.294246
    23  H    5.081482   4.460763   3.710226   4.300045   4.957678
    24  H    3.404175   4.145875   4.720595   6.156348   7.546061
    25  H    3.877601   5.951238   6.493978   7.683034   9.034156
    26  H    4.062976   7.098037   7.411991   8.300526   9.922477
    27  H    4.561806   7.380127   7.736727   8.651195  10.043310
    28  H    4.292562   7.046371   7.842604   9.106893  10.828425
    29  H    2.147464   5.051526   5.501487   6.682606   8.707778
[...]
     3  N    0.000974   0.005944  -0.019536  -0.061436   0.006353   0.000051
     4  C   -0.112037   0.025711   0.363628   0.045020  -0.002535   0.001884
     5  C    0.035588  -0.098021   0.057867  -0.000164  -0.014269  -0.000558
     6  C    0.439075   0.022566  -0.090406  -0.001763   0.001203   0.002006
     7  C    4.963738   0.413180   0.048688  -0.000158  -0.000708  -0.000194
     8  C    0.413180   4.971011   0.385910  -0.000067  -0.001261   0.000433
     9  C    0.048688   0.385910   5.133497   0.003465   0.000858  -0.002489
    10  C   -0.000158  -0.000067   0.003465   5.294100   0.316158   0.049850
    11  C   -0.000708  -0.001261   0.000858   0.316158   5.142178   0.357309
    12  C   -0.000194   0.000433  -0.002489   0.049850   0.357309   5.100302
    13  C    0.000042  -0.000039   0.000218  -0.090547   0.033054   0.412523
    14  C   -0.000001  -0.000001   0.000006  -0.004307   0.013803  -0.073668
    15  C    0.000020  -0.000008   0.000048   0.015634  -0.050414  -0.014067
    16  C   -0.000059   0.000171   0.000326   0.368115  -0.069580  -0.046402
    17  O   -0.000003  -0.000000  -0.000743  -0.096283   0.008737  -0.000586
    18  H    0.000136  -0.000720   0.004522  -0.000736   0.000707  -0.000043
    19  H    0.010391  -0.003894   0.012038   0.000788  -0.000270  -0.000258
    20  H   -0.057145   0.010719  -0.003858   0.000005   0.000029   0.000022
    21  H    0.443934  -0.056276   0.011297   0.000004  -0.000018  -0.000002
    22  H   -0.058354   0.446326  -0.057681  -0.000016  -0.000004   0.000008
    23  H    0.010216  -0.048920   0.434639   0.001828  -0.000443  -0.000158
    24  H    0.000104   0.000352   0.000007  -0.046350   0.436269  -0.049479
    25  H    0.000008   0.000057  -0.000101   0.010711  -0.048545   0.444509
    26  H    0.000000  -0.000000   0.000000   0.000065  -0.000710   0.007942
    27  H   -0.000000   0.000000   0.000000   0.000055   0.001935  -0.006656
    28  H    0.000000   0.000000  -0.000000   0.000160  -0.000731  -0.004879
    29  H   -0.000000   0.000000  -0.000002   0.011285  -0.003857   0.012870
    30  H   -0.000003   0.000007  -0.000018  -0.045627   0.008283  -0.002426
              13         14         15         16         17         18
     1  O   -0.000113  -0.000000  -0.000265   0.006937  -0.043930   0.002676
     2  S   -0.000536   0.000005   0.005743  -0.039189   0.584240  -0.016604
     3  N    0.000226  -0.000004  -0.001190   0.000032  -0.048057   0.365619
     4  C   -0.000717   0.000007   0.000250   0.001024   0.001635  -0.051462
     5  C   -0.000464   0.000008   0.000796  -0.001916  -0.000524   0.008838
     6  C    0.000056  -0.000016  -0.000051  -0.000680  -0.000001   0.001086
     7  C    0.000042  -0.000001   0.000020  -0.000059  -0.000003   0.000136
     8  C   -0.000039  -0.000001  -0.000008   0.000171  -0.000000  -0.000720
     9  C    0.000218   0.000006   0.000048   0.000326  -0.000743   0.004522
    10  C   -0.090547  -0.004307   0.015634   0.368115  -0.096283  -0.000736
    11  C    0.033054   0.013803  -0.050414  -0.069580   0.008737   0.000707
    12  C    0.412523  -0.073668  -0.014067  -0.046402  -0.000586  -0.000043
    13  C    4.972714   0.297548   0.432291   0.016226   0.000166   0.000064
    14  C    0.297548   4.958422  -0.073385   0.013147   0.000001   0.000000
    15  C    0.432291  -0.073385   5.062912   0.404481   0.002759  -0.000166
    16  C    0.016226   0.013147   0.404481   5.106076   0.026777   0.000144
    17  O    0.000166   0.000001   0.002759   0.026777   8.022369   0.004369
    18  H    0.000064   0.000000  -0.000166   0.000144   0.004369   0.429406
    19  H   -0.000009  -0.000000   0.000310   0.000379  -0.000176   0.003562
    20  H   -0.000005   0.000000  -0.000003  -0.000001  -0.000000  -0.000040
    21  H   -0.000001   0.000000   0.000000  -0.000000   0.000000  -0.000002
    22  H   -0.000000  -0.000000  -0.000000   0.000001  -0.000000   0.000013
    23  H    0.000015   0.000000   0.000007  -0.000172  -0.000134  -0.000050
    24  H    0.008919  -0.000031  -0.002426   0.008178   0.000384  -0.000098
    25  H   -0.063182  -0.006643   0.012778  -0.003657   0.000003   0.000000
    26  H   -0.054897   0.427647  -0.006510   0.001945   0.000000   0.000000
    27  H   -0.053282   0.427612   0.006950  -0.000639   0.000000  -0.000000
    28  H   -0.017375   0.390171  -0.004584  -0.000662  -0.000000  -0.000000
    29  H   -0.062066  -0.006794   0.443203  -0.048874  -0.000028  -0.000009
    30  H    0.008425  -0.000057  -0.048539   0.432619   0.013553   0.000364
              19         20         21         22         23         24
     1  O   -0.000017  -0.000000   0.000001  -0.000038   0.008975   0.008184
     2  S   -0.000121  -0.000007   0.000003  -0.000003  -0.002920  -0.004117
     3  N    0.002897  -0.000360   0.000008  -0.000119  -0.001404   0.000355
     4  C   -0.080505   0.015212  -0.003965   0.013945  -0.044804   0.000132
     5  C    0.439964  -0.053930   0.012198  -0.003504   0.011287  -0.001673
     6  C   -0.031473   0.438888  -0.056088   0.010553  -0.004443   0.000169
     7  C    0.010391  -0.057145   0.443934  -0.058354   0.010216   0.000104
     8  C   -0.003894   0.010719  -0.056276   0.446326  -0.048920   0.000352
     9  C    0.012038  -0.003858   0.011297  -0.057681   0.434639   0.000007
    10  C    0.000788   0.000005   0.000004  -0.000016   0.001828  -0.046350
    11  C   -0.000270   0.000029  -0.000018  -0.000004  -0.000443   0.436269
    12  C   -0.000258   0.000022  -0.000002   0.000008  -0.000158  -0.049479
    13  C   -0.000009  -0.000005  -0.000001  -0.000000   0.000015   0.008919
    14  C   -0.000000   0.000000   0.000000  -0.000000   0.000000  -0.000031
    15  C    0.000310  -0.000003   0.000000  -0.000000   0.000007  -0.002426
    16  C    0.000379  -0.000001  -0.000000   0.000001  -0.000172   0.008178
    17  O   -0.000176  -0.000000   0.000000  -0.000000  -0.000134   0.000384
    18  H    0.003562  -0.000040  -0.000002   0.000013  -0.000050  -0.000098
    19  H    0.538588  -0.007507  -0.000098   0.000028   0.000012  -0.000054
    20  H   -0.007507   0.541626  -0.006650  -0.000125   0.000015   0.000004
    21  H   -0.000098  -0.006650   0.538791  -0.006847  -0.000017  -0.000005
    22  H    0.000028  -0.000125  -0.006847   0.534756  -0.006493  -0.000017
    23  H    0.000012   0.000015  -0.000017  -0.006493   0.476183  -0.000092
    24  H   -0.000054   0.000004  -0.000005  -0.000017  -0.000092   0.481736
    25  H   -0.000002  -0.000000  -0.000000   0.000001  -0.000007  -0.005595
    26  H    0.000000  -0.000000   0.000000  -0.000000  -0.000000   0.000002
    27  H   -0.000000   0.000000  -0.000000   0.000000  -0.000000  -0.000022
    28  H    0.000000  -0.000000  -0.000000   0.000000   0.000000   0.000008
    29  H   -0.000003   0.000000   0.000000   0.000000  -0.000000   0.000026
    30  H   -0.000067   0.000000  -0.000000   0.000000  -0.000005  -0.000066
              25         26         27         28         29         30
     1  O   -0.000011   0.000000   0.000000  -0.000000   0.000004   0.000542
     2  S   -0.000100   0.000001   0.000001  -0.000001  -0.000114  -0.004415
     3  N    0.000031  -0.000000  -0.000000   0.000000   0.000017   0.000276
     4  C    0.000037  -0.000001   0.000003  -0.000000  -0.000007  -0.000183
     5  C   -0.000080   0.000001  -0.000002   0.000000  -0.000002  -0.000132
     6  C    0.000072  -0.000001   0.000001   0.000000   0.000003   0.000006
     7  C    0.000008   0.000000  -0.000000   0.000000  -0.000000  -0.000003
     8  C    0.000057  -0.000000   0.000000   0.000000   0.000000   0.000007
     9  C   -0.000101   0.000000   0.000000  -0.000000  -0.000002  -0.000018
    10  C    0.010711   0.000065   0.000055   0.000160   0.011285  -0.045627
    11  C   -0.048545  -0.000710   0.001935  -0.000731  -0.003857   0.008283
    12  C    0.444509   0.007942  -0.006656  -0.004879   0.012870  -0.002426
    13  C   -0.063182  -0.054897  -0.053282  -0.017375  -0.062066   0.008425
    14  C   -0.006643   0.427647   0.427612   0.390171  -0.006794  -0.000057
    15  C    0.012778  -0.006510   0.006950  -0.004584   0.443203  -0.048539
    16  C   -0.003657   0.001945  -0.000639  -0.000662  -0.048874   0.432619
    17  O    0.000003   0.000000   0.000000  -0.000000  -0.000028   0.013553
    18  H    0.000000   0.000000  -0.000000  -0.000000  -0.000009   0.000364
    19  H   -0.000002   0.000000  -0.000000   0.000000  -0.000003  -0.000067
    20  H   -0.000000  -0.000000   0.000000  -0.000000   0.000000   0.000000
    21  H   -0.000000   0.000000  -0.000000  -0.000000   0.000000  -0.000000
    22  H    0.000001  -0.000000   0.000000   0.000000   0.000000   0.000000
    23  H   -0.000007  -0.000000  -0.000000   0.000000  -0.000000  -0.000005
    24  H   -0.005595   0.000002  -0.000022   0.000008   0.000026  -0.000066
    25  H    0.533618   0.000074   0.000877   0.000256  -0.000049   0.000031
    26  H    0.000074   0.542010  -0.023657  -0.023393   0.001099  -0.000019
    27  H    0.000877  -0.023657   0.540736  -0.024251   0.000057   0.000003
    28  H    0.000256  -0.023393  -0.024251   0.544764   0.000224   0.000007
    29  H   -0.000049   0.001099   0.000057   0.000224   0.533416  -0.005563
    30  H    0.000031  -0.000019   0.000003   0.000007  -0.005563   0.477706
 Mulliken charges:
               1
     1  O   -0.461037
     2  S    0.856453
     3  N   -0.316464
     4  C    0.199894
     5  C   -0.217394
     6  C   -0.096910
     7  C   -0.137586
     8  C   -0.072243
     9  C   -0.270545
    10  C    0.000939
    11  C   -0.135587
    12  C   -0.195675
    13  C    0.160746
    14  C   -0.363467
    15  C   -0.186578
    16  C   -0.174747
    17  O   -0.474532
    18  H    0.248421
    19  H    0.115495
    20  H    0.123109
    21  H    0.123731
    22  H    0.127570
    23  H    0.166883
    24  H    0.165192
    25  H    0.124908
    26  H    0.128401
    27  H    0.130279
    28  H    0.140286
    29  H    0.125165
    30  H    0.165294
 Sum of Mulliken charges =  -0.00000
 Mulliken charges with hydrogens summed into heavy atoms:
               1
     1  O   -0.461037
     2  S    0.856453
     3  N   -0.068044
     4  C    0.199894
     5  C   -0.101899
     6  C    0.026199
     7  C   -0.013855
     8  C    0.055327
     9  C   -0.103662
    10  C    0.000939
    11  C    0.029605
    12  C   -0.070767
    13  C    0.160746
    14  C    0.035497
    15  C   -0.061413
    16  C   -0.009453
    17  O   -0.474532
 Electronic spatial extent (au):  <R**2>=           4366.5582
 Charge=              0.0000 electrons
 Dipole moment (field-independent basis, Debye):
    X=             -1.8221    Y=             -5.3822    Z=             -1.7650  Tot=              5.9501
 Quadrupole moment (field-independent basis, Debye-Ang):
   XX=            -96.8156   YY=           -114.0107   ZZ=           -101.0999
   XY=              0.2819   XZ=              2.6680   YZ=             -4.5453
 Traceless Quadrupole moment (field-independent basis, Debye-Ang):
   XX=              7.1598   YY=            -10.0353   ZZ=              2.8755
   XY=              0.2819   XZ=              2.6680   YZ=             -4.5453
 Octapole moment (field-independent basis, Debye-Ang**2):
  XXX=            -41.9456  YYY=            -42.3725  ZZZ=            -11.7723  XYY=              3.5017
  XXY=            -16.3225  XXZ=              7.5906  XZZ=              2.8432  YZZ=             -0.3963
  YYZ=             -0.7605  XYZ=             -0.8840
 Hexadecapole moment (field-independent basis, Debye-Ang**3):
 XXXX=          -3343.4025 YYYY=          -1978.1258 ZZZZ=           -577.6459 XXXY=             53.3079
 XXXZ=            112.8070 YYYX=            -18.4113 YYYZ=             17.6607 ZZZX=             13.6182
 ZZZY=            -24.0121 XXYY=           -821.9525 XXZZ=           -639.5063 YYZZ=           -410.8571
 XXYZ=            -31.6122 YYXZ=            -12.7807 ZZXY=             -2.1688
 N-N= 1.331937979386D+03 E-N=-5.259248002001D+03  KE= 1.102023939629D+03
 Breneman (CHELPG) radii used.
 Read replacement radii for each type of atom:
 Atom Element Radius
    1     8    1.70
    2    16    2.00
    3     7    1.70
    4     6    1.50
    5     6    1.50
    6     6    1.50
    7     6    1.50
    8     6    1.50
    9     6    1.50
   10     6    1.50
   11     6    1.50
   12     6    1.50
   13     6    1.50
   14     6    1.50
   15     6    1.50
   16     6    1.50
   17     8    1.70
   18     1    1.45
   19     1    1.45
   20     1    1.45
   21     1    1.45
   22     1    1.45
   23     1    1.45
   24     1    1.45
   25     1    1.45
   26     1    1.45
   27     1    1.45
   28     1    1.45
   29     1    1.45
   30     1    1.45
 Generate Potential Derived Charges using the Breneman model, NDens= 1.
 Grid spacing= 0.300 Box extension= 2.800
 NStep X,Y,Z=   49     42     34   Total possible points=       69972
 Number of Points to Fit=   18717

 **********************************************************************

            Electrostatic Properties Using The SCF Density.

 **********************************************************************

       Atomic Center    1 is at   0.760073  2.052866  1.477388
       Atomic Center    2 is at   0.211323  1.955875  0.139120
       Atomic Center    3 is at   1.389752  1.267732 -0.841736
       Atomic Center    4 is at   1.950903  0.004405 -0.532432
       Atomic Center    5 is at   1.772071 -1.075540 -1.403354
       Atomic Center    6 is at   2.334172 -2.314490 -1.105011
       Atomic Center    7 is at   3.052629 -2.491985  0.076078
       Atomic Center    8 is at   3.219364 -1.416608  0.949050
       Atomic Center    9 is at   2.685463 -0.166943  0.646254
       Atomic Center   10 is at  -1.098916  0.752235  0.173413
       Atomic Center   11 is at  -1.042828 -0.301651  1.084436
       Atomic Center   12 is at  -2.036109 -1.275011  1.051244
       Atomic Center   13 is at  -3.088771 -1.207159  0.129577
       Atomic Center   14 is at  -4.177679 -2.246449  0.128572
       Atomic Center   15 is at  -3.122257 -0.131980 -0.767928
       Atomic Center   16 is at  -2.134400  0.847722 -0.754125
       Atomic Center   17 is at  -0.244699  3.115745 -0.602757
       Atomic Center   18 is at   1.147171  1.412297 -1.818027
       Atomic Center   19 is at   1.185080 -0.942291 -2.315648
       Atomic Center   20 is at   2.196651 -3.149144 -1.795694
       Atomic Center   21 is at   3.485235 -3.465650  0.314523
       Atomic Center   22 is at   3.787553 -1.545747  1.872781
       Atomic Center   23 is at   2.821167  0.683431  1.314463
       Atomic Center   24 is at  -0.230512 -0.351387  1.811212
       Atomic Center   25 is at  -1.993553 -2.105467  1.760259
       Atomic Center   26 is at  -4.629226 -2.356338 -0.867330
       Atomic Center   27 is at  -3.797158 -3.227521  0.446019
       Atomic Center   28 is at  -4.981579 -1.962564  0.826841
       Atomic Center   29 is at  -3.939635 -0.058100 -1.489665
       Atomic Center   30 is at  -2.165494  1.692183 -1.445196
   18717 points will be used for fitting atomic charges
 Fitting point charges to electrostatic potential
 Charges from ESP fit, RMS=   0.00359 RRMS=   0.21953:
 ESP charges:
               1
     1  O   -0.469751
     2  S    0.935051
     3  N   -0.647577
     4  C    0.411727
     5  C   -0.271217
     6  C   -0.053620
     7  C   -0.144632
     8  C   -0.057008
     9  C   -0.219379
    10  C   -0.065136
    11  C   -0.036398
    12  C   -0.230875
    13  C    0.239465
    14  C   -0.271791
    15  C   -0.212049
    16  C   -0.067826
    17  O   -0.485474
    18  H    0.354962
    19  H    0.111466
    20  H    0.103906
    21  H    0.103771
    22  H    0.097506
    23  H    0.160415
    24  H    0.099598
    25  H    0.129027
    26  H    0.077343
    27  H    0.078776
    28  H    0.090202
    29  H    0.126851
    30  H    0.112665
 Sum of ESP charges =  -0.00000
 ESP charges with hydrogens summed into heavy atoms:
               1
     1  O   -0.469751
     2  S    0.935051
     3  N   -0.292615
     4  C    0.411727
     5  C   -0.159750
     6  C    0.050286
     7  C   -0.040861
     8  C    0.040498
     9  C   -0.058964
    10  C   -0.065136
    11  C    0.063200
    12  C   -0.101848
    13  C    0.239465
    14  C   -0.025470
    15  C   -0.085197
    16  C    0.044838
    17  O   -0.485474
 Charge=  -0.00000 Dipole=    -1.7023    -5.2541    -1.7359 Tot=     5.7894
 -----------------------------------------------------------------

              Electrostatic Properties (Atomic Units)

 -----------------------------------------------------------------
    Center     Electric         -------- Electric Field --------
               Potential          X             Y             Z
 -----------------------------------------------------------------
    1 Atom    -22.373380
    2 Atom    -59.026802
    3 Atom    -18.345603
    4 Atom    -14.712678
    5 Atom    -14.755801
    6 Atom    -14.756710
    7 Atom    -14.761224
    8 Atom    -14.758978
    9 Atom    -14.763163
   10 Atom    -14.732024
   11 Atom    -14.745693
   12 Atom    -14.752982
   13 Atom    -14.736847
   14 Atom    -14.755044
   15 Atom    -14.752125
   16 Atom    -14.744873
   17 Atom    -22.373242
   18 Atom     -1.001974
   19 Atom     -1.087784
   20 Atom     -1.096080
   21 Atom     -1.099249
   22 Atom     -1.099704
   23 Atom     -1.101923
   24 Atom     -1.088679
   25 Atom     -1.091441
   26 Atom     -1.100364
   27 Atom     -1.100255
   28 Atom     -1.097641
   29 Atom     -1.090248
   30 Atom     -1.086168
 -----------------------------------------------------------------
 Unable to Open any file for archive entry.
 1\1\GINC-NOTCH224\SP\RwB97XD\def2TZVP\C13H13N1O2S1\U1366379\17-Feb-202
 6\0\\#N Guess=Read Geom=Check Integral(Ultrafine) Density Pop=(ChelpG,
 ReadRadii) NMR wB97XD def2TZVP\\prod_5l_25\\0,1\O,0,0.3269870058,2.681
 6524459,-0.0063792865\S,0,0.0327056097,1.7441265475,-1.0721827555\N,0,
 1.4050503558,0.8041245815,-1.3117281052\C,0,1.9736541858,0.0581679746,
 -0.2502238337\C,0,2.0157707599,-1.3384346638,-0.3172604835\C,0,2.58586
 35667,-2.0710982936,0.7210849408\C,0,3.0907158565,-1.4185212482,1.8444
 38725\C,0,3.0366151959,-0.0262285344,1.9145065884\C,0,2.4943989068,0.7
 167236926,0.8693158573\C,0,-1.19110324,0.6011943532,-0.4699797709\C,0,
 -1.2381543486,0.2948897678,0.8893388032\C,0,-2.1518333067,-0.654614882
 1,1.3351752446\C,0,-3.0249948965,-1.2953797656,0.446817973\C,0,-4.0345
 579544,-2.2935447984,0.9471124212\C,0,-2.9593841472,-0.9607524306,-0.9
 119925982\C,0,-2.0479335538,-0.0182456832,-1.3776184721\O,0,-0.3493898
 742,2.1723995969,-2.404181344\H,0,1.3329131853,0.3165204902,-2.2005062
 01\H,0,1.5945625963,-1.8504616078,-1.186171078\H,0,2.6222347231,-3.160
 5764278,0.655382054\H,0,3.5290539743,-1.9933881915,2.6626168342\H,0,3.
 4370744552,0.4928561896,2.7879915307\H,0,2.459355301,1.8054673734,0.90
 75745763\H,0,-0.567283979,0.8004715644,1.5856537159\H,0,-2.1889368065,
 -0.9013729819,2.3990853711\H,0,-4.2937992562,-3.0279834736,0.171750823
 4\H,0,-3.6610697051,-2.8364505035,1.8267890485\H,0,-4.9652739315,-1.78
 38631176,1.2444628801\H,0,-3.6375168148,-1.4448624193,-1.6192714002\H,
 0,-2.0035838634,0.2518744454,-2.4343720587\\Version=ES64L-G16RevC.01\S
 tate=1-A\HF=-1106.6304777\RMSD=3.939e-09\Dipole=-0.4582038,-2.2064693,
 0.6337126\Quadrupole=4.3896493,-6.6695212,2.2798719,2.7538759,1.192543
 1,4.0254719\PG=C01 [X(C13H13N1O2S1)]\\@
 The archive entry for this job was punched.


 TO SEE A WORLD IN A GRAIN OF SAND
 AND A HEAVEN IN A WILD FLOWER
 HOLD INFINITY IN THE PALM OF YOUR HAND
 AND ETERNITY IN AN HOUR

                       -- WILLIAM BLAKE
 Job cpu time:       0 days  1 hours 50 minutes 51.5 seconds.
 Elapsed time:       0 days  0 hours 14 minutes 17.4 seconds.
 File lengths (MBytes):  RWF=    226 Int=      0 D2E=      0 Chk=     34 Scr=      2
 Normal termination of Gaussian 16 at Tue Feb 17 17:26:48 2026.
