 Entering Gaussian System, Link 0=g16
 Input=prod_5l_13.com
 Output=prod_5l_13.log
 Initial command:
 /uufs/chpc.utah.edu/sys/installdir/gaussian16/C01/AVX/g16/l1.exe "/scratch/general/vast/u1366379/GAUSSSCRDIR/11028687-notchpeak.peaks/Gau-2242937.inp" -scrdir="/scratch/general/vast/u1366379/GAUSSSCRDIR/11028687-notchpeak.peaks/"
 Entering Link 1 = /uufs/chpc.utah.edu/sys/installdir/gaussian16/C01/AVX/g16/l1.exe PID=   2242939.
  
 Copyright (c) 1988-2019, Gaussian, Inc.  All Rights Reserved.
  
 This is part of the Gaussian(R) 16 program.  It is based on
 the Gaussian(R) 09 system (copyright 2009, Gaussian, Inc.),
 the Gaussian(R) 03 system (copyright 2003, Gaussian, Inc.),
 the Gaussian(R) 98 system (copyright 1998, Gaussian, Inc.),
 the Gaussian(R) 94 system (copyright 1995, Gaussian, Inc.),
 the Gaussian 92(TM) system (copyright 1992, Gaussian, Inc.),
 the Gaussian 90(TM) system (copyright 1990, Gaussian, Inc.),
 the Gaussian 88(TM) system (copyright 1988, Gaussian, Inc.),
 the Gaussian 86(TM) system (copyright 1986, Carnegie Mellon
 University), and the Gaussian 82(TM) system (copyright 1983,
 Carnegie Mellon University). Gaussian is a federally registered
 trademark of Gaussian, Inc.
  
 This software contains proprietary and confidential information,
 including trade secrets, belonging to Gaussian, Inc.
  
 This software is provided under written license and may be
 used, copied, transmitted, or stored only in accord with that
 written license.
  
 The following legend is applicable only to US Government
 contracts under FAR:
  
                    RESTRICTED RIGHTS LEGEND
  
 Use, reproduction and disclosure by the US Government is
 subject to restrictions as set forth in subparagraphs (a)
 and (c) of the Commercial Computer Software - Restricted
 Rights clause in FAR 52.227-19.
  
 Gaussian, Inc.
 340 Quinnipiac St., Bldg. 40, Wallingford CT 06492
  
  
 ---------------------------------------------------------------
 Warning -- This program may not be used in any manner that
 competes with the business of Gaussian, Inc. or will provide
 assistance to any competitor of Gaussian, Inc.  The licensee
 of this program is prohibited from giving any competitor of
 Gaussian, Inc. access to this program.  By using this program,
 the user acknowledges that Gaussian, Inc. is engaged in the
 business of creating and licensing software in the field of
 computational chemistry and represents and warrants to the
 licensee that it is not a competitor of Gaussian, Inc. and that
 it will not use this program in any manner prohibited above.
 ---------------------------------------------------------------
  

 Cite this work as:
 Gaussian 16, Revision C.01,
 M. J. Frisch, G. W. Trucks, H. B. Schlegel, G. E. Scuseria, 
 M. A. Robb, J. R. Cheeseman, G. Scalmani, V. Barone, 
 G. A. Petersson, H. Nakatsuji, X. Li, M. Caricato, A. V. Marenich, 
 J. Bloino, B. G. Janesko, R. Gomperts, B. Mennucci, H. P. Hratchian, 
 J. V. Ortiz, A. F. Izmaylov, J. L. Sonnenberg, D. Williams-Young, 
 F. Ding, F. Lipparini, F. Egidi, J. Goings, B. Peng, A. Petrone, 
 T. Henderson, D. Ranasinghe, V. G. Zakrzewski, J. Gao, N. Rega, 
 G. Zheng, W. Liang, M. Hada, M. Ehara, K. Toyota, R. Fukuda, 
 J. Hasegawa, M. Ishida, T. Nakajima, Y. Honda, O. Kitao, H. Nakai, 
 T. Vreven, K. Throssell, J. A. Montgomery, Jr., J. E. Peralta, 
 F. Ogliaro, M. J. Bearpark, J. J. Heyd, E. N. Brothers, K. N. Kudin, 
 V. N. Staroverov, T. A. Keith, R. Kobayashi, J. Normand, 
 K. Raghavachari, A. P. Rendell, J. C. Burant, S. S. Iyengar, 
 J. Tomasi, M. Cossi, J. M. Millam, M. Klene, C. Adamo, R. Cammi, 
 J. W. Ochterski, R. L. Martin, K. Morokuma, O. Farkas, 
 J. B. Foresman, and D. J. Fox, Gaussian, Inc., Wallingford CT, 2019.
 
 ******************************************
 Gaussian 16:  ES64L-G16RevC.01  3-Jul-2019
                17-Feb-2026 
 ******************************************
 %NProcShared=8
 Will use up to    8 processors via shared memory.
 %Mem=8GB
 %chk=prod_5l_13.chk
 ------------------------------------------------------
 #N OPT FREQ=NORAMAN Integral(Ultrafine) wB97XD def2SVP
 ------------------------------------------------------
 1/18=20,19=15,26=4,38=1/1,3;
 2/9=110,12=2,17=6,18=5,40=1/2;
 3/5=43,7=101,11=2,25=1,30=1,71=1,74=-58,75=-5/1,2,3;
 4//1;
 5/5=2,38=5/2;
 6/7=2,8=2,9=2,10=2,28=1/1;
 7//1,2,3,16;
 1/18=20,19=15,26=4/3(2);
 2/9=110/2;
 99//99;
 2/9=110/2;
 3/5=43,7=101,11=2,25=1,30=1,71=1,74=-58,75=-5/1,2,3;
 4/5=5,16=3,69=1/1;
 5/5=2,38=5/2;
 7//1,2,3,16;
 1/18=20,19=15,26=4/3(-5);
 2/9=110/2;
 6/7=2,8=2,9=2,10=2,19=2,28=1/1;
 99/9=1/99;
 ----------
 prod_5l_13
 ----------
 Symbolic Z-matrix:
 Charge =  0 Multiplicity = 1
 O                     0.43143   1.1443    1.83302 
 S                     0.01867   1.39091   0.41228 
 N                     0.95203   0.61262  -0.79075 
 C                     2.12472  -0.08176  -0.49194 
 C                     2.50881  -0.42409   0.80928 
 C                     3.66134  -1.13305   1.04807 
 C                     4.46593  -1.52221  -0.00379 
 C                     4.11113  -1.19597  -1.29753 
 C                     2.95834  -0.48681  -1.54074 
 C                    -1.46859   0.41869   0.15524 
 C                    -2.63135   1.03991  -0.23153 
 C                    -3.77686   0.29576  -0.42858 
 C                    -3.76434  -1.0796   -0.24562 
 C                    -5.00478  -1.88026  -0.4299 
 C                    -2.58263  -1.6882    0.15267 
 C                    -1.43893  -0.94115   0.34882 
 O                    -0.2478    2.7748   -0.10436 
 H                     1.01591   1.29641  -1.51784 
 H                     1.89615  -0.10156   1.63015 
 H                     3.94025  -1.38037   2.05921 
 H                     5.37038  -2.07671   0.18462 
 H                     4.73922  -1.49874  -2.11913 
 H                     2.67542  -0.23791  -2.54835 
 H                    -2.63137   2.10822  -0.37483 
 H                    -4.69129   0.78049  -0.72408 
 H                    -4.77328  -2.89486  -0.75528 
 H                    -5.56498  -1.94499   0.50325 
 H                    -5.65407  -1.43192  -1.18242 
 H                    -2.56551  -2.75268   0.31102 
 H                    -0.51892  -1.41046   0.65526 
 

 GradGradGradGradGradGradGradGradGradGradGradGradGradGradGradGradGradGrad
 Berny optimization.
 Initialization pass.
                           ----------------------------
                           !    Initial Parameters    !
                           ! (Angstroms and Degrees)  !
 --------------------------                            --------------------------
 ! Name  Definition              Value          Derivative Info.                !
 --------------------------------------------------------------------------------
 ! R1    R(1,2)                  1.4999         estimate D2E/DX2                !
 ! R2    R(2,3)                  1.71           estimate D2E/DX2                !
 ! R3    R(2,10)                 1.7953         estimate D2E/DX2                !
 ! R4    R(2,17)                 1.501          estimate D2E/DX2                !
 ! R5    R(3,4)                  1.3952         estimate D2E/DX2                !
 ! R6    R(3,18)                 1.0002         estimate D2E/DX2                !
 ! R7    R(4,5)                  1.3992         estimate D2E/DX2                !
 ! R8    R(4,9)                  1.3996         estimate D2E/DX2                !
 ! R9    R(5,6)                  1.374          estimate D2E/DX2                !
 ! R10   R(5,19)                 1.0739         estimate D2E/DX2                !
 ! R11   R(6,7)                  1.3803         estimate D2E/DX2                !
 ! R12   R(6,20)                 1.0777         estimate D2E/DX2                !
 ! R13   R(7,8)                  1.3806         estimate D2E/DX2                !
 ! R14   R(7,21)                 1.0775         estimate D2E/DX2                !
 ! R15   R(8,9)                  1.3751         estimate D2E/DX2                !
 ! R16   R(8,22)                 1.0776         estimate D2E/DX2                !
 ! R17   R(9,23)                 1.0758         estimate D2E/DX2                !
 ! R18   R(10,11)                1.3739         estimate D2E/DX2                !
 ! R19   R(10,16)                1.3739         estimate D2E/DX2                !
 ! R20   R(11,12)                1.3801         estimate D2E/DX2                !
 ! R21   R(11,24)                1.0779         estimate D2E/DX2                !
 ! R22   R(12,13)                1.3875         estimate D2E/DX2                !
 ! R23   R(12,25)                1.0763         estimate D2E/DX2                !
 ! R24   R(13,14)                1.4879         estimate D2E/DX2                !
 ! R25   R(13,15)                1.3876         estimate D2E/DX2                !
 ! R26   R(14,26)                1.0904         estimate D2E/DX2                !
 ! R27   R(14,27)                1.0903         estimate D2E/DX2                !
 ! R28   R(14,28)                1.0904         estimate D2E/DX2                !
 ! R29   R(15,16)                1.3801         estimate D2E/DX2                !
 ! R30   R(15,29)                1.0763         estimate D2E/DX2                !
 ! R31   R(16,30)                1.0773         estimate D2E/DX2                !
 ! A1    A(1,2,3)              116.1902         estimate D2E/DX2                !
 ! A2    A(1,2,10)             105.9351         estimate D2E/DX2                !
 ! A3    A(1,2,17)             121.7671         estimate D2E/DX2                !
 ! A4    A(3,2,10)              96.0252         estimate D2E/DX2                !
 ! A5    A(3,2,17)             105.9244         estimate D2E/DX2                !
 ! A6    A(10,2,17)            107.6335         estimate D2E/DX2                !
 ! A7    A(2,3,4)              122.3171         estimate D2E/DX2                !
 ! A8    A(2,3,18)             103.5995         estimate D2E/DX2                !
 ! A9    A(4,3,18)             116.2488         estimate D2E/DX2                !
 ! A10   A(3,4,5)              123.4795         estimate D2E/DX2                !
 ! A11   A(3,4,9)              118.9567         estimate D2E/DX2                !
 ! A12   A(5,4,9)              117.5519         estimate D2E/DX2                !
 ! A13   A(4,5,6)              121.2044         estimate D2E/DX2                !
 ! A14   A(4,5,19)             118.7354         estimate D2E/DX2                !
 ! A15   A(6,5,19)             120.0442         estimate D2E/DX2                !
 ! A16   A(5,6,7)              120.131          estimate D2E/DX2                !
 ! A17   A(5,6,20)             119.9048         estimate D2E/DX2                !
 ! A18   A(7,6,20)             119.9632         estimate D2E/DX2                !
 ! A19   A(6,7,8)              119.8467         estimate D2E/DX2                !
 ! A20   A(6,7,21)             120.0751         estimate D2E/DX2                !
 ! A21   A(8,7,21)             120.078          estimate D2E/DX2                !
 ! A22   A(7,8,9)              120.2009         estimate D2E/DX2                !
 ! A23   A(7,8,22)             119.8868         estimate D2E/DX2                !
 ! A24   A(9,8,22)             119.9123         estimate D2E/DX2                !
 ! A25   A(4,9,8)              121.0651         estimate D2E/DX2                !
 ! A26   A(4,9,23)             118.5723         estimate D2E/DX2                !
 ! A27   A(8,9,23)             120.3611         estimate D2E/DX2                !
 ! A28   A(2,10,11)            119.7723         estimate D2E/DX2                !
 ! A29   A(2,10,16)            119.8637         estimate D2E/DX2                !
 ! A30   A(11,10,16)           120.3638         estimate D2E/DX2                !
 ! A31   A(10,11,12)           119.924          estimate D2E/DX2                !
 ! A32   A(10,11,24)           119.0516         estimate D2E/DX2                !
 ! A33   A(12,11,24)           121.0243         estimate D2E/DX2                !
 ! A34   A(11,12,13)           120.54           estimate D2E/DX2                !
 ! A35   A(11,12,25)           120.1011         estimate D2E/DX2                !
 ! A36   A(13,12,25)           119.3587         estimate D2E/DX2                !
 ! A37   A(12,13,14)           120.6342         estimate D2E/DX2                !
 ! A38   A(12,13,15)           118.7037         estimate D2E/DX2                !
 ! A39   A(14,13,15)           120.6325         estimate D2E/DX2                !
 ! A40   A(13,14,26)           111.1428         estimate D2E/DX2                !
 ! A41   A(13,14,27)           110.7508         estimate D2E/DX2                !
 ! A42   A(13,14,28)           111.1414         estimate D2E/DX2                !
 ! A43   A(26,14,27)           108.0137         estimate D2E/DX2                !
 ! A44   A(26,14,28)           107.6436         estimate D2E/DX2                !
 ! A45   A(27,14,28)           108.0068         estimate D2E/DX2                !
 ! A46   A(13,15,16)           120.606          estimate D2E/DX2                !
 ! A47   A(13,15,29)           119.3104         estimate D2E/DX2                !
 ! A48   A(16,15,29)           120.0834         estimate D2E/DX2                !
 ! A49   A(10,16,15)           119.8589         estimate D2E/DX2                !
 ! A50   A(10,16,30)           119.3211         estimate D2E/DX2                !
 ! A51   A(15,16,30)           120.8199         estimate D2E/DX2                !
 ! D1    D(1,2,3,4)             -7.4487         estimate D2E/DX2                !
 ! D2    D(1,2,3,18)          -141.1946         estimate D2E/DX2                !
 ! D3    D(10,2,3,4)          -118.5227         estimate D2E/DX2                !
 ! D4    D(10,2,3,18)          107.7313         estimate D2E/DX2                !
 ! D5    D(17,2,3,4)           131.1807         estimate D2E/DX2                !
 ! D6    D(17,2,3,18)           -2.5653         estimate D2E/DX2                !
 ! D7    D(1,2,10,11)          121.6193         estimate D2E/DX2                !
 ! D8    D(1,2,10,16)          -58.2459         estimate D2E/DX2                !
 ! D9    D(3,2,10,11)         -118.93           estimate D2E/DX2                !
 ! D10   D(3,2,10,16)           61.2049         estimate D2E/DX2                !
 ! D11   D(17,2,10,11)         -10.0828         estimate D2E/DX2                !
 ! D12   D(17,2,10,16)         170.0521         estimate D2E/DX2                !
 ! D13   D(2,3,4,5)             12.58           estimate D2E/DX2                !
 ! D14   D(2,3,4,9)           -168.7121         estimate D2E/DX2                !
 ! D15   D(18,3,4,5)           141.0543         estimate D2E/DX2                !
 ! D16   D(18,3,4,9)           -40.2379         estimate D2E/DX2                !
 ! D17   D(3,4,5,6)            178.6581         estimate D2E/DX2                !
 ! D18   D(3,4,5,19)            -2.7982         estimate D2E/DX2                !
 ! D19   D(9,4,5,6)             -0.0666         estimate D2E/DX2                !
 ! D20   D(9,4,5,19)           178.477          estimate D2E/DX2                !
 ! D21   D(3,4,9,8)           -178.7321         estimate D2E/DX2                !
 ! D22   D(3,4,9,23)             0.8235         estimate D2E/DX2                !
 ! D23   D(5,4,9,8)              0.0523         estimate D2E/DX2                !
 ! D24   D(5,4,9,23)           179.6079         estimate D2E/DX2                !
 ! D25   D(4,5,6,7)             -0.001          estimate D2E/DX2                !
 ! D26   D(4,5,6,20)           179.6315         estimate D2E/DX2                !
 ! D27   D(19,5,6,7)          -178.5258         estimate D2E/DX2                !
 ! D28   D(19,5,6,20)            1.1067         estimate D2E/DX2                !
 ! D29   D(5,6,7,8)              0.085          estimate D2E/DX2                !
 ! D30   D(5,6,7,21)           179.8976         estimate D2E/DX2                !
 ! D31   D(20,6,7,8)          -179.5473         estimate D2E/DX2                !
 ! D32   D(20,6,7,21)            0.2653         estimate D2E/DX2                !
 ! D33   D(6,7,8,9)             -0.0992         estimate D2E/DX2                !
 ! D34   D(6,7,8,22)           179.9486         estimate D2E/DX2                !
 ! D35   D(21,7,8,9)          -179.9118         estimate D2E/DX2                !
 ! D36   D(21,7,8,22)            0.1361         estimate D2E/DX2                !
 ! D37   D(7,8,9,4)              0.0296         estimate D2E/DX2                !
 ! D38   D(7,8,9,23)          -179.5181         estimate D2E/DX2                !
 ! D39   D(22,8,9,4)           179.9818         estimate D2E/DX2                !
 ! D40   D(22,8,9,23)            0.4341         estimate D2E/DX2                !
 ! D41   D(2,10,11,12)        -179.9286         estimate D2E/DX2                !
 ! D42   D(2,10,11,24)          -0.0241         estimate D2E/DX2                !
 ! D43   D(16,10,11,12)         -0.0641         estimate D2E/DX2                !
 ! D44   D(16,10,11,24)        179.8404         estimate D2E/DX2                !
 ! D45   D(2,10,16,15)         179.9269         estimate D2E/DX2                !
 ! D46   D(2,10,16,30)           0.0665         estimate D2E/DX2                !
 ! D47   D(11,10,16,15)          0.0625         estimate D2E/DX2                !
 ! D48   D(11,10,16,30)       -179.7979         estimate D2E/DX2                !
 ! D49   D(10,11,12,13)         -0.3167         estimate D2E/DX2                !
 ! D50   D(10,11,12,25)        179.5188         estimate D2E/DX2                !
 ! D51   D(24,11,12,13)        179.7807         estimate D2E/DX2                !
 ! D52   D(24,11,12,25)         -0.3838         estimate D2E/DX2                !
 ! D53   D(11,12,13,14)        178.7195         estimate D2E/DX2                !
 ! D54   D(11,12,13,15)          0.6854         estimate D2E/DX2                !
 ! D55   D(25,12,13,14)         -1.1173         estimate D2E/DX2                !
 ! D56   D(25,12,13,15)       -179.1514         estimate D2E/DX2                !
 ! D57   D(12,13,14,26)        150.8874         estimate D2E/DX2                !
 ! D58   D(12,13,14,27)        -89.0406         estimate D2E/DX2                !
 ! D59   D(12,13,14,28)         31.0218         estimate D2E/DX2                !
 ! D60   D(15,13,14,26)        -31.1165         estimate D2E/DX2                !
 ! D61   D(15,13,14,27)         88.9555         estimate D2E/DX2                !
 ! D62   D(15,13,14,28)       -150.9821         estimate D2E/DX2                !
 ! D63   D(12,13,15,16)         -0.6874         estimate D2E/DX2                !
 ! D64   D(12,13,15,29)        179.138          estimate D2E/DX2                !
 ! D65   D(14,13,15,16)       -178.7215         estimate D2E/DX2                !
 ! D66   D(14,13,15,29)          1.1038         estimate D2E/DX2                !
 ! D67   D(13,15,16,10)          0.3201         estimate D2E/DX2                !
 ! D68   D(13,15,16,30)       -179.8217         estimate D2E/DX2                !
 ! D69   D(29,15,16,10)       -179.5039         estimate D2E/DX2                !
 ! D70   D(29,15,16,30)          0.3543         estimate D2E/DX2                !
 --------------------------------------------------------------------------------
 Trust Radius=3.00D-01 FncErr=1.00D-07 GrdErr=1.00D-06 EigMax=2.50D+02 EigMin=1.00D-04
 Number of steps in this run=    162 maximum allowed number of steps=    180.
 GradGradGradGradGradGradGradGradGradGradGradGradGradGradGradGradGradGrad

                          Input orientation:                          
 ---------------------------------------------------------------------
 Center     Atomic      Atomic             Coordinates (Angstroms)
 Number     Number       Type             X           Y           Z
 ---------------------------------------------------------------------
      1          8           0        0.431430    1.144300    1.833020
      2         16           0        0.018670    1.390910    0.412280
      3          7           0        0.952030    0.612620   -0.790750
      4          6           0        2.124720   -0.081760   -0.491940
      5          6           0        2.508810   -0.424090    0.809280
      6          6           0        3.661340   -1.133050    1.048070
      7          6           0        4.465930   -1.522210   -0.003790
      8          6           0        4.111130   -1.195970   -1.297530
      9          6           0        2.958340   -0.486810   -1.540740
     10          6           0       -1.468590    0.418690    0.155240
     11          6           0       -2.631350    1.039910   -0.231530
     12          6           0       -3.776860    0.295760   -0.428580
     13          6           0       -3.764340   -1.079600   -0.245620
     14          6           0       -5.004780   -1.880260   -0.429900
     15          6           0       -2.582630   -1.688200    0.152670
     16          6           0       -1.438930   -0.941150    0.348820
     17          8           0       -0.247800    2.774800   -0.104360
     18          1           0        1.015910    1.296410   -1.517840
     19          1           0        1.896150   -0.101560    1.630150
     20          1           0        3.940250   -1.380370    2.059210
     21          1           0        5.370380   -2.076710    0.184620
     22          1           0        4.739220   -1.498740   -2.119130
     23          1           0        2.675420   -0.237910   -2.548350
     24          1           0       -2.631370    2.108220   -0.374830
     25          1           0       -4.691290    0.780490   -0.724080
     26          1           0       -4.773280   -2.894860   -0.755280
     27          1           0       -5.564980   -1.944990    0.503250
     28          1           0       -5.654070   -1.431920   -1.182420
     29          1           0       -2.565510   -2.752680    0.311020
     30          1           0       -0.518920   -1.410460    0.655260
 ---------------------------------------------------------------------
                    Distance matrix (angstroms):
                    1          2          3          4          5
     1  O    0.000000
     2  S    1.499896   0.000000
     3  N    2.727247   1.710023   0.000000
     4  C    3.126642   2.724301   1.395225   0.000000
     5  C    2.797034   3.106868   2.461387   1.399246   0.000000
     6  C    4.029242   4.477013   3.710658   2.416204   1.374034
     7  C    5.173136   5.332683   4.186203   2.791854   2.386895
     8  C    5.368184   5.134552   3.675287   2.415836   2.757150
     9  C    4.519740   3.997722   2.407594   1.399632   2.393450
    10  C    2.636576   1.795334   2.606129   3.685264   4.117980
    11  C    3.695116   2.749600   3.651837   4.893481   5.444982
    12  C    4.852274   4.038867   4.753311   5.913982   6.446715
    13  C    5.183721   4.565897   5.040329   5.978075   6.394913
    14  C    6.619754   6.053501   6.467476   7.353110   7.753066
    15  C    4.464436   4.039193   4.321763   5.015508   5.286953
    16  C    3.170205   2.750841   3.070751   3.760988   4.007995
    17  O    2.621703   1.501025   2.566271   3.733498   4.320478
    18  H    3.404852   2.174576   1.000155   2.044819   3.256433
    19  H    1.933579   2.689908   2.694842   2.134456   1.073874
    20  H    4.328619   5.076530   4.585165   3.389824   2.127397
    21  H    6.122528   6.380989   5.263617   3.869350   3.363025
    22  H    6.415778   6.086190   4.534892   3.389866   3.834734
    23  H    5.112964   4.298454   2.604349   2.134590   3.366913
    24  H    3.896728   2.856009   3.905197   5.237377   5.851167
    25  H    5.737018   4.883406   5.646210   6.874253   7.459467
    26  H    7.078355   6.534050   6.714376   7.454212   7.847381
    27  H    6.875241   6.504894   7.119496   7.974554   8.221489
    28  H    7.263821   6.533867   6.926334   7.925230   8.462576
    29  H    5.146318   4.884422   4.991215   5.456814   5.605294
    30  H    2.969357   2.862816   2.889203   3.173381   3.188071
                    6          7          8          9         10
     6  C    0.000000
     7  C    1.380297   0.000000
     8  C    2.389165   1.380608   0.000000
     9  C    2.759306   2.388953   1.375130   0.000000
    10  C    5.433344   6.245872   5.987566   4.826385   0.000000
    11  C    6.779165   7.549020   7.183074   5.940500   1.373869
    12  C    7.716788   8.451571   8.074696   6.871116   2.384128
    13  C    7.537719   8.245710   7.946262   6.871911   2.770565
    14  C    8.822945   9.487050   9.182638   8.160083   4.258192
    15  C    6.332227   7.052250   6.866716   5.917206   2.383291
    16  C    5.151556   5.943849   5.794702   4.807582   1.373870
    17  O    5.646305   6.379158   6.015891   4.793811   2.666266
    18  H    4.414122   4.705274   3.980060   2.636936   3.121270
    19  H    2.125720   3.360324   3.830820   3.366186   3.710457
    20  H    1.077665   2.133642   3.366141   3.836957   6.009764
    21  H    2.134680   1.077496   2.134990   3.364905   7.280068
    22  H    3.365518   2.133050   1.077587   2.128396   6.883764
    23  H    3.835042   3.366027   2.131594   1.075766   4.991327
    24  H    7.220019   7.980561   7.565075   6.272032   2.118382
    25  H    8.750347   9.469737   9.039792   7.796783   3.360044
    26  H    8.803344   9.370801   9.061623   8.135945   4.767561
    27  H    9.277988  10.052611   9.870711   8.885447   4.742205
    28  H    9.583385  10.188804   9.768728   8.671518   4.767844
    29  H    6.476118   7.145230   7.041896   6.251088   3.359329
    30  H    4.207830   5.029470   5.029588   4.215078   2.120774
                   11         12         13         14         15
    11  C    0.000000
    12  C    1.380138   0.000000
    13  C    2.403370   1.387532   0.000000
    14  C    3.768277   2.498570   1.487853   0.000000
    15  C    2.755461   2.387495   1.387612   2.498617   0.000000
    16  C    2.383961   2.756849   2.404175   3.768769   1.380075
    17  O    2.950818   4.324930   5.219426   6.663664   5.043398
    18  H    3.875937   5.015818   5.487691   6.893733   4.964674
    19  H    5.026635   6.048080   6.042865   7.418249   4.975926
    20  H    7.368254   8.279631   8.047572   9.298340   6.802765
    21  H    8.597336   9.469774   9.199046  10.395199   7.962558
    22  H    8.020790   8.865766   8.717583   9.896696   7.668537
    23  H    5.929780   6.812499   6.890683   8.134532   6.086538
    24  H    1.077878   2.144772   3.385633   4.641560   3.833202
    25  H    2.133836   1.076320   2.132626   2.695257   3.362970
    26  H    4.510498   3.358518   2.138430   1.090357   2.660705
    27  H    4.249202   3.014406   2.133544   1.090313   3.013845
    28  H    4.018827   2.660276   2.138411   1.090354   3.358852
    29  H    3.831766   3.362642   2.132191   2.694460   1.076330
    30  H    3.354560   3.834067   3.384347   4.639097   2.142110
                   16         17         18         19         20
    16  C    0.000000
    17  O    3.928415   0.000000
    18  H    3.810162   2.404272   0.000000
    19  H    3.670079   3.984783   3.555135   0.000000
    20  H    5.661619   6.283807   5.339682   2.449039   0.000000
    21  H    6.905299   7.428634   5.765216   4.249829   2.458505
    22  H    6.676168   6.869702   4.694406   4.908387   4.255689
    23  H    5.080946   4.857440   2.483961   4.252730   4.912700
    24  H    3.353243   2.489757   3.907449   5.422316   7.828218
    25  H    3.833145   4.909779   5.785185   7.050871   9.323063
    26  H    4.019193   7.283455   7.187695   7.614072   9.281198
    27  H    4.249215   7.135686   7.609178   7.767664   9.648275
    28  H    4.511425   6.934440   7.214217   8.166164  10.127280
    29  H    2.133601   6.008107   5.706700   5.354900   6.874905
    30  H    1.077300   4.262268   3.795420   2.914823   4.675059
                   21         22         23         24         25
    21  H    0.000000
    22  H    2.457575   0.000000
    23  H    4.255951   2.456256   0.000000
    24  H    9.047355   8.389180   6.196010   0.000000
    25  H   10.498882   9.801815   7.657252   2.475503   0.000000
    26  H   10.219913   9.710659   8.109107   5.455578   3.676397
    27  H   10.940794  10.642018   8.951568   5.079922   3.114147
    28  H   11.127581  10.435630   8.524777   4.724564   2.455968
    29  H    7.965630   7.799812   6.478226   4.909488   4.251313
    30  H    5.945523   5.945845   4.673521   4.231387   4.910347
                   26         27         28         29         30
    26  H    0.000000
    27  H    1.764352   0.000000
    28  H    1.760237   1.764274   0.000000
    29  H    2.455903   3.112256   3.676136   0.000000
    30  H    4.721509   5.076569   5.454108   2.471555   0.000000
 Stoichiometry    C13H13NO2S
 Framework group  C1[X(C13H13NO2S)]
 Deg. of freedom    84
 Full point group                 C1      NOp   1
 Largest Abelian subgroup         C1      NOp   1
 Largest concise Abelian subgroup C1      NOp   1
                         Standard orientation:                         
 ---------------------------------------------------------------------
 Center     Atomic      Atomic             Coordinates (Angstroms)
 Number     Number       Type             X           Y           Z
 ---------------------------------------------------------------------
      1          8           0        0.439892    1.490235    1.619012
      2         16           0        0.023463    1.486976    0.178087
      3          7           0        0.968043    0.529950   -0.878344
      4          6           0        2.150804   -0.086880   -0.469380
      5          6           0        2.539961   -0.198584    0.870011
      6          6           0        3.702773   -0.840225    1.222337
      7          6           0        4.512905   -1.390057    0.249408
      8          6           0        4.153272   -1.292522   -1.079964
      9          6           0        2.990197   -0.651435   -1.436679
     10          6           0       -1.449408    0.463926    0.092983
     11          6           0       -2.621174    0.993922   -0.390324
     12          6           0       -3.755670    0.210711   -0.455750
     13          6           0       -3.722984   -1.113553   -0.042829
     14          6           0       -4.951570   -1.951664   -0.085869
     15          6           0       -2.532454   -1.628890    0.449649
     16          6           0       -1.399811   -0.842999    0.513701
     17          8           0       -0.263295    2.759536   -0.564501
     18          1           0        1.021845    1.081741   -1.710775
     19          1           0        1.922697    0.249281    1.626059
     20          1           0        3.985348   -0.908886    2.260026
     21          1           0        5.425397   -1.891584    0.526587
     22          1           0        4.785674   -1.720815   -1.840113
     23          1           0        2.703589   -0.580678   -2.471146
     24          1           0       -2.636860    2.022482   -0.712254
     25          1           0       -4.677126    0.625221   -0.826649
     26          1           0       -4.705250   -3.003235   -0.235539
     27          1           0       -5.510696   -1.865687    0.846209
     28          1           0       -5.607414   -1.646498   -0.901722
     29          1           0       -2.499726   -2.650883    0.785720
     30          1           0       -0.473001   -1.240382    0.892760
 ---------------------------------------------------------------------
 Rotational constants (GHZ):           0.8352422           0.2435195           0.2146335
 Standard basis: def2SVP (5D, 7F)
 There are   324 symmetry adapted cartesian basis functions of A   symmetry.
 There are   307 symmetry adapted basis functions of A   symmetry.
   307 basis functions,   528 primitive gaussians,   324 cartesian basis functions
    65 alpha electrons       65 beta electrons
       nuclear repulsion energy      1301.6684724457 Hartrees.
 NAtoms=   30 NActive=   30 NUniq=   30 SFac= 1.00D+00 NAtFMM=   60 NAOKFM=F Big=F
 Integral buffers will be    131072 words long.
 Raffenetti 2 integral format.
 Two-electron integral symmetry is turned on.
 Nuclear repulsion after empirical dispersion term =     1301.6497679054 Hartrees.
 One-electron integrals computed using PRISM.
   1 Symmetry operations used in ECPInt.
 ECPInt:  NShTT=   10296 NPrTT=   38220 LenC2=    9302 LenP2D=   24441.
 LDataN:  DoStor=T MaxTD1= 4 Len=   56
 NBasis=   307 RedAO= T EigKep=  2.42D-04  NBF=   307
 NBsUse=   307 1.00D-06 EigRej= -1.00D+00 NBFU=   307
 ExpMin= 1.22D-01 ExpMax= 9.18D+03 ExpMxC= 1.38D+03 IAcc=3 IRadAn=         5 AccDes= 0.00D+00
 Harris functional with IExCor= 4639 and IRadAn=       5 diagonalized for initial guess.
 HarFok:  IExCor= 4639 AccDes= 0.00D+00 IRadAn=         5 IDoV= 1 UseB2=F ITyADJ=14
 ICtDFT=  3500011 ScaDFX=  1.000000  1.000000  1.000000  1.000000
 FoFCou: FMM=F IPFlag=           0 FMFlag=      100000 FMFlg1=           0
         NFxFlg=           0 DoJE=T BraDBF=F KetDBF=T FulRan=T
         wScrn=  0.000000 ICntrl=       500 IOpCl=  0 I1Cent=   200000004 NGrid=           0
         NMat0=    1 NMatS0=      1 NMatT0=    0 NMatD0=    1 NMtDS0=    0 NMtDT0=    0
 Petite list used in FoFCou.
 Requested convergence on RMS density matrix=1.00D-08 within 128 cycles.
 Requested convergence on MAX density matrix=1.00D-06.
 Requested convergence on             energy=1.00D-06.
 No special actions if energy rises.
 Integral accuracy reduced to 1.0D-05 until final iterations.
 Initial convergence to 1.0D-05 achieved.  Increase integral accuracy.
 SCF Done:  E(RwB97XD) =  -1105.64059804     A.U. after   16 cycles
            NFock= 16  Conv=0.32D-08     -V/T= 2.0071

 **********************************************************************

            Population analysis using the SCF Density.

 **********************************************************************

 Orbital symmetries:
       Occupied  (A) (A) (A) (A) (A) (A) (A) (A) (A) (A) (A) (A)
                 (A) (A) (A) (A) (A) (A) (A) (A) (A) (A) (A) (A)
                 (A) (A) (A) (A) (A) (A) (A) (A) (A) (A) (A) (A)
                 (A) (A) (A) (A) (A) (A) (A) (A) (A) (A) (A) (A)
                 (A) (A) (A) (A) (A) (A) (A) (A) (A) (A) (A) (A)
                 (A) (A) (A) (A) (A)
       Virtual   (A) (A) (A) (A) (A) (A) (A) (A) (A) (A) (A) (A)
                 (A) (A) (A) (A) (A) (A) (A) (A) (A) (A) (A) (A)
                 (A) (A) (A) (A) (A) (A) (A) (A) (A) (A) (A) (A)
                 (A) (A) (A) (A) (A) (A) (A) (A) (A) (A) (A) (A)
                 (A) (A) (A) (A) (A) (A) (A) (A) (A) (A) (A) (A)
                 (A) (A) (A) (A) (A) (A) (A) (A) (A) (A) (A) (A)
                 (A) (A) (A) (A) (A) (A) (A) (A) (A) (A) (A) (A)
                 (A) (A) (A) (A) (A) (A) (A) (A) (A) (A) (A) (A)
                 (A) (A) (A) (A) (A) (A) (A) (A) (A) (A) (A) (A)
                 (A) (A) (A) (A) (A) (A) (A) (A) (A) (A) (A) (A)
                 (A) (A) (A) (A) (A) (A) (A) (A) (A) (A) (A) (A)
                 (A) (A) (A) (A) (A) (A) (A) (A) (A) (A) (A) (A)
                 (A) (A) (A) (A) (A) (A) (A) (A) (A) (A) (A) (A)
                 (A) (A) (A) (A) (A) (A) (A) (A) (A) (A) (A) (A)
                 (A) (A) (A) (A) (A) (A) (A) (A) (A) (A) (A) (A)
                 (A) (A) (A) (A) (A) (A) (A) (A) (A) (A) (A) (A)
                 (A) (A) (A) (A) (A) (A) (A) (A) (A) (A) (A) (A)
                 (A) (A) (A) (A) (A) (A) (A) (A) (A) (A) (A) (A)
                 (A) (A) (A) (A) (A) (A) (A) (A) (A) (A) (A) (A)
                 (A) (A) (A) (A) (A) (A) (A) (A) (A) (A) (A) (A)
                 (A) (A)
 The electronic state is 1-A.
 Alpha  occ. eigenvalues --  -89.25917 -19.26519 -19.26017 -14.49962 -10.35622
 Alpha  occ. eigenvalues --  -10.33284 -10.32440 -10.32253 -10.31979 -10.31407
 Alpha  occ. eigenvalues --  -10.31271 -10.30673 -10.30518 -10.30402 -10.30056
 Alpha  occ. eigenvalues --  -10.29549 -10.29267  -8.27690  -6.23123  -6.23030
 Alpha  occ. eigenvalues --   -6.22872  -1.20575  -1.09239  -1.05427  -0.98550
 Alpha  occ. eigenvalues --   -0.95399  -0.90180  -0.86301  -0.85140  -0.84760
 Alpha  occ. eigenvalues --   -0.81272  -0.75902  -0.72555  -0.71582  -0.70731
 Alpha  occ. eigenvalues --   -0.68086  -0.64402  -0.63849  -0.60547  -0.58948
 Alpha  occ. eigenvalues --   -0.58035  -0.56532  -0.54730  -0.53948  -0.53721
 Alpha  occ. eigenvalues --   -0.52967  -0.52759  -0.52743  -0.51450  -0.49591
 Alpha  occ. eigenvalues --   -0.48468  -0.47421  -0.46398  -0.46118  -0.44176
 Alpha  occ. eigenvalues --   -0.44126  -0.43437  -0.41261  -0.40867  -0.39611
 Alpha  occ. eigenvalues --   -0.38414  -0.35261  -0.34440  -0.33931  -0.30513
 Alpha virt. eigenvalues --    0.03010   0.04526   0.05756   0.06448   0.10332
 Alpha virt. eigenvalues --    0.13070   0.13568   0.14315   0.15432   0.15865
 Alpha virt. eigenvalues --    0.17124   0.17155   0.18765   0.19391   0.20537
 Alpha virt. eigenvalues --    0.20944   0.21374   0.22212   0.23693   0.24483
 Alpha virt. eigenvalues --    0.24881   0.25470   0.29329   0.29739   0.33517
 Alpha virt. eigenvalues --    0.35074   0.36445   0.36842   0.37492   0.38152
 Alpha virt. eigenvalues --    0.38459   0.39446   0.40057   0.41079   0.43711
 Alpha virt. eigenvalues --    0.46392   0.47568   0.47808   0.48230   0.49144
 Alpha virt. eigenvalues --    0.49414   0.51337   0.51728   0.52331   0.54192
 Alpha virt. eigenvalues --    0.54803   0.55364   0.55853   0.56463   0.57329
 Alpha virt. eigenvalues --    0.58267   0.58929   0.60266   0.60811   0.61668
 Alpha virt. eigenvalues --    0.62124   0.63365   0.63959   0.65107   0.65555
 Alpha virt. eigenvalues --    0.68033   0.69294   0.69847   0.71126   0.71549
 Alpha virt. eigenvalues --    0.72260   0.73046   0.73207   0.73657   0.74472
 Alpha virt. eigenvalues --    0.74784   0.75481   0.75964   0.76598   0.76760
 Alpha virt. eigenvalues --    0.77571   0.78357   0.78807   0.79345   0.80242
 Alpha virt. eigenvalues --    0.81413   0.82190   0.82538   0.83369   0.84115
 Alpha virt. eigenvalues --    0.84268   0.85755   0.87981   0.88644   0.90545
 Alpha virt. eigenvalues --    0.91353   0.91763   0.93634   0.95925   0.97278
 Alpha virt. eigenvalues --    0.99112   0.99418   1.00734   1.03127   1.06653
 Alpha virt. eigenvalues --    1.07917   1.10867   1.11275   1.12061   1.14408
 Alpha virt. eigenvalues --    1.15381   1.15571   1.19132   1.20381   1.23270
 Alpha virt. eigenvalues --    1.24234   1.26560   1.27094   1.27983   1.29432
 Alpha virt. eigenvalues --    1.30237   1.31446   1.31877   1.32838   1.33046
 Alpha virt. eigenvalues --    1.34452   1.35014   1.37005   1.37116   1.37842
 Alpha virt. eigenvalues --    1.38054   1.40845   1.43142   1.45352   1.54331
 Alpha virt. eigenvalues --    1.54508   1.56176   1.59867   1.61197   1.61547
 Alpha virt. eigenvalues --    1.62579   1.63799   1.71350   1.75129   1.76022
 Alpha virt. eigenvalues --    1.76483   1.77781   1.78676   1.79972   1.81254
 Alpha virt. eigenvalues --    1.82226   1.82646   1.83075   1.84079   1.84494
 Alpha virt. eigenvalues --    1.85276   1.86022   1.86297   1.87210   1.87650
 Alpha virt. eigenvalues --    1.88097   1.88756   1.90332   1.92253   1.93665
 Alpha virt. eigenvalues --    1.94130   1.94737   1.97703   1.99531   2.02998
 Alpha virt. eigenvalues --    2.04219   2.04579   2.05006   2.06397   2.08137
 Alpha virt. eigenvalues --    2.10484   2.10933   2.13322   2.14138   2.17417
 Alpha virt. eigenvalues --    2.17592   2.19837   2.20976   2.21194   2.23049
 Alpha virt. eigenvalues --    2.24684   2.25371   2.29505   2.30441   2.31959
 Alpha virt. eigenvalues --    2.33184   2.34970   2.36354   2.38328   2.38880
 Alpha virt. eigenvalues --    2.40608   2.42750   2.44114   2.44722   2.45411
 Alpha virt. eigenvalues --    2.45799   2.51831   2.54764   2.56565   2.57933
 Alpha virt. eigenvalues --    2.60118   2.60978   2.68629   2.69461   2.71564
 Alpha virt. eigenvalues --    2.71910   2.72467   2.72636   2.73605   2.74236
 Alpha virt. eigenvalues --    2.74773   2.75593   2.75930   2.78605   2.80205
 Alpha virt. eigenvalues --    2.83152   2.83443   2.84309   2.85060   2.86097
 Alpha virt. eigenvalues --    2.90733   2.94293   2.95453   2.97008   2.99750
 Alpha virt. eigenvalues --    3.00638   3.01181   3.02130   3.03221   3.04939
 Alpha virt. eigenvalues --    3.06601   3.08885   3.22884   3.23986   3.25516
 Alpha virt. eigenvalues --    3.31646   3.33633   3.34077   3.46173   3.46848
 Alpha virt. eigenvalues --    3.69907   3.78681
          Condensed to atoms (all electrons):
               1          2          3          4          5          6
     1  O    8.164815   0.387152  -0.035513  -0.001985  -0.023654   0.001663
     2  S    0.387152  13.932012   0.201924  -0.033328   0.001196  -0.000584
     3  N   -0.035513   0.201924   6.863239   0.266752  -0.082749   0.007235
     4  C   -0.001985  -0.033328   0.266752   5.187386   0.245065   0.112153
     5  C   -0.023654   0.001196  -0.082749   0.245065   5.229582   0.264109
     6  C    0.001663  -0.000584   0.007235   0.112153   0.264109   5.052752
     7  C   -0.000033   0.000011  -0.000475  -0.164666   0.090327   0.268321
     8  C   -0.000001  -0.000136   0.006835   0.112891  -0.148780   0.098081
     9  C    0.000098  -0.000036  -0.072611   0.260939   0.078036  -0.146669
    10  C   -0.057788   0.238097  -0.100136   0.007055  -0.002110  -0.000196
    11  C   -0.002232  -0.022435  -0.002490  -0.000185  -0.000067   0.000000
    12  C   -0.000087   0.002459  -0.000083  -0.000006   0.000003   0.000000
    13  C   -0.000023   0.001053  -0.000056   0.000008  -0.000004  -0.000000
    14  C   -0.000000   0.000007  -0.000000   0.000000  -0.000000   0.000000
    15  C    0.000549  -0.002064   0.000035  -0.000052   0.000038   0.000006
    16  C    0.007313  -0.041568   0.000564  -0.000137  -0.000984   0.000086
    17  O   -0.026398   0.432978  -0.046327   0.000700   0.000076   0.000004
    18  H    0.001946  -0.007883   0.324254  -0.002006   0.004050  -0.000211
    19  H    0.035397  -0.008495  -0.012120  -0.071013   0.451970  -0.053193
    20  H    0.000026   0.000000  -0.000108   0.015474  -0.068048   0.458496
    21  H    0.000000   0.000000   0.000011  -0.001482   0.014821  -0.068111
    22  H   -0.000000   0.000003  -0.000113   0.015475  -0.001859   0.013762
    23  H    0.000008  -0.000112  -0.009803  -0.081349   0.017126  -0.002244
    24  H    0.000191  -0.012690   0.000663  -0.000050   0.000002   0.000000
    25  H    0.000001  -0.000160   0.000004  -0.000000   0.000000   0.000000
    26  H    0.000000  -0.000000  -0.000000   0.000000   0.000000   0.000000
    27  H   -0.000000  -0.000000   0.000000  -0.000000  -0.000000  -0.000000
    28  H    0.000000  -0.000000  -0.000000  -0.000000   0.000000   0.000000
    29  H   -0.000002  -0.000157   0.000004  -0.000003   0.000004  -0.000000
    30  H    0.002871  -0.006757  -0.000052   0.001775   0.002253   0.000428
               7          8          9         10         11         12
     1  O   -0.000033  -0.000001   0.000098  -0.057788  -0.002232  -0.000087
     2  S    0.000011  -0.000136  -0.000036   0.238097  -0.022435   0.002459
     3  N   -0.000475   0.006835  -0.072611  -0.100136  -0.002490  -0.000083
     4  C   -0.164666   0.112891   0.260939   0.007055  -0.000185  -0.000006
     5  C    0.090327  -0.148780   0.078036  -0.002110  -0.000067   0.000003
     6  C    0.268321   0.098081  -0.146669  -0.000196   0.000000   0.000000
     7  C    5.111061   0.283376   0.086090   0.000003  -0.000000   0.000000
     8  C    0.283376   5.010920   0.307987  -0.000000   0.000000  -0.000000
     9  C    0.086090   0.307987   5.141169  -0.000877  -0.000003   0.000001
    10  C    0.000003  -0.000000  -0.000877   5.718425   0.274627   0.088278
    11  C   -0.000000   0.000000  -0.000003   0.274627   5.054843   0.264135
    12  C    0.000000  -0.000000   0.000001   0.088278   0.264135   5.114648
    13  C   -0.000000   0.000000  -0.000000  -0.184534   0.099139   0.284952
    14  C   -0.000000   0.000000   0.000000   0.000581   0.009617  -0.076971
    15  C   -0.000000   0.000000  -0.000010   0.091900  -0.122197   0.052090
    16  C   -0.000001   0.000005   0.000071   0.175610   0.051157  -0.120990
    17  O   -0.000000   0.000000  -0.000104  -0.067214   0.005523   0.001502
    18  H    0.000002   0.000230  -0.013144   0.005718   0.000720  -0.000063
    19  H    0.013747  -0.002297   0.013452  -0.000122  -0.000109  -0.000002
    20  H   -0.074734   0.014184  -0.001963  -0.000000   0.000000  -0.000000
    21  H    0.452074  -0.070599   0.014504   0.000000   0.000000   0.000000
    22  H   -0.069061   0.453648  -0.069025  -0.000000   0.000000   0.000000
    23  H    0.014888  -0.060098   0.451766  -0.000011  -0.000003   0.000000
    24  H   -0.000000   0.000000   0.000002  -0.068400   0.446380  -0.052790
    25  H   -0.000000   0.000000  -0.000000   0.016752  -0.066578   0.460685
    26  H   -0.000000  -0.000000  -0.000000   0.000024  -0.000538   0.007358
    27  H    0.000000  -0.000000   0.000000   0.000081  -0.000279  -0.003423
    28  H   -0.000000   0.000000   0.000000   0.000021   0.000817  -0.008801
    29  H    0.000000  -0.000000   0.000000   0.016379  -0.002105   0.014694
    30  H   -0.000042  -0.000008  -0.000092  -0.078824   0.012878  -0.001566
              13         14         15         16         17         18
     1  O   -0.000023  -0.000000   0.000549   0.007313  -0.026398   0.001946
     2  S    0.001053   0.000007  -0.002064  -0.041568   0.432978  -0.007883
     3  N   -0.000056  -0.000000   0.000035   0.000564  -0.046327   0.324254
     4  C    0.000008   0.000000  -0.000052  -0.000137   0.000700  -0.002006
     5  C   -0.000004  -0.000000   0.000038  -0.000984   0.000076   0.004050
     6  C   -0.000000   0.000000   0.000006   0.000086   0.000004  -0.000211
     7  C   -0.000000  -0.000000  -0.000000  -0.000001  -0.000000   0.000002
     8  C    0.000000   0.000000   0.000000   0.000005   0.000000   0.000230
     9  C   -0.000000   0.000000  -0.000010   0.000071  -0.000104  -0.013144
    10  C   -0.184534   0.000581   0.091900   0.175610  -0.067214   0.005718
    11  C    0.099139   0.009617  -0.122197   0.051157   0.005523   0.000720
    12  C    0.284952  -0.076971   0.052090  -0.120990   0.001502  -0.000063
    13  C    5.259696   0.408006   0.297817   0.086286  -0.000036   0.000011
    14  C    0.408006   4.549573  -0.077637   0.010280   0.000000  -0.000000
    15  C    0.297817  -0.077637   5.014180   0.355130   0.000016  -0.000013
    16  C    0.086286   0.010280   0.355130   5.043648   0.003826  -0.000930
    17  O   -0.000036   0.000000   0.000016   0.003826   8.146435   0.013572
    18  H    0.000011  -0.000000  -0.000013  -0.000930   0.013572   0.502770
    19  H    0.000001  -0.000000   0.000064   0.000342   0.000299  -0.000569
    20  H    0.000000  -0.000000  -0.000000  -0.000001   0.000000   0.000011
    21  H    0.000000   0.000000   0.000000   0.000000   0.000000  -0.000001
    22  H   -0.000000  -0.000000   0.000000  -0.000000  -0.000000  -0.000025
    23  H    0.000000   0.000000  -0.000000   0.000023  -0.000029   0.003107
    24  H    0.013668  -0.000212  -0.001821   0.013970   0.017737  -0.000071
    25  H   -0.076993  -0.013768   0.014531  -0.001998  -0.000009  -0.000001
    26  H   -0.019019   0.392091  -0.008635   0.000792   0.000000  -0.000000
    27  H   -0.011754   0.389672  -0.003456  -0.000222   0.000000  -0.000000
    28  H   -0.018824   0.392032   0.007440  -0.000562   0.000000   0.000000
    29  H   -0.076288  -0.013603   0.460473  -0.066228   0.000000  -0.000001
    30  H    0.014289  -0.000239  -0.047218   0.446719   0.000107   0.000068
              19         20         21         22         23         24
     1  O    0.035397   0.000026   0.000000  -0.000000   0.000008   0.000191
     2  S   -0.008495   0.000000   0.000000   0.000003  -0.000112  -0.012690
     3  N   -0.012120  -0.000108   0.000011  -0.000113  -0.009803   0.000663
     4  C   -0.071013   0.015474  -0.001482   0.015475  -0.081349  -0.000050
     5  C    0.451970  -0.068048   0.014821  -0.001859   0.017126   0.000002
     6  C   -0.053193   0.458496  -0.068111   0.013762  -0.002244   0.000000
     7  C    0.013747  -0.074734   0.452074  -0.069061   0.014888  -0.000000
     8  C   -0.002297   0.014184  -0.070599   0.453648  -0.060098   0.000000
     9  C    0.013452  -0.001963   0.014504  -0.069025   0.451766   0.000002
    10  C   -0.000122  -0.000000   0.000000  -0.000000  -0.000011  -0.068400
    11  C   -0.000109   0.000000   0.000000   0.000000  -0.000003   0.446380
    12  C   -0.000002  -0.000000   0.000000   0.000000   0.000000  -0.052790
    13  C    0.000001   0.000000   0.000000  -0.000000   0.000000   0.013668
    14  C   -0.000000  -0.000000   0.000000  -0.000000   0.000000  -0.000212
    15  C    0.000064  -0.000000   0.000000   0.000000  -0.000000  -0.001821
    16  C    0.000342  -0.000001   0.000000  -0.000000   0.000023   0.013970
    17  O    0.000299   0.000000   0.000000  -0.000000  -0.000029   0.017737
    18  H   -0.000569   0.000011  -0.000001  -0.000025   0.003107  -0.000071
    19  H    0.605492  -0.012840  -0.000190   0.000013  -0.000085  -0.000010
    20  H   -0.012840   0.665644  -0.012031  -0.000258   0.000023  -0.000000
    21  H   -0.000190  -0.012031   0.672913  -0.012349  -0.000230  -0.000000
    22  H    0.000013  -0.000258  -0.012349   0.667615  -0.013078   0.000000
    23  H   -0.000085   0.000023  -0.000230  -0.013078   0.686927  -0.000000
    24  H   -0.000010  -0.000000  -0.000000   0.000000  -0.000000   0.621530
    25  H   -0.000000  -0.000000  -0.000000   0.000000   0.000000  -0.011225
    26  H   -0.000000  -0.000000  -0.000000  -0.000000  -0.000000   0.000007
    27  H    0.000000   0.000000  -0.000000   0.000000   0.000000   0.000005
    28  H   -0.000000   0.000000  -0.000000   0.000000  -0.000000  -0.000004
    29  H   -0.000001  -0.000000  -0.000000   0.000000   0.000000   0.000020
    30  H    0.000125   0.000009  -0.000001  -0.000000  -0.000033  -0.000197
              25         26         27         28         29         30
     1  O    0.000001   0.000000  -0.000000   0.000000  -0.000002   0.002871
     2  S   -0.000160  -0.000000  -0.000000  -0.000000  -0.000157  -0.006757
     3  N    0.000004  -0.000000   0.000000  -0.000000   0.000004  -0.000052
     4  C   -0.000000   0.000000  -0.000000  -0.000000  -0.000003   0.001775
     5  C    0.000000   0.000000  -0.000000   0.000000   0.000004   0.002253
     6  C    0.000000   0.000000  -0.000000   0.000000  -0.000000   0.000428
     7  C   -0.000000  -0.000000   0.000000  -0.000000   0.000000  -0.000042
     8  C    0.000000  -0.000000  -0.000000   0.000000  -0.000000  -0.000008
     9  C   -0.000000  -0.000000   0.000000   0.000000   0.000000  -0.000092
    10  C    0.016752   0.000024   0.000081   0.000021   0.016379  -0.078824
    11  C   -0.066578  -0.000538  -0.000279   0.000817  -0.002105   0.012878
    12  C    0.460685   0.007358  -0.003423  -0.008801   0.014694  -0.001566
    13  C   -0.076993  -0.019019  -0.011754  -0.018824  -0.076288   0.014289
    14  C   -0.013768   0.392091   0.389672   0.392032  -0.013603  -0.000239
    15  C    0.014531  -0.008635  -0.003456   0.007440   0.460473  -0.047218
    16  C   -0.001998   0.000792  -0.000222  -0.000562  -0.066228   0.446719
    17  O   -0.000009   0.000000   0.000000   0.000000   0.000000   0.000107
    18  H   -0.000001  -0.000000  -0.000000   0.000000  -0.000001   0.000068
    19  H   -0.000000  -0.000000   0.000000  -0.000000  -0.000001   0.000125
    20  H   -0.000000  -0.000000   0.000000   0.000000  -0.000000   0.000009
    21  H   -0.000000  -0.000000  -0.000000  -0.000000  -0.000000  -0.000001
    22  H    0.000000  -0.000000   0.000000   0.000000   0.000000  -0.000000
    23  H    0.000000  -0.000000   0.000000  -0.000000   0.000000  -0.000033
    24  H   -0.011225   0.000007   0.000005  -0.000004   0.000020  -0.000197
    25  H    0.666642   0.000162   0.000730   0.004497  -0.000224   0.000022
    26  H    0.000162   0.621200  -0.017258  -0.022380   0.004495  -0.000002
    27  H    0.000730  -0.017258   0.597651  -0.017222   0.000720   0.000002
    28  H    0.004497  -0.022380  -0.017222   0.620810   0.000151   0.000009
    29  H   -0.000224   0.004495   0.000720   0.000151   0.667025  -0.012304
    30  H    0.000022  -0.000002   0.000002   0.000009  -0.012304   0.646351
 Mulliken charges:
               1
     1  O   -0.454316
     2  S    0.939513
     3  N   -0.308883
     4  C    0.130588
     5  C   -0.070403
     6  C   -0.005889
     7  C   -0.010888
     8  C   -0.006236
     9  C   -0.049584
    10  C   -0.073339
    11  C   -0.000616
    12  C   -0.026024
    13  C   -0.077396
    14  C    0.030573
    15  C   -0.031166
    16  C    0.037799
    17  O   -0.482658
    18  H    0.168459
    19  H    0.040143
    20  H    0.016117
    21  H    0.010670
    22  H    0.015251
    23  H   -0.006792
    24  H    0.033295
    25  H    0.006929
    26  H    0.041704
    27  H    0.064752
    28  H    0.042015
    29  H    0.006950
    30  H    0.019431
 Sum of Mulliken charges =  -0.00000
 Mulliken charges with hydrogens summed into heavy atoms:
               1
     1  O   -0.454316
     2  S    0.939513
     3  N   -0.140425
     4  C    0.130588
     5  C   -0.030260
     6  C    0.010228
     7  C   -0.000218
     8  C    0.009015
     9  C   -0.056376
    10  C   -0.073339
    11  C    0.032679
    12  C   -0.019095
    13  C   -0.077396
    14  C    0.179044
    15  C   -0.024216
    16  C    0.057230
    17  O   -0.482658
 Electronic spatial extent (au):  <R**2>=           5186.1624
 Charge=             -0.0000 electrons
 Dipole moment (field-independent basis, Debye):
    X=             -1.6218    Y=             -3.4880    Z=             -1.8638  Tot=              4.2743
 Quadrupole moment (field-independent basis, Debye-Ang):
   XX=            -88.1311   YY=           -112.2074   ZZ=           -104.4865
   XY=              0.6020   XZ=             -1.0471   YZ=             -3.9941
 Traceless Quadrupole moment (field-independent basis, Debye-Ang):
   XX=             13.4772   YY=            -10.5991   ZZ=             -2.8782
   XY=              0.6020   XZ=             -1.0471   YZ=             -3.9941
 Octapole moment (field-independent basis, Debye-Ang**2):
  XXX=            -45.8209  YYY=            -14.0881  ZZZ=            -10.8526  XYY=            -12.9001
  XXY=            -24.1187  XXZ=             -6.1880  XZZ=             17.0241  YZZ=              0.3205
  YYZ=              3.3106  XYZ=              2.3353
 Hexadecapole moment (field-independent basis, Debye-Ang**3):
 XXXX=          -4891.1637 YYYY=          -1282.9784 ZZZZ=           -513.3679 XXXY=            -65.1015
 XXXZ=             46.2449 YYYX=             45.8900 YYYZ=              7.9412 ZZZX=             -7.5907
 ZZZY=            -14.1904 XXYY=          -1022.3176 XXZZ=           -929.9611 YYZZ=           -297.5741
 XXYZ=            -11.3177 YYXZ=            -11.9273 ZZXY=            -14.3238
 N-N= 1.301649767905D+03 E-N=-5.192020403926D+03  KE= 1.097889194838D+03
   1 Symmetry operations used in ECPInt.
 ECPInt:  NShTT=   10296 NPrTT=   38220 LenC2=    9302 LenP2D=   24441.
 LDataN:  DoStor=T MaxTD1= 5 Len=  102
 Calling FoFJK, ICntrl=      2127 FMM=F ISym2X=0 I1Cent= 0 IOpClX= 0 NMat=1 NMatS=1 NMatT=0.
 ***** Axes restored to original set *****
 -------------------------------------------------------------------
 Center     Atomic                   Forces (Hartrees/Bohr)
 Number     Number              X              Y              Z
 -------------------------------------------------------------------
      1        8          -0.008381003    0.015075338   -0.053221537
      2       16          -0.032481106    0.024340762    0.017453523
      3        7          -0.002891229    0.011287348    0.030250819
      4        6           0.023353350   -0.012865497    0.002636303
      5        6          -0.012017803    0.004249813   -0.001513882
      6        6           0.005072321   -0.003563359   -0.004842639
      7        6           0.006781306   -0.004275434    0.002113811
      8        6           0.002936398   -0.001475392    0.000862519
      9        6          -0.013127854    0.007501667    0.000854399
     10        6           0.006504520    0.013477136    0.003510366
     11        6          -0.002505208    0.011753247   -0.001162103
     12        6           0.001783092   -0.003168070    0.000361439
     13        6          -0.005169502   -0.000158017    0.000546388
     14        6          -0.001887931   -0.002551344   -0.004431284
     15        6           0.003020255    0.002553965   -0.000208985
     16        6           0.005695391   -0.008935541    0.005116928
     17        8           0.015932371   -0.047174676    0.019084050
     18        1           0.003359838    0.008095449   -0.016922804
     19        1          -0.001649014   -0.000245970    0.007838743
     20        1           0.001542379   -0.001712049    0.009954232
     21        1           0.008999137   -0.005461405    0.001504902
     22        1           0.005399149   -0.002441548   -0.008588492
     23        1          -0.002539871    0.002508951   -0.012552216
     24        1          -0.000478067    0.010214620   -0.001812780
     25        1          -0.009212210    0.006291954   -0.003755458
     26        1           0.000470746   -0.006204521   -0.000781409
     27        1          -0.004366495   -0.000852098    0.006257886
     28        1          -0.004669171    0.002472075   -0.003270096
     29        1           0.001684839   -0.011551212    0.001446112
     30        1           0.008841373   -0.007186192    0.003271265
 -------------------------------------------------------------------
 Cartesian Forces:  Max     0.053221537 RMS     0.011748852

 GradGradGradGradGradGradGradGradGradGradGradGradGradGradGradGradGradGrad
 Berny optimization.
 FormGI is forming the generalized inverse of G from B-inverse, IUseBI=4.
 Internal  Forces:  Max     0.055198270 RMS     0.010489506
 Search for a local minimum.
 Step number   1 out of a maximum of  162
 All quantities printed in internal units (Hartrees-Bohrs-Radians)
 Mixed Optimization -- RFO/linear search
 Second derivative matrix not updated -- first step.
 ITU=  0
     Eigenvalues ---    0.00432   0.00927   0.01164   0.01612   0.01745
     Eigenvalues ---    0.01755   0.02002   0.02139   0.02244   0.02268
     Eigenvalues ---    0.02274   0.02300   0.02309   0.02340   0.02347
     Eigenvalues ---    0.02348   0.02370   0.02385   0.02387   0.02394
     Eigenvalues ---    0.02396   0.02423   0.02668   0.07313   0.07341
     Eigenvalues ---    0.09966   0.11563   0.12094   0.13416   0.15995
     Eigenvalues ---    0.16000   0.16000   0.16000   0.16000   0.16000
     Eigenvalues ---    0.16000   0.16000   0.16000   0.16000   0.16000
     Eigenvalues ---    0.16000   0.17300   0.22000   0.22000   0.22000
     Eigenvalues ---    0.22977   0.22985   0.23458   0.23996   0.24984
     Eigenvalues ---    0.24993   0.25000   0.25000   0.26488   0.33686
     Eigenvalues ---    0.34711   0.34771   0.34772   0.34776   0.36252
     Eigenvalues ---    0.36278   0.36287   0.36299   0.36323   0.36441
     Eigenvalues ---    0.36443   0.36511   0.36745   0.42616   0.43483
     Eigenvalues ---    0.44028   0.44266   0.46421   0.47104   0.47661
     Eigenvalues ---    0.47822   0.48057   0.49083   0.49252   0.49292
     Eigenvalues ---    0.50061   0.50112   0.76338   0.76711
 RFO step:  Lambda=-4.21214453D-02 EMin= 4.32025841D-03
 Linear search not attempted -- first point.
 Maximum step size (   0.300) exceeded in Quadratic search.
    -- Step size scaled by   0.907
 Iteration  1 RMS(Cart)=  0.17931519 RMS(Int)=  0.00650024
 Iteration  2 RMS(Cart)=  0.02326217 RMS(Int)=  0.00071077
 Iteration  3 RMS(Cart)=  0.00031775 RMS(Int)=  0.00070353
 Iteration  4 RMS(Cart)=  0.00000044 RMS(Int)=  0.00070353
 Variable       Old X    -DE/DX   Delta X   Delta X   Delta X     New X
                                 (Linear)    (Quad)   (Total)
    R1        2.83439  -0.05520   0.00000  -0.06187  -0.06187   2.77253
    R2        3.23147   0.00488   0.00000   0.01137   0.01137   3.24284
    R3        3.39269  -0.00383   0.00000  -0.01130  -0.01130   3.38139
    R4        2.83653  -0.05289   0.00000  -0.05956  -0.05956   2.77697
    R5        2.63659   0.02928   0.00000   0.05245   0.05245   2.68905
    R6        1.89002   0.01805   0.00000   0.03156   0.03156   1.92158
    R7        2.64419   0.00793   0.00000   0.01414   0.01414   2.65833
    R8        2.64492   0.00560   0.00000   0.00953   0.00953   2.65445
    R9        2.59655   0.02001   0.00000   0.03369   0.03370   2.63025
   R10        2.02933   0.00686   0.00000   0.01519   0.01519   2.04452
   R11        2.60838   0.01223   0.00000   0.02143   0.02143   2.62982
   R12        2.03649   0.01013   0.00000   0.02270   0.02270   2.05919
   R13        2.60897   0.01111   0.00000   0.01919   0.01918   2.62815
   R14        2.03617   0.01063   0.00000   0.02380   0.02380   2.05997
   R15        2.59862   0.01571   0.00000   0.02593   0.02592   2.62454
   R16        2.03634   0.01038   0.00000   0.02325   0.02325   2.05959
   R17        2.03290   0.01301   0.00000   0.02897   0.02897   2.06187
   R18        2.59624   0.01634   0.00000   0.02770   0.02770   2.62394
   R19        2.59624   0.01964   0.00000   0.03318   0.03318   2.62942
   R20        2.60808   0.01302   0.00000   0.02217   0.02217   2.63026
   R21        2.03689   0.01037   0.00000   0.02323   0.02323   2.06013
   R22        2.62206   0.01366   0.00000   0.02335   0.02335   2.64540
   R23        2.03395   0.01169   0.00000   0.02608   0.02608   2.06003
   R24        2.81163   0.01283   0.00000   0.03071   0.03071   2.84234
   R25        2.62221   0.01602   0.00000   0.02747   0.02747   2.64967
   R26        2.06048   0.00611   0.00000   0.01421   0.01421   2.07468
   R27        2.06039   0.00765   0.00000   0.01780   0.01780   2.07819
   R28        2.06047   0.00605   0.00000   0.01409   0.01409   2.07456
   R29        2.60796   0.00985   0.00000   0.01674   0.01674   2.62471
   R30        2.03397   0.01166   0.00000   0.02602   0.02602   2.05999
   R31        2.03580   0.01161   0.00000   0.02598   0.02598   2.06178
    A1        2.02790  -0.00715   0.00000  -0.02859  -0.03216   1.99575
    A2        1.84892  -0.00006   0.00000   0.02598   0.02640   1.87531
    A3        2.12524  -0.00128   0.00000  -0.03056  -0.03324   2.09200
    A4        1.67596   0.02484   0.00000   0.09693   0.09645   1.77241
    A5        1.84873  -0.00916   0.00000  -0.04250  -0.04514   1.80359
    A6        1.87856   0.00035   0.00000   0.01777   0.01889   1.89745
    A7        2.13484   0.05162   0.00000   0.17856   0.17694   2.31177
    A8        1.80815  -0.01501   0.00000  -0.02911  -0.03063   1.77752
    A9        2.02892  -0.01928   0.00000  -0.05853  -0.06182   1.96711
   A10        2.15512   0.02274   0.00000   0.07128   0.07118   2.22630
   A11        2.07619  -0.02436   0.00000  -0.07502  -0.07504   2.00114
   A12        2.05167   0.00160   0.00000   0.00333   0.00328   2.05494
   A13        2.11542  -0.00432   0.00000  -0.01462  -0.01460   2.10082
   A14        2.07232   0.00631   0.00000   0.02601   0.02599   2.09832
   A15        2.09517  -0.00199   0.00000  -0.01126  -0.01127   2.08390
   A16        2.09668   0.00483   0.00000   0.01873   0.01875   2.11543
   A17        2.09273  -0.00376   0.00000  -0.01541  -0.01542   2.07732
   A18        2.09375  -0.00107   0.00000  -0.00333  -0.00334   2.09042
   A19        2.09172  -0.00530   0.00000  -0.01651  -0.01651   2.07521
   A20        2.09571   0.00302   0.00000   0.00991   0.00990   2.10561
   A21        2.09576   0.00228   0.00000   0.00661   0.00661   2.10237
   A22        2.09790   0.00064   0.00000   0.00209   0.00208   2.09998
   A23        2.09242   0.00075   0.00000   0.00375   0.00375   2.09617
   A24        2.09287  -0.00139   0.00000  -0.00584  -0.00584   2.08703
   A25        2.11298   0.00255   0.00000   0.00699   0.00697   2.11995
   A26        2.06948  -0.00018   0.00000   0.00144   0.00145   2.07093
   A27        2.10070  -0.00237   0.00000  -0.00841  -0.00840   2.09229
   A28        2.09042  -0.00200   0.00000  -0.00717  -0.00719   2.08324
   A29        2.09202  -0.00159   0.00000  -0.00591  -0.00592   2.08610
   A30        2.10074   0.00359   0.00000   0.01307   0.01307   2.11382
   A31        2.09307  -0.00403   0.00000  -0.01272  -0.01272   2.08035
   A32        2.07784   0.00260   0.00000   0.00898   0.00897   2.08682
   A33        2.11227   0.00143   0.00000   0.00375   0.00374   2.11601
   A34        2.10382   0.00244   0.00000   0.00769   0.00768   2.11150
   A35        2.09616  -0.00248   0.00000  -0.00951  -0.00951   2.08665
   A36        2.08320   0.00005   0.00000   0.00183   0.00183   2.08503
   A37        2.10546   0.00045   0.00000   0.00225   0.00226   2.10772
   A38        2.07177  -0.00053   0.00000  -0.00324  -0.00326   2.06851
   A39        2.10543   0.00009   0.00000   0.00112   0.00112   2.10655
   A40        1.93981   0.00116   0.00000   0.00593   0.00591   1.94572
   A41        1.93297   0.00012   0.00000  -0.00094  -0.00094   1.93203
   A42        1.93978   0.00106   0.00000   0.00550   0.00548   1.94526
   A43        1.88520  -0.00119   0.00000  -0.00675  -0.00674   1.87845
   A44        1.87873  -0.00013   0.00000   0.00216   0.00211   1.88085
   A45        1.88507  -0.00114   0.00000  -0.00649  -0.00649   1.87859
   A46        2.10497   0.00234   0.00000   0.00724   0.00724   2.11221
   A47        2.08236   0.00024   0.00000   0.00269   0.00269   2.08505
   A48        2.09585  -0.00258   0.00000  -0.00993  -0.00993   2.08592
   A49        2.09193  -0.00379   0.00000  -0.01200  -0.01199   2.07994
   A50        2.08255   0.00432   0.00000   0.01689   0.01689   2.09943
   A51        2.10870  -0.00053   0.00000  -0.00489  -0.00489   2.10381
    D1       -0.13000   0.01223   0.00000   0.09925   0.09884  -0.03116
    D2       -2.46431   0.00943   0.00000   0.05202   0.04922  -2.41509
    D3       -2.06861   0.00036   0.00000   0.02287   0.02394  -2.04467
    D4        1.88027  -0.00244   0.00000  -0.02436  -0.02568   1.85458
    D5        2.28953  -0.00654   0.00000  -0.02001  -0.01708   2.27246
    D6       -0.04477  -0.00933   0.00000  -0.06724  -0.06670  -0.11147
    D7        2.12266  -0.00076   0.00000  -0.00003  -0.00116   2.12150
    D8       -1.01658  -0.00034   0.00000   0.00650   0.00532  -1.01126
    D9       -2.07572   0.00114   0.00000   0.01406   0.01459  -2.06113
   D10        1.06823   0.00156   0.00000   0.02059   0.02107   1.08930
   D11       -0.17598   0.00064   0.00000   0.00845   0.00912  -0.16686
   D12        2.96797   0.00106   0.00000   0.01497   0.01560   2.98357
   D13        0.21956  -0.00200   0.00000   0.00893   0.00997   0.22954
   D14       -2.94458  -0.00346   0.00000  -0.01275  -0.01174  -2.95632
   D15        2.46186   0.00876   0.00000   0.09327   0.09226   2.55412
   D16       -0.70228   0.00729   0.00000   0.07159   0.07055  -0.63174
   D17        3.11817  -0.00131   0.00000  -0.01600  -0.01682   3.10135
   D18       -0.04884  -0.00088   0.00000  -0.00989  -0.01047  -0.05931
   D19       -0.00116   0.00045   0.00000   0.00636   0.00637   0.00521
   D20        3.11501   0.00089   0.00000   0.01247   0.01272   3.12773
   D21       -3.11946   0.00040   0.00000   0.00943   0.00854  -3.11093
   D22        0.01437   0.00064   0.00000   0.01218   0.01143   0.02580
   D23        0.00091  -0.00068   0.00000  -0.01001  -0.00989  -0.00898
   D24        3.13475  -0.00044   0.00000  -0.00726  -0.00700   3.12775
   D25       -0.00002   0.00002   0.00000   0.00069   0.00057   0.00055
   D26        3.13516   0.00006   0.00000   0.00066   0.00068   3.13584
   D27       -3.11586  -0.00054   0.00000  -0.00603  -0.00627  -3.12213
   D28        0.01932  -0.00050   0.00000  -0.00606  -0.00616   0.01316
   D29        0.00148  -0.00029   0.00000  -0.00436  -0.00425  -0.00277
   D30        3.13981  -0.00007   0.00000  -0.00125  -0.00116   3.13864
   D31       -3.13369  -0.00033   0.00000  -0.00429  -0.00432  -3.13801
   D32        0.00463  -0.00011   0.00000  -0.00118  -0.00123   0.00340
   D33       -0.00173   0.00007   0.00000   0.00074   0.00080  -0.00093
   D34        3.14070   0.00023   0.00000   0.00364   0.00353  -3.13896
   D35       -3.14005  -0.00015   0.00000  -0.00239  -0.00229   3.14084
   D36        0.00237   0.00001   0.00000   0.00051   0.00045   0.00282
   D37        0.00052   0.00043   0.00000   0.00664   0.00644   0.00696
   D38       -3.13318   0.00018   0.00000   0.00379   0.00347  -3.12972
   D39        3.14127   0.00027   0.00000   0.00374   0.00372  -3.13819
   D40        0.00758   0.00002   0.00000   0.00090   0.00075   0.00832
   D41       -3.14035   0.00011   0.00000   0.00192   0.00192  -3.13842
   D42       -0.00042   0.00047   0.00000   0.00688   0.00689   0.00647
   D43       -0.00112  -0.00032   0.00000  -0.00466  -0.00469  -0.00581
   D44        3.13881   0.00004   0.00000   0.00030   0.00028   3.13909
   D45        3.14032  -0.00006   0.00000  -0.00117  -0.00118   3.13913
   D46        0.00116  -0.00036   0.00000  -0.00543  -0.00546  -0.00430
   D47        0.00109   0.00037   0.00000   0.00542   0.00544   0.00653
   D48       -3.13806   0.00007   0.00000   0.00116   0.00116  -3.13690
   D49       -0.00553   0.00028   0.00000   0.00413   0.00413  -0.00140
   D50        3.13319   0.00041   0.00000   0.00576   0.00576   3.13895
   D51        3.13777  -0.00008   0.00000  -0.00093  -0.00093   3.13683
   D52       -0.00670   0.00004   0.00000   0.00070   0.00070  -0.00600
   D53        3.11924  -0.00002   0.00000  -0.00013  -0.00012   3.11912
   D54        0.01196  -0.00031   0.00000  -0.00436  -0.00435   0.00761
   D55       -0.01950  -0.00014   0.00000  -0.00173  -0.00174  -0.02124
   D56       -3.12678  -0.00043   0.00000  -0.00596  -0.00596  -3.13274
   D57        2.63348   0.00050   0.00000   0.00278   0.00279   2.63628
   D58       -1.55405  -0.00016   0.00000  -0.00242  -0.00243  -1.55648
   D59        0.54143  -0.00081   0.00000  -0.00759  -0.00761   0.53382
   D60       -0.54309   0.00078   0.00000   0.00700   0.00703  -0.53606
   D61        1.55257   0.00012   0.00000   0.00180   0.00180   1.55437
   D62       -2.63514  -0.00054   0.00000  -0.00336  -0.00338  -2.63851
   D63       -0.01200   0.00036   0.00000   0.00512   0.00513  -0.00687
   D64        3.12655   0.00042   0.00000   0.00580   0.00580   3.13235
   D65       -3.11928   0.00007   0.00000   0.00087   0.00088  -3.11840
   D66        0.01926   0.00012   0.00000   0.00155   0.00156   0.02082
   D67        0.00559  -0.00039   0.00000  -0.00567  -0.00565  -0.00007
   D68       -3.13848  -0.00008   0.00000  -0.00131  -0.00133  -3.13981
   D69       -3.13293  -0.00045   0.00000  -0.00637  -0.00635  -3.13929
   D70        0.00618  -0.00014   0.00000  -0.00202  -0.00203   0.00416
         Item               Value     Threshold  Converged?
 Maximum Force            0.055198     0.000450     NO 
 RMS     Force            0.010490     0.000300     NO 
 Maximum Displacement     0.623886     0.001800     NO 
 RMS     Displacement     0.196978     0.001200     NO 
 Predicted change in Energy=-2.344874D-02
 GradGradGradGradGradGradGradGradGradGradGradGradGradGradGradGradGradGrad

                          Input orientation:                          
 ---------------------------------------------------------------------
 Center     Atomic      Atomic             Coordinates (Angstroms)
 Number     Number       Type             X           Y           Z
 ---------------------------------------------------------------------
      1          8           0        0.227911    1.328143    1.857572
      2         16           0       -0.093444    1.404558    0.428082
      3          7           0        1.032902    0.609572   -0.593744
      4          6           0        2.244649   -0.087750   -0.328621
      5          6           0        2.724773   -0.529394    0.917702
      6          6           0        3.916087   -1.244494    0.999591
      7          6           0        4.659632   -1.539580   -0.139146
      8          6           0        4.192718   -1.110022   -1.376757
      9          6           0        3.002888   -0.399628   -1.469195
     10          6           0       -1.571006    0.432216    0.157624
     11          6           0       -2.695071    1.038919   -0.386805
     12          6           0       -3.843772    0.280228   -0.592178
     13          6           0       -3.878404   -1.079221   -0.259936
     14          6           0       -5.131299   -1.887727   -0.457148
     15          6           0       -2.730312   -1.662139    0.295140
     16          6           0       -1.578507   -0.914995    0.505528
     17          8           0       -0.267299    2.715004   -0.213762
     18          1           0        1.120115    1.270040   -1.361973
     19          1           0        2.179399   -0.300501    1.823631
     20          1           0        4.270396   -1.571275    1.976869
     21          1           0        5.592864   -2.097915   -0.064092
     22          1           0        4.758157   -1.332470   -2.281552
     23          1           0        2.637604   -0.075728   -2.444973
     24          1           0       -2.662020    2.096808   -0.648066
     25          1           0       -4.730433    0.751153   -1.016951
     26          1           0       -4.901977   -2.943721   -0.651096
     27          1           0       -5.767086   -1.844175    0.439115
     28          1           0       -5.722371   -1.512543   -1.302756
     29          1           0       -2.743071   -2.717549    0.567658
     30          1           0       -0.688992   -1.377003    0.936458
 ---------------------------------------------------------------------
                    Distance matrix (angstroms):
                    1          2          3          4          5
     1  O    0.000000
     2  S    1.467157   0.000000
     3  N    2.678302   1.716038   0.000000
     4  C    3.294150   2.875111   1.422983   0.000000
     5  C    3.250865   3.452861   2.538532   1.406730   0.000000
     6  C    4.577907   4.839467   3.780084   2.428149   1.391870
     7  C    5.643658   5.619736   4.240129   2.824156   2.425094
     8  C    5.667911   5.286941   3.681650   2.436924   2.785054
     9  C    4.664018   4.054876   2.380282   1.404672   2.406546
    10  C    2.632225   1.789353   2.715943   3.881498   4.467229
    11  C    3.696579   2.750671   3.758317   5.066913   5.791032
    12  C    4.866005   4.045987   4.887783   6.105223   6.788300
    13  C    5.209708   4.579131   5.204265   6.203185   6.729865
    14  C    6.664899   6.082989   6.652258   7.593487   8.090313
    15  C    4.487099   4.046650   4.484704   5.255285   5.606126
    16  C    3.181640   2.755311   3.217478   3.999583   4.340138
    17  O    2.541464   1.469509   2.503548   3.765436   4.556185
    18  H    3.341388   2.166822   1.016858   2.043524   3.318104
    19  H    2.542034   3.165534   2.826021   2.163726   1.081912
    20  H    4.976198   5.504310   4.673919   3.408780   2.143899
    21  H    6.649314   6.696541   5.329566   3.914241   3.413227
    22  H    6.688373   6.194472   4.527444   3.417747   3.874894
    23  H    5.127316   4.231349   2.543964   2.152558   3.394259
    24  H    3.901380   2.869649   3.983374   5.380496   6.194038
    25  H    5.760293   4.900686   5.780587   7.058989   7.807867
    26  H    7.131478   6.572225   6.917512   7.702910   8.152142
    27  H    6.929329   6.537935   7.302569   8.237860   8.606356
    28  H    7.311841   6.571917   7.116164   8.151833   8.789270
    29  H    5.182493   4.902221   5.164936   5.709335   5.899820
    30  H    3.001162   2.889672   3.041861   3.445119   3.517468
                    6          7          8          9         10
     6  C    0.000000
     7  C    1.391638   0.000000
     8  C    2.396171   1.390759   0.000000
     9  C    2.764532   2.411083   1.388848   0.000000
    10  C    5.799005   6.541935   6.160628   4.925344   0.000000
    11  C    7.130461   7.797542   7.282828   5.975594   1.388529
    12  C    8.066841   8.707745   8.193505   6.936002   2.398076
    13  C    7.897329   8.551291   8.148082   7.019710   2.789782
    14  C    9.186459   9.802279   9.401479   8.330887   4.293689
    15  C    6.696663   7.403709   7.143417   6.129959   2.397754
    16  C    5.526593   6.302388   6.073555   5.015408   1.391428
    17  O    5.886473   6.510123   5.989585   4.687341   2.654939
    18  H    4.440420   4.681608   3.886618   2.518754   3.202071
    19  H    2.141553   3.396965   3.866686   3.395683   4.168692
    20  H    1.089676   2.151750   3.386088   3.854179   6.437826
    21  H    2.161326   1.090088   2.158572   3.400951   7.600774
    22  H    3.388616   2.154647   1.089890   2.147344   7.008710
    23  H    3.855588   3.398280   2.151565   1.091094   4.974326
    24  H    7.559799   8.190782   7.602774   6.244808   2.147164
    25  H    9.100074   9.705222   9.122283   7.831544   3.385753
    26  H    9.130738   9.677710   9.306046   8.344374   4.811065
    27  H    9.717900  10.447182  10.150569   9.090699   4.782079
    28  H    9.913250  10.447043   9.923532   8.797524   4.811303
    29  H    6.833801   7.529090   7.380383   6.522083   3.385688
    30  H    4.607417   5.458125   5.408634   4.513580   2.158195
                   11         12         13         14         15
    11  C    0.000000
    12  C    1.391871   0.000000
    13  C    2.429586   1.399887   0.000000
    14  C    3.808597   2.525072   1.504102   0.000000
    15  C    2.786038   2.408302   1.402148   2.526176   0.000000
    16  C    2.420900   2.786565   2.429492   3.807268   1.388936
    17  O    2.955213   4.343098   5.238163   6.700961   5.048247
    18  H    3.944618   5.119814   5.631936   7.061897   5.115612
    19  H    5.517294   6.515518   6.453265   7.820969   5.319362
    20  H    7.804986   8.710212   8.464535   9.716813   7.200443
    21  H    8.867567   9.746002   9.527907  10.733422   8.342314
    22  H    8.047619   8.913359   8.873627  10.071649   7.926235
    23  H    5.823737   6.750392   6.945483   8.221353   6.232130
    24  H    1.090173   2.167862   3.423067   4.691514   3.876078
    25  H    2.150022   1.090123   2.156222   2.727225   3.397947
    26  H    4.560889   3.393687   2.162653   1.097875   2.693314
    27  H    4.293210   3.045618   2.154286   1.099731   3.045630
    28  H    4.063677   2.692226   2.162281   1.097808   3.395301
    29  H    3.876126   3.397562   2.158242   2.728088   1.090100
    30  H    3.407647   3.877600   3.419413   4.683703   2.158606
                   16         17         18         19         20
    16  C    0.000000
    17  O    3.926009   0.000000
    18  H    3.942652   2.308945   0.000000
    19  H    4.029498   4.385268   3.706313   0.000000
    20  H    6.066730   6.615265   5.398631   2.451656   0.000000
    21  H    7.290564   7.584728   5.747443   4.294873   2.488331
    22  H    6.935086   6.775914   4.566622   4.956560   4.292911
    23  H    5.213964   4.604883   2.299294   4.299007   4.945237
    24  H    3.402314   2.511071   3.936719   5.941020   8.270641
    25  H    3.876678   4.941801   5.883638   7.544578   9.765836
    26  H    4.061891   7.327528   7.384221   7.953413   9.639618
    27  H    4.290918   7.173564   7.770186   8.212578  10.158258
    28  H    4.560545   6.986836   7.386873   8.583782  10.517357
    29  H    2.146921   6.021021   5.877801   5.625860   7.244898
[...]
     2  S    0.000025   0.000734   0.007033   0.307935  -0.039104   0.005724
     3  N    0.000972   0.013253  -0.039548  -0.061487   0.000026  -0.001185
     4  C   -0.111998   0.009872   0.334022   0.044995   0.001044   0.000245
     5  C    0.048668  -0.090383   0.057830   0.003480   0.000329   0.000048
     6  C    0.413229   0.022528  -0.097987  -0.000070   0.000171  -0.000008
     7  C    4.963679   0.439131   0.035546  -0.000157  -0.000059   0.000020
     8  C    0.439131   4.933656   0.408449  -0.001761  -0.000681  -0.000050
     9  C    0.035546   0.408449   5.115147  -0.000196  -0.001908   0.000787
    10  C   -0.000157  -0.001761  -0.000196   5.293952   0.367963   0.015599
    11  C   -0.000059  -0.000681  -0.001908   0.367963   5.106176   0.404606
    12  C    0.000020  -0.000050   0.000787   0.015599   0.404606   5.063798
    13  C    0.000042   0.000056  -0.000461  -0.090495   0.016563   0.430543
    14  C   -0.000001  -0.000016   0.000009  -0.004309   0.012941  -0.073389
    15  C   -0.000195   0.002004  -0.000566   0.049729  -0.046365  -0.014135
    16  C   -0.000699   0.001191  -0.014199   0.316569  -0.069675  -0.050274
    17  O   -0.000003  -0.000001  -0.000525  -0.096249   0.026754   0.002767
    18  H    0.000136   0.001087   0.008835  -0.000736   0.000147  -0.000167
    19  H    0.010214  -0.004442   0.011286   0.001829  -0.000172   0.000007
    20  H   -0.058352   0.010553  -0.003503  -0.000016   0.000001  -0.000000
    21  H    0.443931  -0.056085   0.012197   0.000004  -0.000000   0.000000
    22  H   -0.057139   0.438880  -0.053928   0.000005  -0.000001  -0.000003
    23  H    0.010387  -0.031454   0.439934   0.000783   0.000383   0.000309
    24  H   -0.000003   0.000006  -0.000132  -0.045656   0.432690  -0.048582
    25  H   -0.000000   0.000003  -0.000002   0.011323  -0.049167   0.443601
    26  H   -0.000000   0.000001  -0.000002   0.000045  -0.000621   0.007105
    27  H    0.000000   0.000000   0.000000   0.000160  -0.000652  -0.004515
    28  H    0.000000  -0.000001   0.000001   0.000076   0.001883  -0.006567
    29  H    0.000008   0.000072  -0.000080   0.010669  -0.003658   0.012825
    30  H    0.000106   0.000165  -0.001660  -0.046283   0.008164  -0.002415
              13         14         15         16         17         18
     1  O   -0.000113  -0.000000   0.002958   0.018613  -0.043930   0.002676
     2  S   -0.000535   0.000005   0.004881  -0.016587   0.584213  -0.016602
     3  N    0.000223  -0.000004   0.000051   0.006377  -0.048061   0.365627
     4  C   -0.000711   0.000008   0.001887  -0.002592   0.001637  -0.051476
     5  C    0.000219   0.000006  -0.002491   0.000887  -0.000743   0.004525
     6  C   -0.000038  -0.000001   0.000434  -0.001277  -0.000000  -0.000720
     7  C    0.000042  -0.000001  -0.000195  -0.000699  -0.000003   0.000136
     8  C    0.000056  -0.000016   0.002004   0.001191  -0.000001   0.001087
     9  C   -0.000461   0.000009  -0.000566  -0.014199  -0.000525   0.008835
    10  C   -0.090495  -0.004309   0.049729   0.316569  -0.096249  -0.000736
    11  C    0.016563   0.012941  -0.046365  -0.069675   0.026754   0.000147
    12  C    0.430543  -0.073389  -0.014135  -0.050274   0.002767  -0.000167
    13  C    4.972725   0.297589   0.414300   0.032636   0.000167   0.000064
    14  C    0.297589   4.958432  -0.073729   0.014018   0.000001   0.000000
    15  C    0.414300  -0.073729   5.099325   0.357329  -0.000591  -0.000043
    16  C    0.032636   0.014018   0.357329   5.141850   0.008752   0.000706
    17  O    0.000167   0.000001  -0.000591   0.008752   8.022377   0.004369
    18  H    0.000064   0.000000  -0.000043   0.000706   0.004369   0.429399
    19  H    0.000015   0.000000  -0.000158  -0.000442  -0.000133  -0.000050
    20  H   -0.000000  -0.000000   0.000008  -0.000004  -0.000000   0.000013
    21  H   -0.000001   0.000000  -0.000002  -0.000018   0.000000  -0.000002
    22  H   -0.000005   0.000000   0.000022   0.000029  -0.000000  -0.000040
    23  H   -0.000009  -0.000000  -0.000258  -0.000268  -0.000175   0.003564
    24  H    0.008421  -0.000056  -0.002427   0.008280   0.013541   0.000365
    25  H   -0.062228  -0.006621   0.012821  -0.003857  -0.000028  -0.000009
    26  H   -0.053770   0.427908  -0.006622   0.002000   0.000000  -0.000000
    27  H   -0.017331   0.390109  -0.004953  -0.000740  -0.000000  -0.000000
    28  H   -0.054432   0.427396   0.007812  -0.000731   0.000000   0.000000
    29  H   -0.063026  -0.006829   0.444100  -0.048213   0.000003   0.000000
    30  H    0.008910  -0.000033  -0.049403   0.436143   0.000385  -0.000098
              19         20         21         22         23         24
     1  O    0.008971  -0.000038   0.000001  -0.000000  -0.000017   0.000542
     2  S   -0.002922  -0.000003   0.000003  -0.000007  -0.000120  -0.004404
     3  N   -0.001403  -0.000119   0.000008  -0.000360   0.002898   0.000273
     4  C   -0.044796   0.013945  -0.003964   0.015210  -0.080496  -0.000182
     5  C    0.434630  -0.057685   0.011297  -0.003857   0.012034  -0.000018
     6  C   -0.048918   0.446323  -0.056275   0.010718  -0.003891   0.000007
     7  C    0.010214  -0.058352   0.443931  -0.057139   0.010387  -0.000003
     8  C   -0.004442   0.010553  -0.056085   0.438880  -0.031454   0.000006
     9  C    0.011286  -0.003503   0.012197  -0.053928   0.439934  -0.000132
    10  C    0.001829  -0.000016   0.000004   0.000005   0.000783  -0.045656
    11  C   -0.000172   0.000001  -0.000000  -0.000001   0.000383   0.432690
    12  C    0.000007  -0.000000   0.000000  -0.000003   0.000309  -0.048582
    13  C    0.000015  -0.000000  -0.000001  -0.000005  -0.000009   0.008421
    14  C    0.000000  -0.000000   0.000000   0.000000  -0.000000  -0.000056
    15  C   -0.000158   0.000008  -0.000002   0.000022  -0.000258  -0.002427
    16  C   -0.000442  -0.000004  -0.000018   0.000029  -0.000268   0.008280
    17  O   -0.000133  -0.000000   0.000000  -0.000000  -0.000175   0.013541
    18  H   -0.000050   0.000013  -0.000002  -0.000040   0.003564   0.000365
    19  H    0.476150  -0.006493  -0.000017   0.000015   0.000012  -0.000005
    20  H   -0.006493   0.534764  -0.006847  -0.000125   0.000028   0.000000
    21  H   -0.000017  -0.006847   0.538792  -0.006649  -0.000098  -0.000000
    22  H    0.000015  -0.000125  -0.006649   0.541630  -0.007507   0.000000
    23  H    0.000012   0.000028  -0.000098  -0.007507   0.538610  -0.000067
    24  H   -0.000005   0.000000  -0.000000   0.000000  -0.000067   0.477733
    25  H   -0.000000   0.000000   0.000000   0.000000  -0.000003  -0.005577
    26  H   -0.000000   0.000000  -0.000000   0.000000  -0.000000   0.000004
    27  H    0.000000   0.000000  -0.000000  -0.000000   0.000000   0.000007
    28  H   -0.000000  -0.000000   0.000000  -0.000000   0.000001  -0.000018
    29  H   -0.000007   0.000001  -0.000000  -0.000000  -0.000002   0.000031
    30  H   -0.000091  -0.000017  -0.000004   0.000004  -0.000053  -0.000066
              25         26         27         28         29         30
     1  O    0.000004   0.000000  -0.000000   0.000000  -0.000011   0.008202
     2  S   -0.000114   0.000001  -0.000001   0.000001  -0.000100  -0.004121
     3  N    0.000018  -0.000000   0.000000  -0.000000   0.000031   0.000356
     4  C   -0.000007   0.000003  -0.000000  -0.000001   0.000036   0.000122
     5  C   -0.000002   0.000000  -0.000000   0.000000  -0.000101   0.000028
     6  C    0.000000   0.000000   0.000000  -0.000000   0.000056   0.000346
     7  C   -0.000000  -0.000000   0.000000   0.000000   0.000008   0.000106
     8  C    0.000003   0.000001   0.000000  -0.000001   0.000072   0.000165
     9  C   -0.000002  -0.000002   0.000000   0.000001  -0.000080  -0.001660
    10  C    0.011323   0.000045   0.000160   0.000076   0.010669  -0.046283
    11  C   -0.049167  -0.000621  -0.000652   0.001883  -0.003658   0.008164
    12  C    0.443601   0.007105  -0.004515  -0.006567   0.012825  -0.002415
    13  C   -0.062228  -0.053770  -0.017331  -0.054432  -0.063026   0.008910
    14  C   -0.006621   0.427908   0.390109   0.427396  -0.006829  -0.000033
    15  C    0.012821  -0.006622  -0.004953   0.007812   0.444100  -0.049403
    16  C   -0.003857   0.002000  -0.000740  -0.000731  -0.048213   0.436143
    17  O   -0.000028   0.000000  -0.000000   0.000000   0.000003   0.000385
    18  H   -0.000009  -0.000000  -0.000000   0.000000   0.000000  -0.000098
    19  H   -0.000000  -0.000000   0.000000  -0.000000  -0.000007  -0.000091
    20  H    0.000000   0.000000   0.000000  -0.000000   0.000001  -0.000017
    21  H    0.000000  -0.000000  -0.000000   0.000000  -0.000000  -0.000004
    22  H    0.000000   0.000000  -0.000000  -0.000000  -0.000000   0.000004
    23  H   -0.000003  -0.000000   0.000000   0.000001  -0.000002  -0.000053
    24  H   -0.005577   0.000004   0.000007  -0.000018   0.000031  -0.000066
    25  H    0.533333   0.000057   0.000226   0.001032  -0.000049   0.000026
    26  H    0.000057   0.540548  -0.023935  -0.023668   0.000941  -0.000022
    27  H    0.000226  -0.023935   0.544769  -0.023704   0.000257   0.000008
    28  H    0.001032  -0.023668  -0.023704   0.542203   0.000074   0.000002
    29  H   -0.000049   0.000941   0.000257   0.000074   0.533689  -0.005580
    30  H    0.000026  -0.000022   0.000008   0.000002  -0.005580   0.481688
 Mulliken charges:
               1
     1  O   -0.461047
     2  S    0.856434
     3  N   -0.316469
     4  C    0.200027
     5  C   -0.270658
     6  C   -0.072219
     7  C   -0.137616
     8  C   -0.096870
     9  C   -0.217454
    10  C    0.001057
    11  C   -0.174704
    12  C   -0.186433
    13  C    0.160682
    14  C   -0.363432
    15  C   -0.195726
    16  C   -0.135805
    17  O   -0.474527
    18  H    0.248430
    19  H    0.166920
    20  H    0.127568
    21  H    0.123729
    22  H    0.123107
    23  H    0.115476
    24  H    0.165293
    25  H    0.125220
    26  H    0.130027
    27  H    0.140296
    28  H    0.128642
    29  H    0.124863
    30  H    0.165190
 Sum of Mulliken charges =  -0.00000
 Mulliken charges with hydrogens summed into heavy atoms:
               1
     1  O   -0.461047
     2  S    0.856434
     3  N   -0.068039
     4  C    0.200027
     5  C   -0.103738
     6  C    0.055349
     7  C   -0.013887
     8  C    0.026237
     9  C   -0.101978
    10  C    0.001057
    11  C   -0.009410
    12  C   -0.061212
    13  C    0.160682
    14  C    0.035533
    15  C   -0.070863
    16  C    0.029385
    17  O   -0.474527
 Electronic spatial extent (au):  <R**2>=           4366.6151
 Charge=             -0.0000 electrons
 Dipole moment (field-independent basis, Debye):
    X=             -1.8231    Y=             -5.3814    Z=             -1.7661  Tot=              5.9499
 Quadrupole moment (field-independent basis, Debye-Ang):
   XX=            -96.8106   YY=           -114.0211   ZZ=           -101.0919
   XY=              0.2818   XZ=              2.6728   YZ=             -4.5394
 Traceless Quadrupole moment (field-independent basis, Debye-Ang):
   XX=              7.1640   YY=            -10.0466   ZZ=              2.8826
   XY=              0.2818   XZ=              2.6728   YZ=             -4.5394
 Octapole moment (field-independent basis, Debye-Ang**2):
  XXX=            -42.0170  YYY=            -42.3412  ZZZ=            -11.7975  XYY=              3.5108
  XXY=            -16.3248  XXZ=              7.5632  XZZ=              2.8655  YZZ=             -0.4269
  YYZ=             -0.7554  XYZ=             -0.9109
 Hexadecapole moment (field-independent basis, Debye-Ang**3):
 XXXX=          -3342.9602 YYYY=          -1978.2704 ZZZZ=           -577.8618 XXXY=             53.2167
 XXXZ=            112.6999 YYYX=            -18.4131 YYYZ=             17.5890 ZZZX=             13.7712
 ZZZY=            -23.9553 XXYY=           -821.8929 XXZZ=           -639.6944 YYZZ=           -410.7768
 XXYZ=            -31.4644 YYXZ=            -12.7823 ZZXY=             -2.1294
 N-N= 1.331926598713D+03 E-N=-5.259225149676D+03  KE= 1.102023895032D+03
 Breneman (CHELPG) radii used.
 Read replacement radii for each type of atom:
 Atom Element Radius
    1     8    1.70
    2    16    2.00
    3     7    1.70
    4     6    1.50
    5     6    1.50
    6     6    1.50
    7     6    1.50
    8     6    1.50
    9     6    1.50
   10     6    1.50
   11     6    1.50
   12     6    1.50
   13     6    1.50
   14     6    1.50
   15     6    1.50
   16     6    1.50
   17     8    1.70
   18     1    1.45
   19     1    1.45
   20     1    1.45
   21     1    1.45
   22     1    1.45
   23     1    1.45
   24     1    1.45
   25     1    1.45
   26     1    1.45
   27     1    1.45
   28     1    1.45
   29     1    1.45
   30     1    1.45
 Generate Potential Derived Charges using the Breneman model, NDens= 1.
 Grid spacing= 0.300 Box extension= 2.800
 NStep X,Y,Z=   49     41     34   Total possible points=       68306
 Number of Points to Fit=   18710

 **********************************************************************

            Electrostatic Properties Using The SCF Density.

 **********************************************************************

       Atomic Center    1 is at   0.759909  2.053308  1.477279
       Atomic Center    2 is at   0.211228  1.955964  0.139005
       Atomic Center    3 is at   1.389695  1.267658 -0.841659
       Atomic Center    4 is at   1.950888  0.004388 -0.532289
       Atomic Center    5 is at   2.685037 -0.167122  0.646629
       Atomic Center    6 is at   3.219004 -1.416775  0.949367
       Atomic Center    7 is at   3.052753 -2.492009  0.076135
       Atomic Center    8 is at   2.334691 -2.314369 -1.105177
       Atomic Center    9 is at   1.772529 -1.075442 -1.403470
       Atomic Center   10 is at  -1.098956  0.752273  0.173529
       Atomic Center   11 is at  -2.134085  0.847120 -0.754618
       Atomic Center   12 is at  -3.121710 -0.132673 -0.768358
       Atomic Center   13 is at  -3.088500 -1.207453  0.129807
       Atomic Center   14 is at  -4.177721 -2.246414  0.128288
       Atomic Center   15 is at  -2.036364 -1.274635  1.051964
       Atomic Center   16 is at  -1.043171 -0.301035  1.085085
       Atomic Center   17 is at  -0.244814  3.115640 -0.603171
       Atomic Center   18 is at   1.147307  1.412196 -1.817997
       Atomic Center   19 is at   2.820419  0.683117  1.315072
       Atomic Center   20 is at   3.786859 -1.545991  1.873292
       Atomic Center   21 is at   3.485405 -3.465662  0.314541
       Atomic Center   22 is at   2.197519 -3.148899 -1.796081
       Atomic Center   23 is at   1.185844 -0.942118 -2.315953
       Atomic Center   24 is at  -2.164976  1.691232 -1.446127
       Atomic Center   25 is at  -3.938777 -0.059338 -1.490519
       Atomic Center   26 is at  -3.802436 -3.222982  0.465074
       Atomic Center   27 is at  -4.991522 -1.952087  0.810585
       Atomic Center   28 is at  -4.615074 -2.370259 -0.872351
       Atomic Center   29 is at  -1.993980 -2.104673  1.761462
       Atomic Center   30 is at  -0.231227 -0.350266  1.812311
   18710 points will be used for fitting atomic charges
 Fitting point charges to electrostatic potential
 Charges from ESP fit, RMS=   0.00356 RRMS=   0.21780:
 ESP charges:
               1
     1  O   -0.470698
     2  S    0.936821
     3  N   -0.647059
     4  C    0.415814
     5  C   -0.224670
     6  C   -0.049583
     7  C   -0.158655
     8  C   -0.045803
     9  C   -0.274678
    10  C   -0.060840
    11  C   -0.072602
    12  C   -0.210230
    13  C    0.239790
    14  C   -0.285262
    15  C   -0.225903
    16  C   -0.042683
    17  O   -0.486319
    18  H    0.354197
    19  H    0.161121
    20  H    0.096783
    21  H    0.108100
    22  H    0.103038
    23  H    0.111503
    24  H    0.113897
    25  H    0.127435
    26  H    0.082326
    27  H    0.093652
    28  H    0.080746
    29  H    0.128441
    30  H    0.101323
 Sum of ESP charges =   0.00000
 ESP charges with hydrogens summed into heavy atoms:
               1
     1  O   -0.470698
     2  S    0.936821
     3  N   -0.292862
     4  C    0.415814
     5  C   -0.063549
     6  C    0.047200
     7  C   -0.050555
     8  C    0.057235
     9  C   -0.163175
    10  C   -0.060840
    11  C    0.041294
    12  C   -0.082796
    13  C    0.239790
    14  C   -0.028538
    15  C   -0.097462
    16  C    0.058640
    17  O   -0.486319
 Charge=   0.00000 Dipole=    -1.7025    -5.2559    -1.7366 Tot=     5.7913
 -----------------------------------------------------------------

              Electrostatic Properties (Atomic Units)

 -----------------------------------------------------------------
    Center     Electric         -------- Electric Field --------
               Potential          X             Y             Z
 -----------------------------------------------------------------
    1 Atom    -22.373378
    2 Atom    -59.026797
    3 Atom    -18.345597
    4 Atom    -14.712674
    5 Atom    -14.763167
    6 Atom    -14.758983
    7 Atom    -14.761231
    8 Atom    -14.756715
    9 Atom    -14.755806
   10 Atom    -14.732023
   11 Atom    -14.744869
   12 Atom    -14.752124
   13 Atom    -14.736845
   14 Atom    -14.755043
   15 Atom    -14.752979
   16 Atom    -14.745693
   17 Atom    -22.373241
   18 Atom     -1.001968
   19 Atom     -1.101926
   20 Atom     -1.099709
   21 Atom     -1.099254
   22 Atom     -1.096085
   23 Atom     -1.087788
   24 Atom     -1.086166
   25 Atom     -1.090230
   26 Atom     -1.100329
   27 Atom     -1.097638
   28 Atom     -1.100291
   29 Atom     -1.091455
   30 Atom     -1.088675
 -----------------------------------------------------------------
 Unable to Open any file for archive entry.
 1\1\GINC-NOTCH453\SP\RwB97XD\def2TZVP\C13H13N1O2S1\U1366379\17-Feb-202
 6\0\\#N Guess=Read Geom=Check Integral(Ultrafine) Density Pop=(ChelpG,
 ReadRadii) NMR wB97XD def2TZVP\\prod_5l_13\\0,1\O,0,0.4269001048,1.608
 870572,2.2065215545\S,0,0.0050728601,1.9093055424,0.8525258163\N,0,1.3
 129701011,1.616071453,-0.1612161598\C,0,1.9399135115,0.3463318044,-0.1
 959059298\C,0,2.5802435353,-0.151013323,0.9446472018\C,0,3.1796795553,
 -1.4070022213,0.904969158\C,0,3.1720111383,-2.1622573338,-0.2679896324
 \C,0,2.5474007077,-1.657613917,-1.4072277904\C,0,1.9203913021,-0.41447
 69144,-1.3696141472\C,0,-1.2076452297,0.6965825873,0.3779081689\C,0,-2
 .1628029452,1.0291639333,-0.5807414354\C,0,-3.067996902,0.0586774007,-
 0.9983116068\C,0,-3.030816558,-1.2401037635,-0.4741549157\C,0,-4.03347
 93445,-2.2751843578,-0.9090371807\C,0,-2.0603559403,-1.5437878652,0.48
 90991705\C,0,-1.1508352848,-0.5849755664,0.9236975015\O,0,-0.472083037
 5,3.2206644644,0.4571674989\H,0,1.1456505934,2.0469978404,-1.066304918
 5\H,0,2.5921091615,0.4532699115,1.8517033076\H,0,3.6736627177,-1.79218
 47087,1.7996245827\H,0,3.6553428482,-3.140878639,-0.2947501898\H,0,2.5
 34503158,-2.2400597733,-2.3309124216\H,0,1.4064008771,-0.0298263292,-2
 .2541799224\H,0,-2.1979808891,2.0446449269,-0.9797700891\H,0,-3.822727
 9731,0.3164769441,-1.7455823031\H,0,-3.6154212758,-3.2899031204,-0.849
 6910503\H,0,-4.9233088282,-2.246021429,-0.259589225\H,0,-4.3719115353,
 -2.1002338336,-1.9399355952\H,0,-2.0163889929,-2.5510068914,0.91067191
 66\H,0,-0.4034674356,-0.8217173934,1.6825986359\\Version=ES64L-G16RevC
 .01\State=1-A\HF=-1106.6304774\RMSD=3.947e-09\Dipole=-0.4910532,-1.824
 8097,-1.3815465\Quadrupole=4.8103697,-4.5444848,-0.2658849,0.6085979,2
 .8030161,-5.4407028\PG=C01 [X(C13H13N1O2S1)]\\@
 The archive entry for this job was punched.


 WOE UNTO THEM THAT CALL EVIL GOOD, AND GOOD EVIL      
 Job cpu time:       0 days  0 hours 59 minutes 33.4 seconds.
 Elapsed time:       0 days  0 hours  7 minutes 38.2 seconds.
 File lengths (MBytes):  RWF=    226 Int=      0 D2E=      0 Chk=     34 Scr=      2
 Normal termination of Gaussian 16 at Tue Feb 17 16:35:36 2026.
