 Entering Gaussian System, Link 0=g16
 Input=prod_5l_40.com
 Output=prod_5l_40.log
 Initial command:
 /uufs/chpc.utah.edu/sys/installdir/gaussian16/C01/AVX/g16/l1.exe "/scratch/general/vast/u1366379/GAUSSSCRDIR/11028717-notchpeak.peaks/Gau-1294089.inp" -scrdir="/scratch/general/vast/u1366379/GAUSSSCRDIR/11028717-notchpeak.peaks/"
 Entering Link 1 = /uufs/chpc.utah.edu/sys/installdir/gaussian16/C01/AVX/g16/l1.exe PID=   1294093.
  
 Copyright (c) 1988-2019, Gaussian, Inc.  All Rights Reserved.
  
 This is part of the Gaussian(R) 16 program.  It is based on
 the Gaussian(R) 09 system (copyright 2009, Gaussian, Inc.),
 the Gaussian(R) 03 system (copyright 2003, Gaussian, Inc.),
 the Gaussian(R) 98 system (copyright 1998, Gaussian, Inc.),
 the Gaussian(R) 94 system (copyright 1995, Gaussian, Inc.),
 the Gaussian 92(TM) system (copyright 1992, Gaussian, Inc.),
 the Gaussian 90(TM) system (copyright 1990, Gaussian, Inc.),
 the Gaussian 88(TM) system (copyright 1988, Gaussian, Inc.),
 the Gaussian 86(TM) system (copyright 1986, Carnegie Mellon
 University), and the Gaussian 82(TM) system (copyright 1983,
 Carnegie Mellon University). Gaussian is a federally registered
 trademark of Gaussian, Inc.
  
 This software contains proprietary and confidential information,
 including trade secrets, belonging to Gaussian, Inc.
  
 This software is provided under written license and may be
 used, copied, transmitted, or stored only in accord with that
 written license.
  
 The following legend is applicable only to US Government
 contracts under FAR:
  
                    RESTRICTED RIGHTS LEGEND
  
 Use, reproduction and disclosure by the US Government is
 subject to restrictions as set forth in subparagraphs (a)
 and (c) of the Commercial Computer Software - Restricted
 Rights clause in FAR 52.227-19.
  
 Gaussian, Inc.
 340 Quinnipiac St., Bldg. 40, Wallingford CT 06492
  
  
 ---------------------------------------------------------------
 Warning -- This program may not be used in any manner that
 competes with the business of Gaussian, Inc. or will provide
 assistance to any competitor of Gaussian, Inc.  The licensee
 of this program is prohibited from giving any competitor of
 Gaussian, Inc. access to this program.  By using this program,
 the user acknowledges that Gaussian, Inc. is engaged in the
 business of creating and licensing software in the field of
 computational chemistry and represents and warrants to the
 licensee that it is not a competitor of Gaussian, Inc. and that
 it will not use this program in any manner prohibited above.
 ---------------------------------------------------------------
  

 Cite this work as:
 Gaussian 16, Revision C.01,
 M. J. Frisch, G. W. Trucks, H. B. Schlegel, G. E. Scuseria, 
 M. A. Robb, J. R. Cheeseman, G. Scalmani, V. Barone, 
 G. A. Petersson, H. Nakatsuji, X. Li, M. Caricato, A. V. Marenich, 
 J. Bloino, B. G. Janesko, R. Gomperts, B. Mennucci, H. P. Hratchian, 
 J. V. Ortiz, A. F. Izmaylov, J. L. Sonnenberg, D. Williams-Young, 
 F. Ding, F. Lipparini, F. Egidi, J. Goings, B. Peng, A. Petrone, 
 T. Henderson, D. Ranasinghe, V. G. Zakrzewski, J. Gao, N. Rega, 
 G. Zheng, W. Liang, M. Hada, M. Ehara, K. Toyota, R. Fukuda, 
 J. Hasegawa, M. Ishida, T. Nakajima, Y. Honda, O. Kitao, H. Nakai, 
 T. Vreven, K. Throssell, J. A. Montgomery, Jr., J. E. Peralta, 
 F. Ogliaro, M. J. Bearpark, J. J. Heyd, E. N. Brothers, K. N. Kudin, 
 V. N. Staroverov, T. A. Keith, R. Kobayashi, J. Normand, 
 K. Raghavachari, A. P. Rendell, J. C. Burant, S. S. Iyengar, 
 J. Tomasi, M. Cossi, J. M. Millam, M. Klene, C. Adamo, R. Cammi, 
 J. W. Ochterski, R. L. Martin, K. Morokuma, O. Farkas, 
 J. B. Foresman, and D. J. Fox, Gaussian, Inc., Wallingford CT, 2019.
 
 ******************************************
 Gaussian 16:  ES64L-G16RevC.01  3-Jul-2019
                17-Feb-2026 
 ******************************************
 %NProcShared=8
 Will use up to    8 processors via shared memory.
 %Mem=8GB
 %chk=prod_5l_40.chk
 ------------------------------------------------------
 #N OPT FREQ=NORAMAN Integral(Ultrafine) wB97XD def2SVP
 ------------------------------------------------------
 1/18=20,19=15,26=4,38=1/1,3;
 2/9=110,12=2,17=6,18=5,40=1/2;
 3/5=43,7=101,11=2,25=1,30=1,71=1,74=-58,75=-5/1,2,3;
 4//1;
 5/5=2,38=5/2;
 6/7=2,8=2,9=2,10=2,28=1/1;
 7//1,2,3,16;
 1/18=20,19=15,26=4/3(2);
 2/9=110/2;
 99//99;
 2/9=110/2;
 3/5=43,7=101,11=2,25=1,30=1,71=1,74=-58,75=-5/1,2,3;
 4/5=5,16=3,69=1/1;
 5/5=2,38=5/2;
 7//1,2,3,16;
 1/18=20,19=15,26=4/3(-5);
 2/9=110/2;
 6/7=2,8=2,9=2,10=2,19=2,28=1/1;
 99/9=1/99;
 ----------
 prod_5l_40
 ----------
 Symbolic Z-matrix:
 Charge =  0 Multiplicity = 1
 O                     0.43052   1.77227   1.42707 
 S                     0.01041   1.63984  -0.00804 
 N                     1.09148   0.76223  -0.99772 
 C                     2.07395  -0.06669  -0.45868 
 C                     2.12323  -0.41692   0.89523 
 C                     3.08754  -1.27105   1.37371 
 C                     4.03218  -1.79923   0.5168 
 C                     4.00914  -1.46462  -0.82256 
 C                     3.04569  -0.61073  -1.30597 
 C                    -1.36043   0.47893  -0.00081 
 C                    -2.3005    0.56655   0.99732 
 C                    -3.36416  -0.31281   1.02168 
 C                    -3.49324  -1.29249   0.04788 
 C                    -4.65566  -2.22103   0.05945 
 C                    -2.53886  -1.36233  -0.95681 
 C                    -1.47631  -0.48218  -0.97623 
 O                    -0.4097    2.83838  -0.8065 
 H                     1.37981   1.41505  -1.69894 
 H                     1.4111    0.02406   1.56813 
 H                     3.11132  -1.52173   2.42152 
 H                     4.78902  -2.46729   0.89352 
 H                     4.74745  -1.87555  -1.4913 
 H                     3.0185   -0.35621  -2.35083 
 H                    -2.19288   1.32617   1.75463 
 H                    -4.10544  -0.24165   1.79888 
 H                    -5.5163   -1.76882  -0.43415 
 H                    -4.42178  -3.15223  -0.45728 
 H                    -4.94598  -2.47264   1.07991 
 H                    -2.63457  -2.1105   -1.72465 
 H                    -0.72904  -0.53929  -1.74889 
 

 GradGradGradGradGradGradGradGradGradGradGradGradGradGradGradGradGradGrad
 Berny optimization.
 Initialization pass.
                           ----------------------------
                           !    Initial Parameters    !
                           ! (Angstroms and Degrees)  !
 --------------------------                            --------------------------
 ! Name  Definition              Value          Derivative Info.                !
 --------------------------------------------------------------------------------
 ! R1    R(1,2)                  1.5012         estimate D2E/DX2                !
 ! R2    R(2,3)                  1.7083         estimate D2E/DX2                !
 ! R3    R(2,10)                 1.7964         estimate D2E/DX2                !
 ! R4    R(2,17)                 1.5002         estimate D2E/DX2                !
 ! R5    R(3,4)                  1.3939         estimate D2E/DX2                !
 ! R6    R(3,18)                 1.0005         estimate D2E/DX2                !
 ! R7    R(4,5)                  1.3993         estimate D2E/DX2                !
 ! R8    R(4,9)                  1.3993         estimate D2E/DX2                !
 ! R9    R(5,6)                  1.3742         estimate D2E/DX2                !
 ! R10   R(5,19)                 1.0744         estimate D2E/DX2                !
 ! R11   R(6,7)                  1.3804         estimate D2E/DX2                !
 ! R12   R(6,20)                 1.0776         estimate D2E/DX2                !
 ! R13   R(7,8)                  1.3807         estimate D2E/DX2                !
 ! R14   R(7,21)                 1.0775         estimate D2E/DX2                !
 ! R15   R(8,9)                  1.3752         estimate D2E/DX2                !
 ! R16   R(8,22)                 1.0776         estimate D2E/DX2                !
 ! R17   R(9,23)                 1.0758         estimate D2E/DX2                !
 ! R18   R(10,11)                1.3739         estimate D2E/DX2                !
 ! R19   R(10,16)                1.3743         estimate D2E/DX2                !
 ! R20   R(11,12)                1.3803         estimate D2E/DX2                !
 ! R21   R(11,24)                1.078          estimate D2E/DX2                !
 ! R22   R(12,13)                1.3873         estimate D2E/DX2                !
 ! R23   R(12,25)                1.0764         estimate D2E/DX2                !
 ! R24   R(13,14)                1.4878         estimate D2E/DX2                !
 ! R25   R(13,15)                1.3875         estimate D2E/DX2                !
 ! R26   R(14,26)                1.0903         estimate D2E/DX2                !
 ! R27   R(14,27)                1.0903         estimate D2E/DX2                !
 ! R28   R(14,28)                1.0904         estimate D2E/DX2                !
 ! R29   R(15,16)                1.3799         estimate D2E/DX2                !
 ! R30   R(15,29)                1.0763         estimate D2E/DX2                !
 ! R31   R(16,30)                1.0764         estimate D2E/DX2                !
 ! A1    A(1,2,3)              114.964          estimate D2E/DX2                !
 ! A2    A(1,2,10)             105.4692         estimate D2E/DX2                !
 ! A3    A(1,2,17)             121.1116         estimate D2E/DX2                !
 ! A4    A(3,2,10)              98.8155         estimate D2E/DX2                !
 ! A5    A(3,2,17)             106.2187         estimate D2E/DX2                !
 ! A6    A(10,2,17)            107.7432         estimate D2E/DX2                !
 ! A7    A(2,3,4)              121.8373         estimate D2E/DX2                !
 ! A8    A(2,3,18)             104.6669         estimate D2E/DX2                !
 ! A9    A(4,3,18)             117.1251         estimate D2E/DX2                !
 ! A10   A(3,4,5)              123.2177         estimate D2E/DX2                !
 ! A11   A(3,4,9)              119.1114         estimate D2E/DX2                !
 ! A12   A(5,4,9)              117.6502         estimate D2E/DX2                !
 ! A13   A(4,5,6)              121.1422         estimate D2E/DX2                !
 ! A14   A(4,5,19)             118.6782         estimate D2E/DX2                !
 ! A15   A(6,5,19)             120.1423         estimate D2E/DX2                !
 ! A16   A(5,6,7)              120.1242         estimate D2E/DX2                !
 ! A17   A(5,6,20)             119.909          estimate D2E/DX2                !
 ! A18   A(7,6,20)             119.9645         estimate D2E/DX2                !
 ! A19   A(6,7,8)              119.8687         estimate D2E/DX2                !
 ! A20   A(6,7,21)             120.0562         estimate D2E/DX2                !
 ! A21   A(8,7,21)             120.0744         estimate D2E/DX2                !
 ! A22   A(7,8,9)              120.2103         estimate D2E/DX2                !
 ! A23   A(7,8,22)             119.878          estimate D2E/DX2                !
 ! A24   A(9,8,22)             119.9116         estimate D2E/DX2                !
 ! A25   A(4,9,8)              121.0032         estimate D2E/DX2                !
 ! A26   A(4,9,23)             118.5917         estimate D2E/DX2                !
 ! A27   A(8,9,23)             120.4015         estimate D2E/DX2                !
 ! A28   A(2,10,11)            118.9371         estimate D2E/DX2                !
 ! A29   A(2,10,16)            120.8942         estimate D2E/DX2                !
 ! A30   A(11,10,16)           120.1685         estimate D2E/DX2                !
 ! A31   A(10,11,12)           119.9638         estimate D2E/DX2                !
 ! A32   A(10,11,24)           119.1426         estimate D2E/DX2                !
 ! A33   A(12,11,24)           120.8936         estimate D2E/DX2                !
 ! A34   A(11,12,13)           120.6096         estimate D2E/DX2                !
 ! A35   A(11,12,25)           120.0873         estimate D2E/DX2                !
 ! A36   A(13,12,25)           119.3029         estimate D2E/DX2                !
 ! A37   A(12,13,14)           120.5273         estimate D2E/DX2                !
 ! A38   A(12,13,15)           118.673          estimate D2E/DX2                !
 ! A39   A(14,13,15)           120.7727         estimate D2E/DX2                !
 ! A40   A(13,14,26)           110.7533         estimate D2E/DX2                !
 ! A41   A(13,14,27)           111.2069         estimate D2E/DX2                !
 ! A42   A(13,14,28)           111.0583         estimate D2E/DX2                !
 ! A43   A(26,14,27)           107.9977         estimate D2E/DX2                !
 ! A44   A(26,14,28)           108.0118         estimate D2E/DX2                !
 ! A45   A(27,14,28)           107.6718         estimate D2E/DX2                !
 ! A46   A(13,15,16)           120.5141         estimate D2E/DX2                !
 ! A47   A(13,15,29)           119.3662         estimate D2E/DX2                !
 ! A48   A(16,15,29)           120.1196         estimate D2E/DX2                !
 ! A49   A(10,16,15)           120.0681         estimate D2E/DX2                !
 ! A50   A(10,16,30)           119.2124         estimate D2E/DX2                !
 ! A51   A(15,16,30)           120.7193         estimate D2E/DX2                !
 ! D1    D(1,2,3,4)             16.8484         estimate D2E/DX2                !
 ! D2    D(1,2,3,18)          -118.9812         estimate D2E/DX2                !
 ! D3    D(10,2,3,4)           -94.8625         estimate D2E/DX2                !
 ! D4    D(10,2,3,18)          129.3079         estimate D2E/DX2                !
 ! D5    D(17,2,3,4)           153.6506         estimate D2E/DX2                !
 ! D6    D(17,2,3,18)           17.8211         estimate D2E/DX2                !
 ! D7    D(1,2,10,11)           40.8816         estimate D2E/DX2                !
 ! D8    D(1,2,10,16)         -139.2868         estimate D2E/DX2                !
 ! D9    D(3,2,10,11)          159.964          estimate D2E/DX2                !
 ! D10   D(3,2,10,16)          -20.2044         estimate D2E/DX2                !
 ! D11   D(17,2,10,11)         -89.7698         estimate D2E/DX2                !
 ! D12   D(17,2,10,16)          90.0618         estimate D2E/DX2                !
 ! D13   D(2,3,4,5)             10.5842         estimate D2E/DX2                !
 ! D14   D(2,3,4,9)           -171.1115         estimate D2E/DX2                !
 ! D15   D(18,3,4,5)           141.3493         estimate D2E/DX2                !
 ! D16   D(18,3,4,9)           -40.3464         estimate D2E/DX2                !
 ! D17   D(3,4,5,6)            177.9641         estimate D2E/DX2                !
 ! D18   D(3,4,5,19)            -4.2558         estimate D2E/DX2                !
 ! D19   D(9,4,5,6)             -0.3633         estimate D2E/DX2                !
 ! D20   D(9,4,5,19)           177.4167         estimate D2E/DX2                !
 ! D21   D(3,4,9,8)           -178.0635         estimate D2E/DX2                !
 ! D22   D(3,4,9,23)             1.2449         estimate D2E/DX2                !
 ! D23   D(5,4,9,8)              0.335          estimate D2E/DX2                !
 ! D24   D(5,4,9,23)           179.6434         estimate D2E/DX2                !
 ! D25   D(4,5,6,7)              0.1058         estimate D2E/DX2                !
 ! D26   D(4,5,6,20)           179.556          estimate D2E/DX2                !
 ! D27   D(19,5,6,7)          -177.642          estimate D2E/DX2                !
 ! D28   D(19,5,6,20)            1.8082         estimate D2E/DX2                !
 ! D29   D(5,6,7,8)              0.1916         estimate D2E/DX2                !
 ! D30   D(5,6,7,21)           179.8765         estimate D2E/DX2                !
 ! D31   D(20,6,7,8)          -179.2583         estimate D2E/DX2                !
 ! D32   D(20,6,7,21)            0.4266         estimate D2E/DX2                !
 ! D33   D(6,7,8,9)             -0.2194         estimate D2E/DX2                !
 ! D34   D(6,7,8,22)           179.8989         estimate D2E/DX2                !
 ! D35   D(21,7,8,9)          -179.9042         estimate D2E/DX2                !
 ! D36   D(21,7,8,22)            0.2141         estimate D2E/DX2                !
 ! D37   D(7,8,9,4)             -0.0498         estimate D2E/DX2                !
 ! D38   D(7,8,9,23)          -179.3457         estimate D2E/DX2                !
 ! D39   D(22,8,9,4)           179.8319         estimate D2E/DX2                !
 ! D40   D(22,8,9,23)            0.5359         estimate D2E/DX2                !
 ! D41   D(2,10,11,12)         179.8572         estimate D2E/DX2                !
 ! D42   D(2,10,11,24)          -0.2256         estimate D2E/DX2                !
 ! D43   D(16,10,11,12)          0.0244         estimate D2E/DX2                !
 ! D44   D(16,10,11,24)        179.9416         estimate D2E/DX2                !
 ! D45   D(2,10,16,15)        -179.7738         estimate D2E/DX2                !
 ! D46   D(2,10,16,30)           0.3954         estimate D2E/DX2                !
 ! D47   D(11,10,16,15)          0.0557         estimate D2E/DX2                !
 ! D48   D(11,10,16,30)       -179.7751         estimate D2E/DX2                !
 ! D49   D(10,11,12,13)          0.2434         estimate D2E/DX2                !
 ! D50   D(10,11,12,25)       -179.5799         estimate D2E/DX2                !
 ! D51   D(24,11,12,13)       -179.6723         estimate D2E/DX2                !
 ! D52   D(24,11,12,25)          0.5044         estimate D2E/DX2                !
 ! D53   D(11,12,13,14)       -178.7057         estimate D2E/DX2                !
 ! D54   D(11,12,13,15)         -0.5798         estimate D2E/DX2                !
 ! D55   D(25,12,13,14)          1.1189         estimate D2E/DX2                !
 ! D56   D(25,12,13,15)        179.2448         estimate D2E/DX2                !
 ! D57   D(12,13,14,26)         84.1813         estimate D2E/DX2                !
 ! D58   D(12,13,14,27)       -155.7227         estimate D2E/DX2                !
 ! D59   D(12,13,14,28)        -35.8342         estimate D2E/DX2                !
 ! D60   D(15,13,14,26)        -93.905          estimate D2E/DX2                !
 ! D61   D(15,13,14,27)         26.191          estimate D2E/DX2                !
 ! D62   D(15,13,14,28)        146.0795         estimate D2E/DX2                !
 ! D63   D(12,13,15,16)          0.6596         estimate D2E/DX2                !
 ! D64   D(12,13,15,29)       -179.2701         estimate D2E/DX2                !
 ! D65   D(14,13,15,16)        178.7808         estimate D2E/DX2                !
 ! D66   D(14,13,15,29)         -1.1489         estimate D2E/DX2                !
 ! D67   D(13,15,16,10)         -0.4043         estimate D2E/DX2                !
 ! D68   D(13,15,16,30)        179.4239         estimate D2E/DX2                !
 ! D69   D(29,15,16,10)        179.5249         estimate D2E/DX2                !
 ! D70   D(29,15,16,30)         -0.6469         estimate D2E/DX2                !
 --------------------------------------------------------------------------------
 Trust Radius=3.00D-01 FncErr=1.00D-07 GrdErr=1.00D-06 EigMax=2.50D+02 EigMin=1.00D-04
 Number of steps in this run=    162 maximum allowed number of steps=    180.
 GradGradGradGradGradGradGradGradGradGradGradGradGradGradGradGradGradGrad

                          Input orientation:                          
 ---------------------------------------------------------------------
 Center     Atomic      Atomic             Coordinates (Angstroms)
 Number     Number       Type             X           Y           Z
 ---------------------------------------------------------------------
      1          8           0        0.430520    1.772270    1.427070
      2         16           0        0.010410    1.639840   -0.008040
      3          7           0        1.091480    0.762230   -0.997720
      4          6           0        2.073950   -0.066690   -0.458680
      5          6           0        2.123230   -0.416920    0.895230
      6          6           0        3.087540   -1.271050    1.373710
      7          6           0        4.032180   -1.799230    0.516800
      8          6           0        4.009140   -1.464620   -0.822560
      9          6           0        3.045690   -0.610730   -1.305970
     10          6           0       -1.360430    0.478930   -0.000810
     11          6           0       -2.300500    0.566550    0.997320
     12          6           0       -3.364160   -0.312810    1.021680
     13          6           0       -3.493240   -1.292490    0.047880
     14          6           0       -4.655660   -2.221030    0.059450
     15          6           0       -2.538860   -1.362330   -0.956810
     16          6           0       -1.476310   -0.482180   -0.976230
     17          8           0       -0.409700    2.838380   -0.806500
     18          1           0        1.379810    1.415050   -1.698940
     19          1           0        1.411100    0.024060    1.568130
     20          1           0        3.111320   -1.521730    2.421520
     21          1           0        4.789020   -2.467290    0.893520
     22          1           0        4.747450   -1.875550   -1.491300
     23          1           0        3.018500   -0.356210   -2.350830
     24          1           0       -2.192880    1.326170    1.754630
     25          1           0       -4.105440   -0.241650    1.798880
     26          1           0       -5.516300   -1.768820   -0.434150
     27          1           0       -4.421780   -3.152230   -0.457280
     28          1           0       -4.945980   -2.472640    1.079910
     29          1           0       -2.634570   -2.110500   -1.724650
     30          1           0       -0.729040   -0.539290   -1.748890
 ---------------------------------------------------------------------
                    Distance matrix (angstroms):
                    1          2          3          4          5
     1  O    0.000000
     2  S    1.501190   0.000000
     3  N    2.708626   1.708326   0.000000
     4  C    3.104624   2.715422   1.393887   0.000000
     5  C    2.817920   3.083856   2.457267   1.399343   0.000000
     6  C    4.040346   4.455473   3.707042   2.415678   1.374182
     7  C    5.153267   5.317640   4.183607   2.790685   2.387065
     8  C    5.323985   5.127471   3.674545   2.414866   2.757741
     9  C    4.470717   3.995324   2.408106   1.399342   2.394530
    10  C    2.630413   1.796376   2.661945   3.507465   3.706929
    11  C    3.016109   2.739161   3.940051   4.653680   4.532882
    12  C    4.348735   4.032479   5.008634   5.641372   5.489834
    13  C    5.166315   4.569163   5.131745   5.723006   5.747118
    14  C    6.609543   6.056656   6.561026   7.085005   7.064467
    15  C    4.932121   4.051169   4.206518   4.817139   5.104795
    16  C    3.807151   2.765989   2.853518   3.611764   4.057500
    17  O    2.613694   1.500176   2.569145   3.837829   4.461905
    18  H    3.286441   2.187448   1.000509   2.053200   3.261672
    19  H    2.009396   2.656499   2.688985   2.134377   1.074424
    20  H    4.361887   5.051132   4.581204   3.389518   2.127554
    21  H    6.103693   6.365253   5.261026   3.868195   3.363102
    22  H    6.360767   6.082563   4.535154   3.389083   3.835317
    23  H    5.049811   4.303660   2.606764   2.134532   3.367803
    24  H    2.681143   2.838993   4.322092   5.004462   4.733470
    25  H    4.976851   4.872903   5.986378   6.581189   6.296319
    26  H    7.167156   6.507308   7.098351   7.778801   7.871296
    27  H    7.165633   6.542940   6.783149   7.191319   7.221382
    28  H    6.859048   6.531610   7.157643   7.578606   7.364362
    29  H    5.865494   4.899767   4.760720   5.286776   5.689345
    30  H    4.095682   2.885473   2.360615   3.121657   3.891245
                    6          7          8          9         10
     6  C    0.000000
     7  C    1.380440   0.000000
     8  C    2.389648   1.380717   0.000000
     9  C    2.760156   2.389181   1.375154   0.000000
    10  C    4.973547   5.876919   5.769310   4.722785   0.000000
    11  C    5.705210   6.777216   6.873803   5.939098   1.373926
    12  C    6.531966   7.561097   7.687226   6.825898   2.384800
    13  C    6.713043   7.557024   7.554667   6.712325   2.772937
    14  C    7.911187   8.710089   8.742360   7.985501   4.260511
    15  C    6.090651   6.748405   6.550175   5.645708   2.385974
    16  C    5.193579   5.857237   5.574851   4.535828   1.374265
    17  O    5.819916   6.556588   6.167837   4.907703   2.668338
    18  H    4.424099   4.719763   3.996738   2.652049   3.356915
    19  H    2.127336   3.361509   3.831629   3.366793   3.217120
    20  H    1.077642   2.133764   3.366511   3.837761   5.465059
    21  H    2.134621   1.077511   2.135062   3.365081   6.877192
    22  H    3.365859   2.133050   1.077580   2.128404   6.713519
    23  H    3.835870   3.366475   2.132029   1.075757   5.039353
    24  H    5.896905   7.074724   7.272927   6.368789   2.119518
    25  H    7.278695   8.383952   8.614755   7.804805   3.360536
    26  H    8.805805   9.595765   9.538208   8.683831   4.744620
    27  H    7.954951   8.616779   8.605921   7.933638   4.771326
    28  H    8.128197   9.020972   9.210302   8.545521   4.768217
    29  H    6.561025   7.040351   6.735712   5.889818   3.361578
    30  H    4.985217   5.421256   4.915758   3.801298   2.119247
                   11         12         13         14         15
    11  C    0.000000
    12  C    1.380304   0.000000
    13  C    2.404183   1.387343   0.000000
    14  C    3.767888   2.497031   1.487797   0.000000
    15  C    2.756087   2.386846   1.387487   2.500198   0.000000
    16  C    2.382021   2.753962   2.402792   3.768886   1.379875
    17  O    3.462673   4.690530   5.225158   6.661507   4.711887
    18  H    4.640523   5.735200   5.841983   7.262225   4.860100
    19  H    3.794218   4.818215   5.300662   6.642448   4.888720
    20  H    5.973027   6.734455   7.021889   8.148274   6.585063
    21  H    7.712085   8.434012   8.407800   9.484635   7.638225
    22  H    7.863249   8.634549   8.403452   9.536386   7.323892
    23  H    6.352429   7.219007   7.002370   8.257102   5.817200
    24  H    1.078018   2.143681   3.385456   4.639132   3.834011
    25  H    2.133892   1.076383   2.131913   2.691896   3.362131
    26  H    4.224267   2.978441   2.133545   1.090338   3.050173
    27  H    4.521616   3.371674   2.139160   1.090341   2.645498
    28  H    4.030144   2.677762   2.137357   1.090382   3.342939
    29  H    3.832404   3.362487   2.132678   2.698154   1.076335
    30  H    3.351722   3.830301   3.381789   4.638608   2.140148
                   16         17         18         19         20
    16  C    0.000000
    17  O    3.491788   0.000000
    18  H    3.504171   2.454519   0.000000
    19  H    3.881647   4.107868   3.550997   0.000000
    20  H    5.802734   6.467477   5.347990   2.451222   0.000000
    21  H    6.833080   7.620164   5.780668   4.251149   2.458362
    22  H    6.398591   7.020419   4.712978   4.909161   4.255851
    23  H    4.701990   4.933854   2.499525   4.252833   4.913489
    24  H    3.352790   3.467837   4.969825   3.836528   6.057212
    25  H    3.830328   5.471114   6.713223   5.527754   7.355808
    26  H    4.274437   6.887837   7.700198   7.430506   9.091300
    27  H    4.009273   7.218459   7.487337   6.943601   8.227613
    28  H    4.497583   7.234868   7.927910   6.847214   8.223395
    29  H    2.133805   5.503132   5.342791   5.636150   7.110037
    30  H    1.076419   3.521183   2.875620   3.987503   5.753770
                   21         22         23         24         25
    21  H    0.000000
    22  H    2.457489   0.000000
    23  H    4.256431   2.456920   0.000000
    24  H    7.992420   8.303930   6.844245   0.000000
    25  H    9.213282   9.584810   8.245225   2.473440   0.000000
    26  H   10.413942  10.318601   8.860696   5.041313   3.051098
    27  H    9.334487   9.315250   8.170742   5.469608   3.696188
    28  H    9.736786  10.046403   8.926488   4.739806   2.490129
    29  H    7.879835   7.389443   5.952045   4.910314   4.251038
    30  H    6.414710   5.643039   3.799988   4.230534   4.906663
                   26         27         28         29         30
    26  H    0.000000
    27  H    1.764180   0.000000
    28  H    1.764371   1.760563   0.000000
    29  H    3.175926   2.426015   3.652303   0.000000
    30  H    5.114503   4.704470   5.433464   2.469885   0.000000
 Stoichiometry    C13H13NO2S
 Framework group  C1[X(C13H13NO2S)]
 Deg. of freedom    84
 Full point group                 C1      NOp   1
 Largest Abelian subgroup         C1      NOp   1
 Largest concise Abelian subgroup C1      NOp   1
                         Standard orientation:                         
 ---------------------------------------------------------------------
 Center     Atomic      Atomic             Coordinates (Angstroms)
 Number     Number       Type             X           Y           Z
 ---------------------------------------------------------------------
      1          8           0        0.433348    1.845170    1.408384
      2         16           0        0.053135    1.691361   -0.035691
      3          7           0        1.152087    0.784239   -0.977930
      4          6           0        2.109144   -0.045444   -0.396048
      5          6           0        2.115523   -0.371615    0.964736
      6          6           0        3.055880   -1.227401    1.486017
      7          6           0        4.018644   -1.781279    0.666311
      8          6           0        4.037896   -1.470748   -0.678896
      9          6           0        3.098537   -0.615300   -1.205074
     10          6           0       -1.330514    0.545785   -0.047454
     11          6           0       -2.297795    0.661709    0.921360
     12          6           0       -3.371688   -0.205418    0.930591
     13          6           0       -3.483930   -1.201107   -0.028954
     14          6           0       -4.656730   -2.116558   -0.034486
     15          6           0       -2.501954   -1.299530   -1.004226
     16          6           0       -1.429304   -0.431511   -1.008566
     17          8           0       -0.330160    2.879753   -0.867158
     18          1           0        1.467869    1.421072   -1.682021
     19          1           0        1.389447    0.089216    1.608813
     20          1           0        3.046699   -1.459309    2.538370
     21          1           0        4.756677   -2.450618    1.076581
     22          1           0        4.790364   -1.901745   -1.318592
     23          1           0        3.104270   -0.379462   -2.254645
     24          1           0       -2.203299    1.433700    1.667833
     25          1           0       -4.134119   -0.112118    1.684643
     26          1           0       -5.497622   -1.664006   -0.560731
     27          1           0       -4.418757   -3.059457   -0.527591
     28          1           0       -4.979087   -2.346467    0.981467
     29          1           0       -2.584113   -2.060394   -1.761083
     30          1           0       -0.660856   -0.510747   -1.758157
 ---------------------------------------------------------------------
 Rotational constants (GHZ):           0.7024645           0.2730711           0.2336089
 Standard basis: def2SVP (5D, 7F)
 There are   324 symmetry adapted cartesian basis functions of A   symmetry.
 There are   307 symmetry adapted basis functions of A   symmetry.
   307 basis functions,   528 primitive gaussians,   324 cartesian basis functions
    65 alpha electrons       65 beta electrons
       nuclear repulsion energy      1310.7388496026 Hartrees.
 NAtoms=   30 NActive=   30 NUniq=   30 SFac= 1.00D+00 NAtFMM=   60 NAOKFM=F Big=F
 Integral buffers will be    131072 words long.
 Raffenetti 2 integral format.
 Two-electron integral symmetry is turned on.
 Nuclear repulsion after empirical dispersion term =     1310.7199090199 Hartrees.
 One-electron integrals computed using PRISM.
   1 Symmetry operations used in ECPInt.
 ECPInt:  NShTT=   10296 NPrTT=   38220 LenC2=    9424 LenP2D=   24700.
 LDataN:  DoStor=T MaxTD1= 4 Len=   56
 NBasis=   307 RedAO= T EigKep=  2.37D-04  NBF=   307
 NBsUse=   307 1.00D-06 EigRej= -1.00D+00 NBFU=   307
 ExpMin= 1.22D-01 ExpMax= 9.18D+03 ExpMxC= 1.38D+03 IAcc=3 IRadAn=         5 AccDes= 0.00D+00
 Harris functional with IExCor= 4639 and IRadAn=       5 diagonalized for initial guess.
 HarFok:  IExCor= 4639 AccDes= 0.00D+00 IRadAn=         5 IDoV= 1 UseB2=F ITyADJ=14
 ICtDFT=  3500011 ScaDFX=  1.000000  1.000000  1.000000  1.000000
 FoFCou: FMM=F IPFlag=           0 FMFlag=      100000 FMFlg1=           0
         NFxFlg=           0 DoJE=T BraDBF=F KetDBF=T FulRan=T
         wScrn=  0.000000 ICntrl=       500 IOpCl=  0 I1Cent=   200000004 NGrid=           0
         NMat0=    1 NMatS0=      1 NMatT0=    0 NMatD0=    1 NMtDS0=    0 NMtDT0=    0
 Petite list used in FoFCou.
 Requested convergence on RMS density matrix=1.00D-08 within 128 cycles.
 Requested convergence on MAX density matrix=1.00D-06.
 Requested convergence on             energy=1.00D-06.
 No special actions if energy rises.
 Integral accuracy reduced to 1.0D-05 until final iterations.
 Initial convergence to 1.0D-05 achieved.  Increase integral accuracy.
 SCF Done:  E(RwB97XD) =  -1105.64362083     A.U. after   15 cycles
            NFock= 15  Conv=0.10D-07     -V/T= 2.0071

 **********************************************************************

            Population analysis using the SCF Density.

 **********************************************************************

 Orbital symmetries:
       Occupied  (A) (A) (A) (A) (A) (A) (A) (A) (A) (A) (A) (A)
                 (A) (A) (A) (A) (A) (A) (A) (A) (A) (A) (A) (A)
                 (A) (A) (A) (A) (A) (A) (A) (A) (A) (A) (A) (A)
                 (A) (A) (A) (A) (A) (A) (A) (A) (A) (A) (A) (A)
                 (A) (A) (A) (A) (A) (A) (A) (A) (A) (A) (A) (A)
                 (A) (A) (A) (A) (A)
       Virtual   (A) (A) (A) (A) (A) (A) (A) (A) (A) (A) (A) (A)
                 (A) (A) (A) (A) (A) (A) (A) (A) (A) (A) (A) (A)
                 (A) (A) (A) (A) (A) (A) (A) (A) (A) (A) (A) (A)
                 (A) (A) (A) (A) (A) (A) (A) (A) (A) (A) (A) (A)
                 (A) (A) (A) (A) (A) (A) (A) (A) (A) (A) (A) (A)
                 (A) (A) (A) (A) (A) (A) (A) (A) (A) (A) (A) (A)
                 (A) (A) (A) (A) (A) (A) (A) (A) (A) (A) (A) (A)
                 (A) (A) (A) (A) (A) (A) (A) (A) (A) (A) (A) (A)
                 (A) (A) (A) (A) (A) (A) (A) (A) (A) (A) (A) (A)
                 (A) (A) (A) (A) (A) (A) (A) (A) (A) (A) (A) (A)
                 (A) (A) (A) (A) (A) (A) (A) (A) (A) (A) (A) (A)
                 (A) (A) (A) (A) (A) (A) (A) (A) (A) (A) (A) (A)
                 (A) (A) (A) (A) (A) (A) (A) (A) (A) (A) (A) (A)
                 (A) (A) (A) (A) (A) (A) (A) (A) (A) (A) (A) (A)
                 (A) (A) (A) (A) (A) (A) (A) (A) (A) (A) (A) (A)
                 (A) (A) (A) (A) (A) (A) (A) (A) (A) (A) (A) (A)
                 (A) (A) (A) (A) (A) (A) (A) (A) (A) (A) (A) (A)
                 (A) (A) (A) (A) (A) (A) (A) (A) (A) (A) (A) (A)
                 (A) (A) (A) (A) (A) (A) (A) (A) (A) (A) (A) (A)
                 (A) (A) (A) (A) (A) (A) (A) (A) (A) (A) (A) (A)
                 (A) (A)
 The electronic state is 1-A.
 Alpha  occ. eigenvalues --  -89.25643 -19.25895 -19.25418 -14.50248 -10.35672
 Alpha  occ. eigenvalues --  -10.33352 -10.32511 -10.32180 -10.32068 -10.31359
 Alpha  occ. eigenvalues --  -10.31342 -10.30708 -10.30699 -10.30507 -10.30144
 Alpha  occ. eigenvalues --  -10.29705 -10.29531  -8.27402  -6.22850  -6.22720
 Alpha  occ. eigenvalues --   -6.22597  -1.20154  -1.08574  -1.05544  -0.98578
 Alpha  occ. eigenvalues --   -0.95481  -0.90184  -0.86353  -0.85185  -0.84743
 Alpha  occ. eigenvalues --   -0.81438  -0.75974  -0.72567  -0.71743  -0.70847
 Alpha  occ. eigenvalues --   -0.68078  -0.64773  -0.63565  -0.60329  -0.58890
 Alpha  occ. eigenvalues --   -0.57693  -0.56451  -0.54961  -0.54124  -0.53557
 Alpha  occ. eigenvalues --   -0.52938  -0.52872  -0.52656  -0.51571  -0.49561
 Alpha  occ. eigenvalues --   -0.48488  -0.47493  -0.46511  -0.45999  -0.44272
 Alpha  occ. eigenvalues --   -0.44134  -0.42796  -0.41294  -0.40837  -0.38819
 Alpha  occ. eigenvalues --   -0.38426  -0.35263  -0.34207  -0.33871  -0.31055
 Alpha virt. eigenvalues --    0.02973   0.04360   0.05803   0.06116   0.10932
 Alpha virt. eigenvalues --    0.13159   0.13818   0.14460   0.15316   0.16010
 Alpha virt. eigenvalues --    0.17185   0.17384   0.18748   0.19302   0.20541
 Alpha virt. eigenvalues --    0.21075   0.21292   0.22736   0.23634   0.24139
 Alpha virt. eigenvalues --    0.24806   0.25517   0.27169   0.29782   0.32469
 Alpha virt. eigenvalues --    0.35295   0.36480   0.37100   0.37177   0.37615
 Alpha virt. eigenvalues --    0.38411   0.39091   0.39758   0.41714   0.43532
 Alpha virt. eigenvalues --    0.45623   0.47273   0.47981   0.48220   0.48963
 Alpha virt. eigenvalues --    0.49370   0.51434   0.51531   0.52403   0.53840
 Alpha virt. eigenvalues --    0.54799   0.55206   0.55675   0.56781   0.57333
 Alpha virt. eigenvalues --    0.58315   0.58539   0.59463   0.60726   0.61887
 Alpha virt. eigenvalues --    0.61938   0.63539   0.63641   0.65490   0.66473
 Alpha virt. eigenvalues --    0.68994   0.69155   0.70358   0.71303   0.71573
 Alpha virt. eigenvalues --    0.72660   0.72912   0.73156   0.74112   0.74439
 Alpha virt. eigenvalues --    0.74737   0.75494   0.75744   0.76510   0.77077
 Alpha virt. eigenvalues --    0.77592   0.78240   0.79375   0.79907   0.80549
 Alpha virt. eigenvalues --    0.80848   0.82539   0.83134   0.83256   0.84117
 Alpha virt. eigenvalues --    0.84802   0.85247   0.88293   0.89044   0.89518
 Alpha virt. eigenvalues --    0.90809   0.91893   0.93416   0.95902   0.96775
 Alpha virt. eigenvalues --    0.98379   0.99522   1.01765   1.03780   1.05672
 Alpha virt. eigenvalues --    1.09168   1.10231   1.11197   1.12306   1.13123
 Alpha virt. eigenvalues --    1.15523   1.17357   1.18276   1.21194   1.22504
 Alpha virt. eigenvalues --    1.24289   1.25064   1.27698   1.28798   1.29311
 Alpha virt. eigenvalues --    1.30069   1.30628   1.32117   1.32378   1.32922
 Alpha virt. eigenvalues --    1.35026   1.35958   1.36737   1.37956   1.38196
 Alpha virt. eigenvalues --    1.38486   1.41086   1.41997   1.42698   1.48434
 Alpha virt. eigenvalues --    1.54778   1.57451   1.59779   1.61287   1.61882
 Alpha virt. eigenvalues --    1.62945   1.64418   1.69387   1.74285   1.75062
 Alpha virt. eigenvalues --    1.76440   1.77719   1.78316   1.80755   1.81435
 Alpha virt. eigenvalues --    1.82369   1.82671   1.83295   1.83703   1.83995
 Alpha virt. eigenvalues --    1.84972   1.85703   1.86020   1.87741   1.87915
 Alpha virt. eigenvalues --    1.88249   1.88815   1.89335   1.92037   1.92925
 Alpha virt. eigenvalues --    1.93643   1.95190   1.96175   2.00286   2.02203
 Alpha virt. eigenvalues --    2.04028   2.04940   2.06158   2.06688   2.08539
 Alpha virt. eigenvalues --    2.10052   2.11031   2.13547   2.13974   2.16357
 Alpha virt. eigenvalues --    2.17961   2.19758   2.21157   2.21541   2.22784
 Alpha virt. eigenvalues --    2.24602   2.26702   2.29135   2.31063   2.31542
 Alpha virt. eigenvalues --    2.32845   2.34775   2.36293   2.38543   2.38854
 Alpha virt. eigenvalues --    2.40516   2.42507   2.44035   2.44340   2.45736
 Alpha virt. eigenvalues --    2.46135   2.51954   2.55435   2.56915   2.56995
 Alpha virt. eigenvalues --    2.59831   2.62311   2.68619   2.70625   2.71795
 Alpha virt. eigenvalues --    2.72506   2.72815   2.73490   2.73804   2.74007
 Alpha virt. eigenvalues --    2.74664   2.75236   2.77036   2.78507   2.81326
 Alpha virt. eigenvalues --    2.82875   2.83144   2.84256   2.85280   2.85858
 Alpha virt. eigenvalues --    2.89299   2.94377   2.94726   2.96563   2.99719
 Alpha virt. eigenvalues --    3.00942   3.01499   3.03071   3.03638   3.04718
 Alpha virt. eigenvalues --    3.06868   3.08931   3.22989   3.23570   3.25313
 Alpha virt. eigenvalues --    3.31375   3.33642   3.34673   3.45461   3.47186
 Alpha virt. eigenvalues --    3.69675   3.78520
          Condensed to atoms (all electrons):
               1          2          3          4          5          6
     1  O    8.176196   0.384102  -0.037910   0.001379  -0.019893   0.001451
     2  S    0.384102  13.964320   0.191309  -0.029614   0.000086  -0.001380
     3  N   -0.037910   0.191309   6.872295   0.248114  -0.076644   0.007639
     4  C    0.001379  -0.029614   0.248114   5.192311   0.260417   0.106494
     5  C   -0.019893   0.000086  -0.076644   0.260417   5.195152   0.264164
     6  C    0.001451  -0.001380   0.007639   0.106494   0.264164   5.051415
     7  C   -0.000031   0.000079  -0.000408  -0.163154   0.086794   0.273911
     8  C   -0.000004  -0.000187   0.006888   0.109768  -0.146242   0.096655
     9  C    0.000296   0.001116  -0.071556   0.261995   0.073843  -0.146812
    10  C   -0.063999   0.243950  -0.078168   0.005036   0.000294  -0.000397
    11  C    0.003374  -0.035998   0.008572  -0.000780  -0.000325  -0.000007
    12  C    0.000985   0.000714  -0.000001  -0.000020   0.000012   0.000000
    13  C   -0.000032   0.000727  -0.000064   0.000008  -0.000015   0.000001
    14  C   -0.000000   0.000009   0.000000  -0.000000  -0.000000  -0.000000
    15  C   -0.000021   0.002917   0.000506  -0.000324  -0.000153  -0.000008
    16  C    0.002449  -0.043722  -0.024000   0.001513   0.000896   0.000019
    17  O   -0.027980   0.418334  -0.044894   0.000576   0.000154   0.000007
    18  H    0.001071  -0.002471   0.318810  -0.002146   0.003933  -0.000278
    19  H    0.034348  -0.004012  -0.011237  -0.071932   0.440721  -0.047110
    20  H    0.000012  -0.000012  -0.000107   0.015227  -0.065894   0.456468
    21  H    0.000000   0.000000   0.000011  -0.001434   0.014769  -0.067714
    22  H   -0.000000   0.000003  -0.000116   0.015558  -0.001880   0.013808
    23  H    0.000014  -0.000137  -0.009431  -0.082866   0.016702  -0.002202
    24  H    0.010406  -0.008986   0.000568  -0.000112   0.000039   0.000007
    25  H   -0.000004  -0.000172   0.000001   0.000000  -0.000000   0.000000
    26  H    0.000000   0.000000   0.000000  -0.000000  -0.000000   0.000000
    27  H   -0.000000  -0.000001   0.000000  -0.000000  -0.000000  -0.000000
    28  H    0.000000  -0.000000   0.000000  -0.000000   0.000000  -0.000000
    29  H    0.000001  -0.000158  -0.000010   0.000006   0.000003   0.000000
    30  H    0.000285  -0.016894   0.021313  -0.001530  -0.000520   0.000050
               7          8          9         10         11         12
     1  O   -0.000031  -0.000004   0.000296  -0.063999   0.003374   0.000985
     2  S    0.000079  -0.000187   0.001116   0.243950  -0.035998   0.000714
     3  N   -0.000408   0.006888  -0.071556  -0.078168   0.008572  -0.000001
     4  C   -0.163154   0.109768   0.261995   0.005036  -0.000780  -0.000020
     5  C    0.086794  -0.146242   0.073843   0.000294  -0.000325   0.000012
     6  C    0.273911   0.096655  -0.146812  -0.000397  -0.000007   0.000000
     7  C    5.105427   0.284903   0.085823  -0.000005   0.000000   0.000000
     8  C    0.284903   5.010693   0.307879  -0.000005   0.000000  -0.000000
     9  C    0.085823   0.307879   5.145162  -0.000747  -0.000012   0.000000
    10  C   -0.000005  -0.000005  -0.000747   5.691205   0.188471   0.098081
    11  C    0.000000   0.000000  -0.000012   0.188471   5.073692   0.301887
    12  C    0.000000  -0.000000   0.000000   0.098081   0.301887   5.075669
    13  C   -0.000000   0.000000  -0.000001  -0.188178   0.100621   0.282341
    14  C   -0.000000   0.000000  -0.000000   0.000644   0.009624  -0.077557
    15  C    0.000002   0.000001  -0.000006   0.097401  -0.127688   0.054909
    16  C   -0.000008  -0.000018  -0.000325   0.257410   0.055135  -0.123264
    17  O   -0.000000   0.000000  -0.000078  -0.040010  -0.002689  -0.000138
    18  H    0.000006   0.000248  -0.014286   0.003074  -0.000520   0.000003
    19  H    0.013647  -0.002143   0.013366  -0.003212   0.000611   0.000099
    20  H   -0.073925   0.014014  -0.001892   0.000005  -0.000001  -0.000000
    21  H    0.451733  -0.070318   0.014440   0.000000  -0.000000  -0.000000
    22  H   -0.069142   0.453626  -0.068988   0.000000   0.000000   0.000000
    23  H    0.014857  -0.059692   0.452855  -0.000018   0.000001  -0.000000
    24  H   -0.000000   0.000000  -0.000001  -0.077236   0.451847  -0.050352
    25  H   -0.000000  -0.000000   0.000000   0.016587  -0.067218   0.460979
    26  H   -0.000000  -0.000000   0.000000   0.000069  -0.000249  -0.003609
    27  H    0.000000   0.000000  -0.000000   0.000015  -0.000517   0.007701
    28  H    0.000000  -0.000000  -0.000000   0.000028   0.000809  -0.008182
    29  H   -0.000000  -0.000000   0.000001   0.016813  -0.001978   0.014583
    30  H    0.000001   0.000074  -0.000475  -0.070315   0.013678  -0.001876
              13         14         15         16         17         18
     1  O   -0.000032  -0.000000  -0.000021   0.002449  -0.027980   0.001071
     2  S    0.000727   0.000009   0.002917  -0.043722   0.418334  -0.002471
     3  N   -0.000064   0.000000   0.000506  -0.024000  -0.044894   0.318810
     4  C    0.000008  -0.000000  -0.000324   0.001513   0.000576  -0.002146
     5  C   -0.000015  -0.000000  -0.000153   0.000896   0.000154   0.003933
     6  C    0.000001  -0.000000  -0.000008   0.000019   0.000007  -0.000278
     7  C   -0.000000  -0.000000   0.000002  -0.000008  -0.000000   0.000006
     8  C    0.000000   0.000000   0.000001  -0.000018   0.000000   0.000248
     9  C   -0.000001  -0.000000  -0.000006  -0.000325  -0.000078  -0.014286
    10  C   -0.188178   0.000644   0.097401   0.257410  -0.040010   0.003074
    11  C    0.100621   0.009624  -0.127688   0.055135  -0.002689  -0.000520
    12  C    0.282341  -0.077557   0.054909  -0.123264  -0.000138   0.000003
    13  C    5.258168   0.407687   0.290097   0.094872  -0.000010   0.000006
    14  C    0.407687   4.549673  -0.076182   0.009956  -0.000000  -0.000000
    15  C    0.290097  -0.076182   5.069176   0.307638  -0.000054   0.000062
    16  C    0.094872   0.009956   0.307638   5.028402  -0.000080   0.002083
    17  O   -0.000010  -0.000000  -0.000054  -0.000080   8.162721   0.012442
    18  H    0.000006  -0.000000   0.000062   0.002083   0.012442   0.507313
    19  H   -0.000006  -0.000000  -0.000067  -0.000899   0.000406  -0.000441
    20  H    0.000000   0.000000   0.000000   0.000001  -0.000000   0.000010
    21  H    0.000000   0.000000   0.000000   0.000000   0.000000  -0.000001
    22  H   -0.000000  -0.000000  -0.000000  -0.000000  -0.000000  -0.000023
    23  H    0.000000   0.000000   0.000000  -0.000026  -0.000024   0.002895
    24  H    0.014083  -0.000221  -0.001841   0.012908   0.000661  -0.000032
    25  H   -0.076489  -0.013059   0.014334  -0.001858   0.000002  -0.000000
    26  H   -0.011622   0.389656  -0.003086  -0.000359  -0.000000  -0.000000
    27  H   -0.019180   0.392632  -0.009224   0.000968   0.000000   0.000000
    28  H   -0.018688   0.391685   0.006880  -0.000547   0.000000  -0.000000
    29  H   -0.076105  -0.014268   0.459093  -0.065645   0.000001  -0.000004
    30  H    0.014649  -0.000225  -0.061961   0.453479   0.000666  -0.000537
              19         20         21         22         23         24
     1  O    0.034348   0.000012   0.000000  -0.000000   0.000014   0.010406
     2  S   -0.004012  -0.000012   0.000000   0.000003  -0.000137  -0.008986
     3  N   -0.011237  -0.000107   0.000011  -0.000116  -0.009431   0.000568
     4  C   -0.071932   0.015227  -0.001434   0.015558  -0.082866  -0.000112
     5  C    0.440721  -0.065894   0.014769  -0.001880   0.016702   0.000039
     6  C   -0.047110   0.456468  -0.067714   0.013808  -0.002202   0.000007
     7  C    0.013647  -0.073925   0.451733  -0.069142   0.014857  -0.000000
     8  C   -0.002143   0.014014  -0.070318   0.453626  -0.059692   0.000000
     9  C    0.013366  -0.001892   0.014440  -0.068988   0.452855  -0.000001
    10  C   -0.003212   0.000005   0.000000   0.000000  -0.000018  -0.077236
    11  C    0.000611  -0.000001  -0.000000   0.000000   0.000001   0.451847
    12  C    0.000099  -0.000000  -0.000000   0.000000  -0.000000  -0.050352
    13  C   -0.000006   0.000000   0.000000  -0.000000   0.000000   0.014083
    14  C   -0.000000   0.000000   0.000000  -0.000000   0.000000  -0.000221
    15  C   -0.000067   0.000000   0.000000  -0.000000   0.000000  -0.001841
    16  C   -0.000899   0.000001   0.000000  -0.000000  -0.000026   0.012908
    17  O    0.000406  -0.000000   0.000000  -0.000000  -0.000024   0.000661
    18  H   -0.000441   0.000010  -0.000001  -0.000023   0.002895  -0.000032
    19  H    0.621969  -0.012912  -0.000203   0.000016  -0.000115   0.000204
    20  H   -0.012912   0.664376  -0.012001  -0.000256   0.000024  -0.000000
    21  H   -0.000203  -0.012001   0.671651  -0.012313  -0.000233  -0.000000
    22  H    0.000016  -0.000256  -0.012313   0.667282  -0.013073   0.000000
    23  H   -0.000115   0.000024  -0.000233  -0.013073   0.687783  -0.000000
    24  H    0.000204  -0.000000  -0.000000   0.000000  -0.000000   0.629392
    25  H   -0.000001   0.000000   0.000000  -0.000000   0.000000  -0.011375
    26  H    0.000000  -0.000000  -0.000000  -0.000000  -0.000000   0.000003
    27  H   -0.000000   0.000000   0.000000   0.000000   0.000000   0.000008
    28  H    0.000000  -0.000000  -0.000000   0.000000   0.000000  -0.000002
    29  H    0.000000  -0.000000  -0.000000   0.000000   0.000000   0.000023
    30  H   -0.000088   0.000001  -0.000000  -0.000001   0.000103  -0.000213
              25         26         27         28         29         30
     1  O   -0.000004   0.000000  -0.000000   0.000000   0.000001   0.000285
     2  S   -0.000172   0.000000  -0.000001  -0.000000  -0.000158  -0.016894
     3  N    0.000001   0.000000   0.000000   0.000000  -0.000010   0.021313
     4  C    0.000000  -0.000000  -0.000000  -0.000000   0.000006  -0.001530
     5  C   -0.000000  -0.000000  -0.000000   0.000000   0.000003  -0.000520
     6  C    0.000000   0.000000  -0.000000  -0.000000   0.000000   0.000050
     7  C   -0.000000  -0.000000   0.000000   0.000000  -0.000000   0.000001
     8  C   -0.000000  -0.000000   0.000000  -0.000000  -0.000000   0.000074
     9  C    0.000000   0.000000  -0.000000  -0.000000   0.000001  -0.000475
    10  C    0.016587   0.000069   0.000015   0.000028   0.016813  -0.070315
    11  C   -0.067218  -0.000249  -0.000517   0.000809  -0.001978   0.013678
    12  C    0.460979  -0.003609   0.007701  -0.008182   0.014583  -0.001876
    13  C   -0.076489  -0.011622  -0.019180  -0.018688  -0.076105   0.014649
    14  C   -0.013059   0.389656   0.392632   0.391685  -0.014268  -0.000225
    15  C    0.014334  -0.003086  -0.009224   0.006880   0.459093  -0.061961
    16  C   -0.001858  -0.000359   0.000968  -0.000547  -0.065645   0.453479
    17  O    0.000002  -0.000000   0.000000   0.000000   0.000001   0.000666
    18  H   -0.000000  -0.000000   0.000000  -0.000000  -0.000004  -0.000537
    19  H   -0.000001   0.000000  -0.000000   0.000000   0.000000  -0.000088
    20  H    0.000000  -0.000000   0.000000  -0.000000  -0.000000   0.000001
    21  H    0.000000  -0.000000   0.000000  -0.000000  -0.000000  -0.000000
    22  H   -0.000000  -0.000000   0.000000   0.000000   0.000000  -0.000001
    23  H    0.000000  -0.000000   0.000000   0.000000   0.000000   0.000103
    24  H   -0.011375   0.000003   0.000008  -0.000002   0.000023  -0.000213
    25  H    0.665101   0.000828   0.000146   0.004137  -0.000226   0.000026
    26  H    0.000828   0.597511  -0.017220  -0.017133   0.000597   0.000007
    27  H    0.000146  -0.017220   0.621715  -0.022218   0.004877  -0.000008
    28  H    0.004137  -0.017133  -0.022218   0.618236   0.000177   0.000008
    29  H   -0.000226   0.000597   0.004877   0.000177   0.669130  -0.011985
    30  H    0.000026   0.000007  -0.000008   0.000008  -0.011985   0.640260
 Mulliken charges:
               1
     1  O   -0.466497
     2  S    0.936077
     3  N   -0.321479
     4  C    0.135509
     5  C   -0.046413
     6  C   -0.006180
     7  C   -0.010508
     8  C   -0.006141
     9  C   -0.051596
    10  C   -0.096795
    11  C    0.029659
    12  C   -0.032964
    13  C   -0.072870
    14  C    0.029945
    15  C   -0.022403
    16  C    0.033026
    17  O   -0.480012
    18  H    0.168783
    19  H    0.028991
    20  H    0.016864
    21  H    0.011611
    22  H    0.015498
    23  H   -0.007416
    24  H    0.030222
    25  H    0.008262
    26  H    0.064606
    27  H    0.040306
    28  H    0.044811
    29  H    0.005072
    30  H    0.022030
 Sum of Mulliken charges =  -0.00000
 Mulliken charges with hydrogens summed into heavy atoms:
               1
     1  O   -0.466497
     2  S    0.936077
     3  N   -0.152696
     4  C    0.135509
     5  C   -0.017422
     6  C    0.010684
     7  C    0.001103
     8  C    0.009358
     9  C   -0.059012
    10  C   -0.096795
    11  C    0.059881
    12  C   -0.024702
    13  C   -0.072870
    14  C    0.179669
    15  C   -0.017331
    16  C    0.055057
    17  O   -0.480012
 Electronic spatial extent (au):  <R**2>=           4886.4328
 Charge=             -0.0000 electrons
 Dipole moment (field-independent basis, Debye):
    X=             -1.1101    Y=             -3.9620    Z=             -1.3630  Tot=              4.3344
 Quadrupole moment (field-independent basis, Debye-Ang):
   XX=            -89.7190   YY=           -114.9445   ZZ=           -101.1945
   XY=              3.0558   XZ=             -6.4968   YZ=             -0.0011
 Traceless Quadrupole moment (field-independent basis, Debye-Ang):
   XX=             12.2337   YY=            -12.9918   ZZ=              0.7581
   XY=              3.0558   XZ=             -6.4968   YZ=             -0.0011
 Octapole moment (field-independent basis, Debye-Ang**2):
  XXX=            -35.8386  YYY=            -16.0699  ZZZ=             -5.6871  XYY=              1.1083
  XXY=            -29.7753  XXZ=              2.4511  XZZ=              7.3775  YZZ=             -3.4471
  YYZ=              1.7783  XYZ=            -17.4163
 Hexadecapole moment (field-independent basis, Debye-Ang**3):
 XXXX=          -4316.9241 YYYY=          -1488.7532 ZZZZ=           -619.7006 XXXY=            -15.8154
 XXXZ=            -72.9571 YYYX=             39.7034 YYYZ=             26.6483 ZZZX=            -18.7747
 ZZZY=            -15.8554 XXYY=           -916.7297 XXZZ=           -810.0911 YYZZ=           -341.5086
 XXYZ=             -0.2506 YYXZ=             -4.2486 ZZXY=             -6.2424
 N-N= 1.310719909020D+03 E-N=-5.210210233447D+03  KE= 1.097876597329D+03
   1 Symmetry operations used in ECPInt.
 ECPInt:  NShTT=   10296 NPrTT=   38220 LenC2=    9424 LenP2D=   24700.
 LDataN:  DoStor=T MaxTD1= 5 Len=  102
 Calling FoFJK, ICntrl=      2127 FMM=F ISym2X=0 I1Cent= 0 IOpClX= 0 NMat=1 NMatS=1 NMatT=0.
 ***** Axes restored to original set *****
 -------------------------------------------------------------------
 Center     Atomic                   Forces (Hartrees/Bohr)
 Number     Number              X              Y              Z
 -------------------------------------------------------------------
      1        8          -0.010136934    0.006798338   -0.052897138
      2       16          -0.028884265    0.024870391    0.013622897
      3        7          -0.014550829    0.022950912    0.021212061
      4        6           0.019891890   -0.016586583    0.009297473
      5        6          -0.011760922    0.006132978   -0.004897562
      6        6           0.005089904   -0.003938246   -0.003143766
      7        6           0.005070392   -0.004641109    0.003329229
      8        6           0.002762636   -0.001876798    0.001392126
      9        6          -0.012488306    0.009000525   -0.001777123
     10        6           0.014906657    0.007119352    0.000227885
     11        6          -0.003930204    0.007241507    0.010927720
     12        6           0.002547058    0.001668290   -0.001554547
     13        6          -0.004101883   -0.002282646   -0.001855729
     14        6          -0.000253310   -0.005213178    0.001877613
     15        6          -0.000581076    0.002005688    0.003004815
     16        6           0.002749308   -0.003857114   -0.011320687
     17        8           0.025340693   -0.041298834    0.026740602
     18        1           0.007812539    0.007150812   -0.015505614
     19        1          -0.004149194   -0.000288578    0.007359812
     20        1          -0.000875426   -0.001670911    0.009999684
     21        1           0.007558166   -0.006622095    0.003380155
     22        1           0.006730744   -0.003361178   -0.007218833
     23        1           0.000621858    0.002488646   -0.012836874
     24        1           0.000254297    0.006064926    0.008552867
     25        1          -0.007013985    0.001491000    0.009282385
     26        1          -0.006371218    0.002750178   -0.003186233
     27        1           0.000189122   -0.004973515   -0.003521340
     28        1          -0.003056697   -0.001077559    0.005477873
     29        1           0.000463614   -0.008052646   -0.008446339
     30        1           0.006165371   -0.001992552   -0.007523415
 -------------------------------------------------------------------
 Cartesian Forces:  Max     0.052897138 RMS     0.011731987

 GradGradGradGradGradGradGradGradGradGradGradGradGradGradGradGradGradGrad
 Berny optimization.
 FormGI is forming the generalized inverse of G from B-inverse, IUseBI=4.
 Internal  Forces:  Max     0.054324496 RMS     0.010018408
 Search for a local minimum.
 Step number   1 out of a maximum of  162
 All quantities printed in internal units (Hartrees-Bohrs-Radians)
 Mixed Optimization -- RFO/linear search
 Second derivative matrix not updated -- first step.
 ITU=  0
     Eigenvalues ---    0.00418   0.00927   0.01186   0.01603   0.01744
     Eigenvalues ---    0.01773   0.02009   0.02140   0.02246   0.02270
     Eigenvalues ---    0.02275   0.02301   0.02310   0.02340   0.02346
     Eigenvalues ---    0.02349   0.02368   0.02384   0.02386   0.02393
     Eigenvalues ---    0.02394   0.02420   0.02594   0.07312   0.07344
     Eigenvalues ---    0.10132   0.11430   0.11937   0.13525   0.15989
     Eigenvalues ---    0.15999   0.15999   0.16000   0.16000   0.16000
     Eigenvalues ---    0.16000   0.16000   0.16000   0.16000   0.16000
     Eigenvalues ---    0.16000   0.17861   0.22000   0.22000   0.22000
     Eigenvalues ---    0.22880   0.22976   0.23458   0.23997   0.24986
     Eigenvalues ---    0.24989   0.25000   0.25000   0.26404   0.33692
     Eigenvalues ---    0.34769   0.34773   0.34774   0.34907   0.36235
     Eigenvalues ---    0.36281   0.36288   0.36297   0.36431   0.36435
     Eigenvalues ---    0.36441   0.36512   0.36677   0.42619   0.43492
     Eigenvalues ---    0.44024   0.44281   0.46649   0.47099   0.47599
     Eigenvalues ---    0.47809   0.48077   0.49086   0.49232   0.49272
     Eigenvalues ---    0.50024   0.50095   0.76284   0.76618
 RFO step:  Lambda=-3.96023629D-02 EMin= 4.18240531D-03
 Linear search not attempted -- first point.
 Maximum step size (   0.300) exceeded in Quadratic search.
    -- Step size scaled by   0.975
 Iteration  1 RMS(Cart)=  0.19669290 RMS(Int)=  0.00836821
 Iteration  2 RMS(Cart)=  0.04071172 RMS(Int)=  0.00090721
 Iteration  3 RMS(Cart)=  0.00064150 RMS(Int)=  0.00087931
 Iteration  4 RMS(Cart)=  0.00000133 RMS(Int)=  0.00087931
 Iteration  5 RMS(Cart)=  0.00000001 RMS(Int)=  0.00087931
 Variable       Old X    -DE/DX   Delta X   Delta X   Delta X     New X
                                 (Linear)    (Quad)   (Total)
    R1        2.83684  -0.05280   0.00000  -0.06419  -0.06419   2.77265
    R2        3.22827  -0.00322   0.00000  -0.00807  -0.00807   3.22020
    R3        3.39466  -0.00206   0.00000  -0.00663  -0.00663   3.38803
    R4        2.83492  -0.05432   0.00000  -0.06576  -0.06576   2.76916
    R5        2.63406   0.02759   0.00000   0.05319   0.05319   2.68725
    R6        1.89069   0.01778   0.00000   0.03365   0.03365   1.92433
    R7        2.64438   0.00688   0.00000   0.01315   0.01316   2.65753
    R8        2.64437   0.00493   0.00000   0.00897   0.00897   2.65334
    R9        2.59683   0.01926   0.00000   0.03500   0.03502   2.63184
   R10        2.03037   0.00724   0.00000   0.01738   0.01738   2.04775
   R11        2.60865   0.01236   0.00000   0.02343   0.02343   2.63208
   R12        2.03645   0.01009   0.00000   0.02446   0.02446   2.06091
   R13        2.60918   0.01137   0.00000   0.02131   0.02130   2.63047
   R14        2.03620   0.01060   0.00000   0.02567   0.02567   2.06187
   R15        2.59866   0.01566   0.00000   0.02800   0.02798   2.62665
   R16        2.03633   0.01037   0.00000   0.02514   0.02514   2.06147
   R17        2.03289   0.01304   0.00000   0.03143   0.03143   2.06432
   R18        2.59634   0.02021   0.00000   0.03702   0.03702   2.63337
   R19        2.59698   0.01955   0.00000   0.03597   0.03598   2.63296
   R20        2.60840   0.01023   0.00000   0.01872   0.01872   2.62712
   R21        2.03716   0.01031   0.00000   0.02501   0.02501   2.06217
   R22        2.62170   0.01485   0.00000   0.02722   0.02721   2.64891
   R23        2.03407   0.01163   0.00000   0.02809   0.02809   2.06216
   R24        2.81153   0.01274   0.00000   0.03300   0.03300   2.84453
   R25        2.62197   0.01393   0.00000   0.02561   0.02561   2.64758
   R26        2.06044   0.00761   0.00000   0.01917   0.01917   2.07961
   R27        2.06045   0.00596   0.00000   0.01501   0.01501   2.07545
   R28        2.06052   0.00619   0.00000   0.01559   0.01559   2.07611
   R29        2.60758   0.01251   0.00000   0.02308   0.02309   2.63067
   R30        2.03398   0.01158   0.00000   0.02796   0.02796   2.06194
   R31        2.03414   0.00979   0.00000   0.02363   0.02363   2.05777
    A1        2.00650  -0.00268   0.00000  -0.01118  -0.01578   1.99072
    A2        1.84079   0.00059   0.00000   0.03347   0.03277   1.87356
    A3        2.11380  -0.00333   0.00000  -0.04345  -0.04749   2.06630
    A4        1.72466   0.02120   0.00000   0.09393   0.09297   1.81762
    A5        1.85387  -0.01459   0.00000  -0.07550  -0.07892   1.77494
    A6        1.88047   0.00574   0.00000   0.04256   0.04469   1.92516
    A7        2.12646   0.04082   0.00000   0.15599   0.15394   2.28040
    A8        1.82678  -0.01264   0.00000  -0.02518  -0.02731   1.79947
    A9        2.04422  -0.01483   0.00000  -0.04301  -0.04638   1.99784
   A10        2.15055   0.01862   0.00000   0.06344   0.06323   2.21379
   A11        2.07889  -0.02152   0.00000  -0.07182  -0.07189   2.00700
   A12        2.05338   0.00285   0.00000   0.00764   0.00753   2.06092
   A13        2.11433  -0.00448   0.00000  -0.01665  -0.01664   2.09769
   A14        2.07132   0.00635   0.00000   0.02856   0.02852   2.09984
   A15        2.09688  -0.00184   0.00000  -0.01150  -0.01153   2.08535
   A16        2.09656   0.00433   0.00000   0.01849   0.01851   2.11507
   A17        2.09281  -0.00349   0.00000  -0.01572  -0.01573   2.07708
   A18        2.09378  -0.00084   0.00000  -0.00275  -0.00276   2.09101
   A19        2.09210  -0.00480   0.00000  -0.01573  -0.01574   2.07636
   A20        2.09538   0.00275   0.00000   0.00961   0.00961   2.10498
   A21        2.09569   0.00205   0.00000   0.00615   0.00615   2.10184
   A22        2.09807   0.00034   0.00000   0.00154   0.00152   2.09959
   A23        2.09227   0.00090   0.00000   0.00444   0.00445   2.09672
   A24        2.09285  -0.00124   0.00000  -0.00599  -0.00598   2.08687
   A25        2.11190   0.00176   0.00000   0.00480   0.00477   2.11668
   A26        2.06982   0.00027   0.00000   0.00327   0.00327   2.07309
   A27        2.10140  -0.00203   0.00000  -0.00800  -0.00799   2.09341
   A28        2.07584  -0.00853   0.00000  -0.03004  -0.03007   2.04577
   A29        2.11000   0.00699   0.00000   0.02223   0.02220   2.13220
   A30        2.09734   0.00153   0.00000   0.00778   0.00778   2.10511
   A31        2.09376  -0.00252   0.00000  -0.00825  -0.00825   2.08551
   A32        2.07943   0.00290   0.00000   0.01215   0.01214   2.09157
   A33        2.10999  -0.00038   0.00000  -0.00390  -0.00391   2.10608
   A34        2.10503   0.00248   0.00000   0.00764   0.00763   2.11266
   A35        2.09592  -0.00266   0.00000  -0.01077  -0.01077   2.08515
   A36        2.08223   0.00018   0.00000   0.00315   0.00315   2.08538
   A37        2.10360   0.00027   0.00000   0.00223   0.00223   2.10583
   A38        2.07123  -0.00078   0.00000  -0.00516  -0.00518   2.06605
   A39        2.10788   0.00053   0.00000   0.00311   0.00311   2.11099
   A40        1.93301   0.00000   0.00000  -0.00160  -0.00159   1.93142
   A41        1.94093   0.00109   0.00000   0.00625   0.00622   1.94714
   A42        1.93833   0.00120   0.00000   0.00656   0.00654   1.94487
   A43        1.88492  -0.00101   0.00000  -0.00621  -0.00621   1.87871
   A44        1.88516  -0.00124   0.00000  -0.00782  -0.00781   1.87735
   A45        1.87923  -0.00017   0.00000   0.00219   0.00214   1.88136
   A46        2.10337   0.00320   0.00000   0.01093   0.01094   2.11431
   A47        2.08333  -0.00025   0.00000   0.00116   0.00115   2.08449
   A48        2.09648  -0.00296   0.00000  -0.01209  -0.01209   2.08439
   A49        2.09558  -0.00391   0.00000  -0.01289  -0.01287   2.08271
   A50        2.08065   0.00363   0.00000   0.01462   0.01461   2.09526
   A51        2.10695   0.00028   0.00000  -0.00174  -0.00175   2.10520
    D1        0.29406   0.01568   0.00000   0.16080   0.15994   0.45400
    D2       -2.07661   0.01197   0.00000   0.09857   0.09582  -1.98079
    D3       -1.65566   0.00401   0.00000   0.07312   0.07297  -1.58269
    D4        2.25685   0.00030   0.00000   0.01089   0.00885   2.26570
    D5        2.68171  -0.00600   0.00000   0.01334   0.01719   2.69890
    D6        0.31104  -0.00971   0.00000  -0.04889  -0.04693   0.26410
    D7        0.71352  -0.00246   0.00000  -0.02674  -0.02798   0.68554
    D8       -2.43101  -0.00318   0.00000  -0.03919  -0.04038  -2.47140
    D9        2.79190   0.00336   0.00000   0.01002   0.01032   2.80222
   D10       -0.35263   0.00265   0.00000  -0.00244  -0.00209  -0.35472
   D11       -1.56678  -0.00243   0.00000  -0.02260  -0.02174  -1.58851
   D12        1.57187  -0.00315   0.00000  -0.03506  -0.03414   1.53773
   D13        0.18473   0.00007   0.00000   0.03478   0.03535   0.22008
   D14       -2.98646  -0.00176   0.00000   0.00428   0.00489  -2.98157
   D15        2.46701   0.00947   0.00000   0.12699   0.12638   2.59340
   D16       -0.70418   0.00765   0.00000   0.09649   0.09592  -0.60826
   D17        3.10606  -0.00135   0.00000  -0.01818  -0.01929   3.08677
   D18       -0.07428  -0.00060   0.00000  -0.00604  -0.00678  -0.08106
   D19       -0.00634   0.00084   0.00000   0.01319   0.01322   0.00688
   D20        3.09651   0.00160   0.00000   0.02533   0.02573   3.12224
   D21       -3.10779   0.00030   0.00000   0.00931   0.00818  -3.09961
   D22        0.02173   0.00082   0.00000   0.01681   0.01587   0.03760
   D23        0.00585  -0.00113   0.00000  -0.01845  -0.01834  -0.01250
   D24        3.13537  -0.00060   0.00000  -0.01095  -0.01065   3.12472
   D25        0.00185  -0.00007   0.00000  -0.00054  -0.00069   0.00115
   D26        3.13384   0.00013   0.00000   0.00173   0.00175   3.13559
   D27       -3.10044  -0.00102   0.00000  -0.01374  -0.01399  -3.11443
   D28        0.03156  -0.00081   0.00000  -0.01146  -0.01155   0.02001
   D29        0.00334  -0.00045   0.00000  -0.00735  -0.00718  -0.00383
   D30        3.13944  -0.00005   0.00000  -0.00102  -0.00091   3.13853
   D31       -3.12865  -0.00064   0.00000  -0.00955  -0.00956  -3.13821
   D32        0.00744  -0.00023   0.00000  -0.00323  -0.00329   0.00415
   D33       -0.00383   0.00015   0.00000   0.00206   0.00212  -0.00171
   D34        3.13983   0.00034   0.00000   0.00566   0.00551  -3.13785
   D35       -3.13992  -0.00025   0.00000  -0.00428  -0.00415   3.13911
   D36        0.00374  -0.00007   0.00000  -0.00068  -0.00076   0.00297
   D37       -0.00087   0.00067   0.00000   0.01121   0.01092   0.01005
   D38       -3.13017   0.00013   0.00000   0.00350   0.00306  -3.12711
   D39        3.13866   0.00049   0.00000   0.00761   0.00756  -3.13696
   D40        0.00935  -0.00006   0.00000  -0.00010  -0.00029   0.00906
   D41        3.13910  -0.00080   0.00000  -0.01309  -0.01291   3.12619
   D42       -0.00394  -0.00112   0.00000  -0.01815  -0.01804  -0.02198
   D43        0.00043  -0.00010   0.00000  -0.00075  -0.00073  -0.00031
   D44        3.14057  -0.00042   0.00000  -0.00581  -0.00586   3.13471
   D45       -3.13764   0.00066   0.00000   0.01074   0.01093  -3.12672
   D46        0.00690   0.00084   0.00000   0.01368   0.01385   0.02075
   D47        0.00097  -0.00008   0.00000  -0.00193  -0.00196  -0.00098
   D48       -3.13767   0.00010   0.00000   0.00101   0.00097  -3.13670
   D49        0.00425   0.00005   0.00000   0.00024   0.00026   0.00451
   D50       -3.13426  -0.00032   0.00000  -0.00522  -0.00521  -3.13947
   D51       -3.13587   0.00037   0.00000   0.00538   0.00542  -3.13045
   D52        0.00880   0.00001   0.00000  -0.00008  -0.00005   0.00875
   D53       -3.11900  -0.00018   0.00000  -0.00306  -0.00309  -3.12210
   D54       -0.01012   0.00018   0.00000   0.00293   0.00288  -0.00724
   D55        0.01953   0.00017   0.00000   0.00233   0.00235   0.02188
   D56        3.12841   0.00054   0.00000   0.00832   0.00833   3.13674
   D57        1.46924   0.00010   0.00000   0.00219   0.00220   1.47144
   D58       -2.71787  -0.00045   0.00000  -0.00257  -0.00259  -2.72046
   D59       -0.62542   0.00086   0.00000   0.00876   0.00879  -0.61664
   D60       -1.63895  -0.00025   0.00000  -0.00377  -0.00378  -1.64273
   D61        0.45712  -0.00080   0.00000  -0.00853  -0.00856   0.44856
   D62        2.54957   0.00050   0.00000   0.00279   0.00281   2.55238
   D63        0.01151  -0.00035   0.00000  -0.00557  -0.00559   0.00592
   D64       -3.12885  -0.00047   0.00000  -0.00726  -0.00725  -3.13610
   D65        3.12031   0.00001   0.00000   0.00042   0.00039   3.12070
   D66       -0.02005  -0.00010   0.00000  -0.00128  -0.00127  -0.02132
   D67       -0.00706   0.00031   0.00000   0.00512   0.00516  -0.00190
   D68        3.13154   0.00012   0.00000   0.00216   0.00225   3.13378
   D69        3.13330   0.00043   0.00000   0.00684   0.00682   3.14012
   D70       -0.01129   0.00024   0.00000   0.00388   0.00391  -0.00738
         Item               Value     Threshold  Converged?
 Maximum Force            0.054324     0.000450     NO 
 RMS     Force            0.010018     0.000300     NO 
 Maximum Displacement     0.651117     0.001800     NO 
 RMS     Displacement     0.229207     0.001200     NO 
 Predicted change in Energy=-2.300460D-02
 GradGradGradGradGradGradGradGradGradGradGradGradGradGradGradGradGradGrad

                          Input orientation:                          
 ---------------------------------------------------------------------
 Center     Atomic      Atomic             Coordinates (Angstroms)
 Number     Number       Type             X           Y           Z
 ---------------------------------------------------------------------
      1          8           0        0.216630    1.953065    1.347613
      2         16           0       -0.081632    1.609643   -0.047321
      3          7           0        1.169481    0.764592   -0.837515
      4          6           0        2.195306   -0.071523   -0.317160
      5          6           0        2.273999   -0.599316    0.983970
      6          6           0        3.312742   -1.460599    1.328715
      7          6           0        4.291299   -1.816856    0.403781
      8          6           0        4.218467   -1.301126   -0.887088
      9          6           0        3.182167   -0.445947   -1.243106
     10          6           0       -1.450485    0.451899   -0.031864
     11          6           0       -2.467812    0.680192    0.892701
     12          6           0       -3.560993   -0.177713    0.933184
     13          6           0       -3.653737   -1.272113    0.062227
     14          6           0       -4.853184   -2.180925    0.096714
     15          6           0       -2.619751   -1.478325   -0.860408
     16          6           0       -1.520482   -0.625773   -0.912216
     17          8           0       -0.347166    2.698417   -0.991454
     18          1           0        1.482894    1.425553   -1.545940
     19          1           0        1.541729   -0.320496    1.732486
     20          1           0        3.358268   -1.854156    2.344796
     21          1           0        5.102563   -2.490156    0.684868
     22          1           0        4.972804   -1.570310   -1.627725
     23          1           0        3.123043   -0.055343   -2.261560
     24          1           0       -2.396935    1.524349    1.580604
     25          1           0       -4.358410    0.002537    1.655992
     26          1           0       -5.671107   -1.767709   -0.512643
     27          1           0       -4.615508   -3.178123   -0.297403
     28          1           0       -5.232742   -2.306071    1.120072
     29          1           0       -2.676845   -2.321967   -1.550031
     30          1           0       -0.718114   -0.798209   -1.627919
 ---------------------------------------------------------------------
                    Distance matrix (angstroms):
                    1          2          3          4          5
     1  O    0.000000
     2  S    1.467222   0.000000
     3  N    2.663677   1.704054   0.000000
     4  C    3.284141   2.843164   1.422032   0.000000
     5  C    3.298432   3.389994   2.529429   1.406306   0.000000
     6  C    4.608619   4.779293   3.773274   2.426335   1.392711
     7  C    5.630812   5.573770   4.236795   2.821193   2.426627
     8  C    5.621241   5.260099   3.683200   2.435143   2.788253
     9  C    4.611019   4.038284   2.383446   1.404088   2.410012
    10  C    2.633577   1.792867   2.758817   3.694206   4.001094
    11  C    3.005558   2.727888   4.028730   4.875808   4.912254
    12  C    4.356879   4.032615   5.138160   5.891486   5.850424
    13  C    5.199397   4.590910   5.312357   5.983031   6.036582
    14  C    6.660152   6.095643   6.769147   7.368995   7.354281
    15  C    4.969391   4.079057   4.403348   5.045689   5.303129
    16  C    3.843799   2.795607   3.028959   3.803731   4.241970
    17  O    2.518859   1.465375   2.462437   3.819870   4.652725
    18  H    3.202240   2.174278   1.018314   2.063654   3.335624
    19  H    2.659529   3.086819   2.814407   2.165687   1.083622
    20  H    5.035792   5.436271   4.666448   3.408265   2.145253
    21  H    6.637303   6.649837   5.327304   3.912287   3.415481
    22  H    6.624802   6.177144   4.532270   3.417373   3.879089
    23  H    5.050453   4.236151   2.552764   2.154449   3.398566
    24  H    2.658722   2.831615   4.375369   5.218908   5.165612
    25  H    4.983036   4.875951   6.111946   6.844707   6.693482
    26  H    7.209032   6.547157   7.301488   8.049578   8.168825
    27  H    7.237729   6.598582   7.021597   7.485890   7.467093
    28  H    6.920092   6.574919   7.365431   7.888900   7.699526
    29  H    5.919834   4.944778   4.982845   5.506571   5.822331
    30  H    4.158972   2.949772   2.574898   3.276306   3.976715
                    6          7          8          9         10
     6  C    0.000000
     7  C    1.392837   0.000000
     8  C    2.399074   1.391986   0.000000
     9  C    2.767821   2.412841   1.389963   0.000000
    10  C    5.310100   6.189113   5.995125   4.871827   0.000000
    11  C    6.179636   7.222179   7.197194   6.144275   1.393517
    12  C    7.003604   8.039001   8.068175   7.090726   2.404573
    13  C    7.083174   7.971010   7.929290   7.008283   2.799176
    14  C    8.289695   9.156877   9.167157   8.328994   4.304260
    15  C    6.323531   7.033874   6.840565   5.905464   2.404044
    16  C    5.392473   6.076786   5.778605   4.717704   1.393304
    17  O    6.006291   6.621913   6.070605   4.733556   2.680480
    18  H    4.465631   4.711875   3.918192   2.545928   3.441677
    19  H    2.144611   3.400689   3.871529   3.400136   3.558493
    20  H    1.090587   2.153945   3.389818   3.858382   5.838708
    21  H    2.162865   1.091097   2.160200   3.403497   7.218853
    22  H    3.392401   2.156908   1.090884   2.149071   6.920604
    23  H    3.860157   3.401734   2.154322   1.092390   5.113316
    24  H    6.447773   7.568424   7.605022   6.556050   2.155452
    25  H    7.816295   8.927244   9.040444   8.091120   3.392170
    26  H    9.175754  10.004587   9.907653   8.981152   4.792854
    27  H    8.273530   9.037473   9.050413   8.316422   4.823374
    28  H    8.589742   9.563460   9.714112   8.936183   4.820666
    29  H    6.701066   7.254484   7.001924   6.159681   3.391625
    30  H    5.042643   5.500879   5.017130   3.935017   2.155581
                   11         12         13         14         15
    11  C    0.000000
    12  C    1.390210   0.000000
    13  C    2.430555   1.401741   0.000000
    14  C    3.809145   2.526321   1.505258   0.000000
    15  C    2.784900   2.407177   1.401038   2.529418   0.000000
    16  C    2.420889   2.787462   2.432709   3.813573   1.392092
    17  O    3.481438   4.722821   5.273401   6.730251   4.756783
    18  H    4.702191   5.844425   6.020679   7.473344   5.072884
    19  H    4.216993   5.166917   5.539693   6.857977   5.038013
    20  H    6.517263   7.258050   7.397102   8.519895   6.793475
    21  H    8.210047   8.970298   8.862511   9.977898   7.940139
    22  H    8.171908   9.017942   8.795571   9.994828   7.631784
    23  H    6.461272   7.409298   7.266723   8.584856   6.080114
    24  H    1.091255   2.161295   3.421289   4.686592   3.876111
    25  H    2.148533   1.091246   2.159024   2.728307   3.398259
    26  H    4.269462   3.011824   2.155428   1.100482   3.084714
    27  H    4.573351   3.410104   2.164997   1.098282   2.681294
    28  H    4.076065   2.712855   2.163646   1.098629   3.381596
    29  H    3.876028   3.397926   2.157751   2.732785   1.091133
    30  H    3.405970   3.876367   3.420389   4.688823   2.160521
                   16         17         18         19         20
    16  C    0.000000
    17  O    3.526072   0.000000
    18  H    3.691857   2.297119   0.000000
    19  H    4.057682   4.483482   3.714866   0.000000
    20  H    5.993268   6.751795   5.423223   2.454965   0.000000
    21  H    7.063379   7.709144   5.780250   4.299357   2.490467
    22  H    6.600521   6.850472   4.600148   4.962392   4.297467
    23  H    4.869132   4.608549   2.322769   4.303867   4.950715
    24  H    3.406663   3.492202   4.983785   4.351964   6.717191
    25  H    3.878699   5.510610   6.811621   5.909471   7.966737
    26  H    4.323351   6.965622   7.902174   7.691555   9.471116
    27  H    4.058531   7.296176   7.742299   7.085058   8.503835
    28  H    4.553512   7.305635   8.132183   7.085973   8.689628
[...]
     3  N    0.000974   0.013252  -0.039568  -0.061453   0.006356   0.000051
     4  C   -0.112015   0.009901   0.333999   0.045011  -0.002555   0.001885
     5  C    0.048676  -0.090388   0.057848   0.003467   0.000873  -0.002490
     6  C    0.413197   0.022545  -0.098004  -0.000068  -0.001269   0.000434
     7  C    4.963719   0.439106   0.035565  -0.000158  -0.000704  -0.000195
     8  C    0.439106   4.933728   0.408389  -0.001761   0.001198   0.002006
     9  C    0.035565   0.408389   5.115197  -0.000178  -0.014236  -0.000564
    10  C   -0.000158  -0.001761  -0.000178   5.294009   0.316276   0.049797
    11  C   -0.000704   0.001198  -0.014236   0.316276   5.142042   0.357395
    12  C   -0.000195   0.002006  -0.000564   0.049797   0.357395   5.100205
    13  C    0.000042   0.000056  -0.000461  -0.090530   0.033026   0.412563
    14  C   -0.000001  -0.000016   0.000008  -0.004307   0.013802  -0.073669
    15  C    0.000020  -0.000051   0.000794   0.015627  -0.050393  -0.014087
    16  C   -0.000059  -0.000680  -0.001914   0.368110  -0.069594  -0.046388
    17  O   -0.000003  -0.000001  -0.000525  -0.096280   0.008736  -0.000586
    18  H    0.000136   0.001086   0.008837  -0.000735   0.000707  -0.000043
    19  H    0.010215  -0.004442   0.011287   0.001828  -0.000442  -0.000158
    20  H   -0.058353   0.010553  -0.003503  -0.000016  -0.000004   0.000008
    21  H    0.443933  -0.056087   0.012198   0.000004  -0.000018  -0.000002
    22  H   -0.057143   0.438886  -0.053930   0.000005   0.000029   0.000022
    23  H    0.010390  -0.031465   0.439950   0.000786  -0.000269  -0.000258
    24  H    0.000105   0.000167  -0.001667  -0.046328   0.436241  -0.049468
    25  H    0.000008   0.000072  -0.000080   0.010712  -0.048550   0.444513
    26  H    0.000000   0.000000   0.000000   0.000161  -0.000731  -0.004877
    27  H    0.000000  -0.000001   0.000001   0.000065  -0.000710   0.007942
    28  H   -0.000000   0.000001  -0.000002   0.000055   0.001935  -0.006656
    29  H   -0.000000   0.000003  -0.000002   0.011285  -0.003857   0.012870
    30  H   -0.000003   0.000006  -0.000132  -0.045628   0.008280  -0.002425
              13         14         15         16         17         18
     1  O   -0.000113  -0.000000  -0.000265   0.006938  -0.043929   0.002676
     2  S   -0.000535   0.000005   0.005743  -0.039180   0.584230  -0.016602
     3  N    0.000226  -0.000004  -0.001189   0.000036  -0.048058   0.365622
     4  C   -0.000717   0.000007   0.000250   0.001026   0.001635  -0.051470
     5  C    0.000219   0.000006   0.000048   0.000327  -0.000743   0.004524
     6  C   -0.000039  -0.000001  -0.000008   0.000171  -0.000000  -0.000720
     7  C    0.000042  -0.000001   0.000020  -0.000059  -0.000003   0.000136
     8  C    0.000056  -0.000016  -0.000051  -0.000680  -0.000001   0.001086
     9  C   -0.000461   0.000008   0.000794  -0.001914  -0.000525   0.008837
    10  C   -0.090530  -0.004307   0.015627   0.368110  -0.096280  -0.000735
    11  C    0.033026   0.013802  -0.050393  -0.069594   0.008736   0.000707
    12  C    0.412563  -0.073669  -0.014087  -0.046388  -0.000586  -0.000043
    13  C    4.972687   0.297552   0.432298   0.016219   0.000166   0.000064
    14  C    0.297552   4.958421  -0.073387   0.013149   0.000001   0.000000
    15  C    0.432298  -0.073387   5.062917   0.404477   0.002760  -0.000166
    16  C    0.016219   0.013149   0.404477   5.106094   0.026777   0.000145
    17  O    0.000166   0.000001   0.002760   0.026777   8.022380   0.004370
    18  H    0.000064   0.000000  -0.000166   0.000145   0.004370   0.429405
    19  H    0.000015   0.000000   0.000007  -0.000172  -0.000133  -0.000050
    20  H   -0.000000  -0.000000  -0.000000   0.000001  -0.000000   0.000013
    21  H   -0.000001   0.000000   0.000000  -0.000000   0.000000  -0.000002
    22  H   -0.000005   0.000000  -0.000003  -0.000001  -0.000000  -0.000040
    23  H   -0.000009  -0.000000   0.000310   0.000380  -0.000176   0.003563
    24  H    0.008916  -0.000031  -0.002425   0.008176   0.000385  -0.000098
    25  H   -0.063182  -0.006642   0.012779  -0.003657   0.000003   0.000000
    26  H   -0.017374   0.390167  -0.004583  -0.000662  -0.000000  -0.000000
    27  H   -0.054898   0.427650  -0.006512   0.001946   0.000000   0.000000
    28  H   -0.053279   0.427611   0.006950  -0.000639   0.000000  -0.000000
    29  H   -0.062065  -0.006795   0.443200  -0.048871  -0.000028  -0.000009
    30  H    0.008424  -0.000057  -0.048534   0.432618   0.013554   0.000364
              19         20         21         22         23         24
     1  O    0.008971  -0.000038   0.000001  -0.000000  -0.000017   0.008187
     2  S   -0.002920  -0.000003   0.000003  -0.000007  -0.000121  -0.004119
     3  N   -0.001404  -0.000119   0.000008  -0.000360   0.002897   0.000355
     4  C   -0.044799   0.013945  -0.003964   0.015211  -0.080498   0.000127
     5  C    0.434639  -0.057683   0.011297  -0.003858   0.012037   0.000016
     6  C   -0.048922   0.446325  -0.056275   0.010719  -0.003893   0.000350
     7  C    0.010215  -0.058353   0.443933  -0.057143   0.010390   0.000105
     8  C   -0.004442   0.010553  -0.056087   0.438886  -0.031465   0.000167
     9  C    0.011287  -0.003503   0.012198  -0.053930   0.439950  -0.001667
    10  C    0.001828  -0.000016   0.000004   0.000005   0.000786  -0.046328
    11  C   -0.000442  -0.000004  -0.000018   0.000029  -0.000269   0.436241
    12  C   -0.000158   0.000008  -0.000002   0.000022  -0.000258  -0.049468
    13  C    0.000015  -0.000000  -0.000001  -0.000005  -0.000009   0.008916
    14  C    0.000000  -0.000000   0.000000   0.000000  -0.000000  -0.000031
    15  C    0.000007  -0.000000   0.000000  -0.000003   0.000310  -0.002425
    16  C   -0.000172   0.000001  -0.000000  -0.000001   0.000380   0.008176
    17  O   -0.000133  -0.000000   0.000000  -0.000000  -0.000176   0.000385
    18  H   -0.000050   0.000013  -0.000002  -0.000040   0.003563  -0.000098
    19  H    0.476170  -0.006493  -0.000017   0.000015   0.000012  -0.000091
    20  H   -0.006493   0.534758  -0.006847  -0.000125   0.000028  -0.000017
    21  H   -0.000017  -0.006847   0.538791  -0.006650  -0.000098  -0.000004
    22  H    0.000015  -0.000125  -0.006650   0.541628  -0.007507   0.000004
    23  H    0.000012   0.000028  -0.000098  -0.007507   0.538595  -0.000053
    24  H   -0.000091  -0.000017  -0.000004   0.000004  -0.000053   0.481726
    25  H   -0.000007   0.000001  -0.000000  -0.000000  -0.000002  -0.005595
    26  H    0.000000   0.000000  -0.000000  -0.000000   0.000000   0.000008
    27  H   -0.000000  -0.000000   0.000000  -0.000000   0.000000   0.000002
    28  H   -0.000000   0.000000  -0.000000   0.000000  -0.000000  -0.000022
    29  H   -0.000000   0.000000   0.000000   0.000000  -0.000003   0.000026
    30  H   -0.000005   0.000000  -0.000000   0.000000  -0.000067  -0.000066
              25         26         27         28         29         30
     1  O   -0.000011  -0.000000   0.000000   0.000000   0.000004   0.000543
     2  S   -0.000100  -0.000001   0.000001   0.000001  -0.000114  -0.004414
     3  N    0.000031   0.000000  -0.000000  -0.000000   0.000017   0.000275
     4  C    0.000037  -0.000000  -0.000001   0.000003  -0.000007  -0.000183
     5  C   -0.000101  -0.000000   0.000000   0.000000  -0.000002  -0.000018
     6  C    0.000057   0.000000  -0.000000   0.000000   0.000000   0.000007
     7  C    0.000008   0.000000   0.000000  -0.000000  -0.000000  -0.000003
     8  C    0.000072   0.000000  -0.000001   0.000001   0.000003   0.000006
     9  C   -0.000080   0.000000   0.000001  -0.000002  -0.000002  -0.000132
    10  C    0.010712   0.000161   0.000065   0.000055   0.011285  -0.045628
    11  C   -0.048550  -0.000731  -0.000710   0.001935  -0.003857   0.008280
    12  C    0.444513  -0.004877   0.007942  -0.006656   0.012870  -0.002425
    13  C   -0.063182  -0.017374  -0.054898  -0.053279  -0.062065   0.008424
    14  C   -0.006642   0.390167   0.427650   0.427611  -0.006795  -0.000057
    15  C    0.012779  -0.004583  -0.006512   0.006950   0.443200  -0.048534
    16  C   -0.003657  -0.000662   0.001946  -0.000639  -0.048871   0.432618
    17  O    0.000003  -0.000000   0.000000   0.000000  -0.000028   0.013554
    18  H    0.000000  -0.000000   0.000000  -0.000000  -0.000009   0.000364
    19  H   -0.000007   0.000000  -0.000000  -0.000000  -0.000000  -0.000005
    20  H    0.000001   0.000000  -0.000000   0.000000   0.000000   0.000000
    21  H   -0.000000  -0.000000   0.000000  -0.000000   0.000000  -0.000000
    22  H   -0.000000  -0.000000  -0.000000   0.000000   0.000000   0.000000
    23  H   -0.000002   0.000000   0.000000  -0.000000  -0.000003  -0.000067
    24  H   -0.005595   0.000008   0.000002  -0.000022   0.000026  -0.000066
    25  H    0.533620   0.000256   0.000074   0.000877  -0.000049   0.000031
    26  H    0.000256   0.544765  -0.023392  -0.024253   0.000224   0.000007
    27  H    0.000074  -0.023392   0.542008  -0.023656   0.001099  -0.000019
    28  H    0.000877  -0.024253  -0.023656   0.540735   0.000057   0.000003
    29  H   -0.000049   0.000224   0.001099   0.000057   0.533416  -0.005563
    30  H    0.000031   0.000007  -0.000019   0.000003  -0.005563   0.477702
 Mulliken charges:
               1
     1  O   -0.461032
     2  S    0.856455
     3  N   -0.316467
     4  C    0.199953
     5  C   -0.270616
     6  C   -0.072224
     7  C   -0.137604
     8  C   -0.096897
     9  C   -0.217413
    10  C    0.000981
    11  C   -0.135610
    12  C   -0.195654
    13  C    0.160735
    14  C   -0.363467
    15  C   -0.186578
    16  C   -0.174771
    17  O   -0.474534
    18  H    0.248421
    19  H    0.166899
    20  H    0.127570
    21  H    0.123730
    22  H    0.123109
    23  H    0.115489
    24  H    0.165192
    25  H    0.124907
    26  H    0.140285
    27  H    0.128400
    28  H    0.130281
    29  H    0.125165
    30  H    0.165296
 Sum of Mulliken charges =  -0.00000
 Mulliken charges with hydrogens summed into heavy atoms:
               1
     1  O   -0.461032
     2  S    0.856455
     3  N   -0.068045
     4  C    0.199953
     5  C   -0.103716
     6  C    0.055346
     7  C   -0.013874
     8  C    0.026211
     9  C   -0.101925
    10  C    0.000981
    11  C    0.029583
    12  C   -0.070747
    13  C    0.160735
    14  C    0.035499
    15  C   -0.061413
    16  C   -0.009475
    17  O   -0.474534
 Electronic spatial extent (au):  <R**2>=           4366.5503
 Charge=             -0.0000 electrons
 Dipole moment (field-independent basis, Debye):
    X=             -1.8221    Y=             -5.3823    Z=             -1.7647  Tot=              5.9500
 Quadrupole moment (field-independent basis, Debye-Ang):
   XX=            -96.8181   YY=           -114.0120   ZZ=           -101.0968
   XY=              0.2827   XZ=              2.6667   YZ=             -4.5451
 Traceless Quadrupole moment (field-independent basis, Debye-Ang):
   XX=              7.1575   YY=            -10.0363   ZZ=              2.8788
   XY=              0.2827   XZ=              2.6667   YZ=             -4.5451
 Octapole moment (field-independent basis, Debye-Ang**2):
  XXX=            -41.9528  YYY=            -42.3705  ZZZ=            -11.7711  XYY=              3.5034
  XXY=            -16.3270  XXZ=              7.5839  XZZ=              2.8462  YZZ=             -0.4004
  YYZ=             -0.7607  XYZ=             -0.8842
 Hexadecapole moment (field-independent basis, Debye-Ang**3):
 XXXX=          -3343.3424 YYYY=          -1978.1757 ZZZZ=           -577.7236 XXXY=             53.3206
 XXXZ=            112.7764 YYYX=            -18.4118 YYYZ=             17.6588 ZZZX=             13.6183
 ZZZY=            -24.0123 XXYY=           -821.9273 XXZZ=           -639.4803 YYZZ=           -410.8808
 XXYZ=            -31.6011 YYXZ=            -12.7902 ZZXY=             -2.1747
 N-N= 1.331933932562D+03 E-N=-5.259239794656D+03  KE= 1.102023893668D+03
 Breneman (CHELPG) radii used.
 Read replacement radii for each type of atom:
 Atom Element Radius
    1     8    1.70
    2    16    2.00
    3     7    1.70
    4     6    1.50
    5     6    1.50
    6     6    1.50
    7     6    1.50
    8     6    1.50
    9     6    1.50
   10     6    1.50
   11     6    1.50
   12     6    1.50
   13     6    1.50
   14     6    1.50
   15     6    1.50
   16     6    1.50
   17     8    1.70
   18     1    1.45
   19     1    1.45
   20     1    1.45
   21     1    1.45
   22     1    1.45
   23     1    1.45
   24     1    1.45
   25     1    1.45
   26     1    1.45
   27     1    1.45
   28     1    1.45
   29     1    1.45
   30     1    1.45
 Generate Potential Derived Charges using the Breneman model, NDens= 1.
 Grid spacing= 0.300 Box extension= 2.800
 NStep X,Y,Z=   49     41     34   Total possible points=       68306
 Number of Points to Fit=   18718

 **********************************************************************

            Electrostatic Properties Using The SCF Density.

 **********************************************************************

       Atomic Center    1 is at   0.759944  2.053065  1.477397
       Atomic Center    2 is at   0.211273  1.955931  0.139110
       Atomic Center    3 is at   1.389779  1.267755 -0.841661
       Atomic Center    4 is at   1.950910  0.004426 -0.532365
       Atomic Center    5 is at   2.685199 -0.167056  0.646471
       Atomic Center    6 is at   3.219079 -1.416737  0.949240
       Atomic Center    7 is at   3.052600 -2.492014  0.076097
       Atomic Center    8 is at   2.334421 -2.314389 -1.105142
       Atomic Center    9 is at   1.772341 -1.075424 -1.403463
       Atomic Center   10 is at  -1.098917  0.752240  0.173437
       Atomic Center   11 is at  -1.042936 -0.301518  1.084599
       Atomic Center   12 is at  -2.036171 -1.274929  1.051370
       Atomic Center   13 is at  -3.088683 -1.207242  0.129525
       Atomic Center   14 is at  -4.177563 -2.246564  0.128490
       Atomic Center   15 is at  -3.122087 -0.132159 -0.768106
       Atomic Center   16 is at  -2.134276  0.847582 -0.754268
       Atomic Center   17 is at  -0.244763  3.115717 -0.602896
       Atomic Center   18 is at   1.147280  1.412350 -1.817967
       Atomic Center   19 is at   2.820760  0.683235  1.314811
       Atomic Center   20 is at   3.787050 -1.545960  1.873092
       Atomic Center   21 is at   3.485179 -3.465695  0.314522
       Atomic Center   22 is at   2.197102 -3.148951 -1.795976
       Atomic Center   23 is at   1.185572 -0.942098 -2.315889
       Atomic Center   24 is at  -0.230770 -0.351114  1.811554
       Atomic Center   25 is at  -1.993686 -2.105293  1.760497
       Atomic Center   26 is at  -4.981517 -1.962672  0.826696
       Atomic Center   27 is at  -4.629045 -2.356505 -0.867434
       Atomic Center   28 is at  -3.797038 -3.227611  0.446006
       Atomic Center   29 is at  -3.939371 -0.058395 -1.489961
       Atomic Center   30 is at  -2.165294  1.691976 -1.445424
   18718 points will be used for fitting atomic charges
 Fitting point charges to electrostatic potential
 Charges from ESP fit, RMS=   0.00358 RRMS=   0.21891:
 ESP charges:
               1
     1  O   -0.469905
     2  S    0.935410
     3  N   -0.647287
     4  C    0.411716
     5  C   -0.220408
     6  C   -0.054528
     7  C   -0.148521
     8  C   -0.053319
     9  C   -0.270461
    10  C   -0.065642
    11  C   -0.035987
    12  C   -0.230970
    13  C    0.239497
    14  C   -0.271747
    15  C   -0.212136
    16  C   -0.067647
    17  O   -0.485577
    18  H    0.354833
    19  H    0.160570
    20  H    0.097037
    21  H    0.105267
    22  H    0.104247
    23  H    0.111128
    24  H    0.099609
    25  H    0.129039
    26  H    0.090155
    27  H    0.077343
    28  H    0.078769
    29  H    0.126854
    30  H    0.112662
 Sum of ESP charges =  -0.00000
 ESP charges with hydrogens summed into heavy atoms:
               1
     1  O   -0.469905
     2  S    0.935410
     3  N   -0.292454
     4  C    0.411716
     5  C   -0.059838
     6  C    0.042509
     7  C   -0.043255
     8  C    0.050928
     9  C   -0.159333
    10  C   -0.065642
    11  C    0.063622
    12  C   -0.101931
    13  C    0.239497
    14  C   -0.025480
    15  C   -0.085282
    16  C    0.045015
    17  O   -0.485577
 Charge=  -0.00000 Dipole=    -1.7021    -5.2557    -1.7354 Tot=     5.7906
 -----------------------------------------------------------------

              Electrostatic Properties (Atomic Units)

 -----------------------------------------------------------------
    Center     Electric         -------- Electric Field --------
               Potential          X             Y             Z
 -----------------------------------------------------------------
    1 Atom    -22.373377
    2 Atom    -59.026799
    3 Atom    -18.345601
    4 Atom    -14.712676
    5 Atom    -14.763164
    6 Atom    -14.758979
    7 Atom    -14.761226
    8 Atom    -14.756711
    9 Atom    -14.755803
   10 Atom    -14.732023
   11 Atom    -14.745692
   12 Atom    -14.752982
   13 Atom    -14.736846
   14 Atom    -14.755044
   15 Atom    -14.752124
   16 Atom    -14.744873
   17 Atom    -22.373239
   18 Atom     -1.001974
   19 Atom     -1.101924
   20 Atom     -1.099705
   21 Atom     -1.099250
   22 Atom     -1.096082
   23 Atom     -1.087785
   24 Atom     -1.088678
   25 Atom     -1.091441
   26 Atom     -1.097640
   27 Atom     -1.100364
   28 Atom     -1.100254
   29 Atom     -1.090247
   30 Atom     -1.086167
 -----------------------------------------------------------------
 Unable to Open any file for archive entry.
 1\1\GINC-NOTCH072\SP\RwB97XD\def2TZVP\C13H13N1O2S1\U1366379\17-Feb-202
 6\0\\#N Guess=Read Geom=Check Integral(Ultrafine) Density Pop=(ChelpG,
 ReadRadii) NMR wB97XD def2TZVP\\prod_5l_40\\0,1\O,0,0.1714071809,2.478
 5678975,0.9568386133\S,0,-0.0643510737,2.0026687935,-0.3920219495\N,0,
 1.3595151412,1.2931347504,-0.9338184624\C,0,1.9629419485,0.228978993,-
 0.2196905206\C,0,2.4398520485,0.4376960993,1.0792462356\C,0,3.01685706
 72,-0.6188114734,1.7787158286\C,0,3.1490006068,-1.8755516251,1.1875678
 151\C,0,2.6876535272,-2.0765142278,-0.1122128736\C,0,2.0833509877,-1.0
 33490881,-0.8099832919\C,0,-1.2258823548,0.6576671248,-0.3000307847\C,
 0,-1.2633622666,-0.1437499704,0.8401804561\C,0,-2.1251487396,-1.235377
 8376,0.8688696234\C,0,-2.9562547457,-1.5331911063,-0.2186649329\C,0,-3
 .9113853239,-2.6951712171,-0.1605488323\C,0,-2.9018538633,-0.704855077
 9,-1.3471866062\C,0,-2.0417933723,0.3877014753,-1.3968918998\O,0,-0.46
 24056691,2.8852012511,-1.4719916789\H,0,1.3195408174,1.1767557704,-1.9
 426518132\H,0,2.3439150581,1.4270820608,1.526416672\H,0,3.3828228128,-
 0.4513697136,2.7940111163\H,0,3.6141659583,-2.6957012588,1.7380245028\
 H,0,2.7851653989,-3.056076896,-0.5850245265\H,0,1.6962586697,-1.197184
 1918,-1.8189227693\H,0,-0.6256606152,0.0921095214,1.6935521272\H,0,-2.
 1543574896,-1.8691344166,1.7586279241\H,0,-4.8706637535,-2.3832944122,
 0.2832361356\H,0,-4.1250613063,-3.0919668827,-1.1628880166\H,0,-3.5130
 742164,-3.5122945591,0.4572922195\H,0,-3.5480102638,-0.9170472868,-2.2
 027129403\H,0,-2.0066921694,1.0407092968,-2.270967371\\Version=ES64L-G
 16RevC.01\State=1-A\HF=-1106.6304771\RMSD=3.939e-09\Dipole=-0.3381504,
 -2.3015301,-0.2618194\Quadrupole=4.0376333,-7.970013,3.9323797,2.70868
 23,2.1656213,-0.1081548\PG=C01 [X(C13H13N1O2S1)]\\@
 The archive entry for this job was punched.


 NOTHING PUZZLES ME MORE THAN TIME AND SPACE; AND YET NOTHING TROUBLES ME LESS
                                                          -- CHARLES LAMB (1810)
 Job cpu time:       0 days  2 hours 10 minutes 50.4 seconds.
 Elapsed time:       0 days  0 hours 16 minutes 54.2 seconds.
 File lengths (MBytes):  RWF=    226 Int=      0 D2E=      0 Chk=     34 Scr=      2
 Normal termination of Gaussian 16 at Tue Feb 17 17:59:01 2026.
