 Entering Gaussian System, Link 0=g16
 Input=prod_3g_4.com
 Output=prod_3g_4.log
 Initial command:
 /uufs/chpc.utah.edu/sys/installdir/gaussian16/C01/AVX/g16/l1.exe "/scratch/general/vast/u1366379/GAUSSSCRDIR/11028615-notchpeak.peaks/Gau-2981259.inp" -scrdir="/scratch/general/vast/u1366379/GAUSSSCRDIR/11028615-notchpeak.peaks/"
 Entering Link 1 = /uufs/chpc.utah.edu/sys/installdir/gaussian16/C01/AVX/g16/l1.exe PID=   2981260.
  
 Copyright (c) 1988-2019, Gaussian, Inc.  All Rights Reserved.
  
 This is part of the Gaussian(R) 16 program.  It is based on
 the Gaussian(R) 09 system (copyright 2009, Gaussian, Inc.),
 the Gaussian(R) 03 system (copyright 2003, Gaussian, Inc.),
 the Gaussian(R) 98 system (copyright 1998, Gaussian, Inc.),
 the Gaussian(R) 94 system (copyright 1995, Gaussian, Inc.),
 the Gaussian 92(TM) system (copyright 1992, Gaussian, Inc.),
 the Gaussian 90(TM) system (copyright 1990, Gaussian, Inc.),
 the Gaussian 88(TM) system (copyright 1988, Gaussian, Inc.),
 the Gaussian 86(TM) system (copyright 1986, Carnegie Mellon
 University), and the Gaussian 82(TM) system (copyright 1983,
 Carnegie Mellon University). Gaussian is a federally registered
 trademark of Gaussian, Inc.
  
 This software contains proprietary and confidential information,
 including trade secrets, belonging to Gaussian, Inc.
  
 This software is provided under written license and may be
 used, copied, transmitted, or stored only in accord with that
 written license.
  
 The following legend is applicable only to US Government
 contracts under FAR:
  
                    RESTRICTED RIGHTS LEGEND
  
 Use, reproduction and disclosure by the US Government is
 subject to restrictions as set forth in subparagraphs (a)
 and (c) of the Commercial Computer Software - Restricted
 Rights clause in FAR 52.227-19.
  
 Gaussian, Inc.
 340 Quinnipiac St., Bldg. 40, Wallingford CT 06492
  
  
 ---------------------------------------------------------------
 Warning -- This program may not be used in any manner that
 competes with the business of Gaussian, Inc. or will provide
 assistance to any competitor of Gaussian, Inc.  The licensee
 of this program is prohibited from giving any competitor of
 Gaussian, Inc. access to this program.  By using this program,
 the user acknowledges that Gaussian, Inc. is engaged in the
 business of creating and licensing software in the field of
 computational chemistry and represents and warrants to the
 licensee that it is not a competitor of Gaussian, Inc. and that
 it will not use this program in any manner prohibited above.
 ---------------------------------------------------------------
  

 Cite this work as:
 Gaussian 16, Revision C.01,
 M. J. Frisch, G. W. Trucks, H. B. Schlegel, G. E. Scuseria, 
 M. A. Robb, J. R. Cheeseman, G. Scalmani, V. Barone, 
 G. A. Petersson, H. Nakatsuji, X. Li, M. Caricato, A. V. Marenich, 
 J. Bloino, B. G. Janesko, R. Gomperts, B. Mennucci, H. P. Hratchian, 
 J. V. Ortiz, A. F. Izmaylov, J. L. Sonnenberg, D. Williams-Young, 
 F. Ding, F. Lipparini, F. Egidi, J. Goings, B. Peng, A. Petrone, 
 T. Henderson, D. Ranasinghe, V. G. Zakrzewski, J. Gao, N. Rega, 
 G. Zheng, W. Liang, M. Hada, M. Ehara, K. Toyota, R. Fukuda, 
 J. Hasegawa, M. Ishida, T. Nakajima, Y. Honda, O. Kitao, H. Nakai, 
 T. Vreven, K. Throssell, J. A. Montgomery, Jr., J. E. Peralta, 
 F. Ogliaro, M. J. Bearpark, J. J. Heyd, E. N. Brothers, K. N. Kudin, 
 V. N. Staroverov, T. A. Keith, R. Kobayashi, J. Normand, 
 K. Raghavachari, A. P. Rendell, J. C. Burant, S. S. Iyengar, 
 J. Tomasi, M. Cossi, J. M. Millam, M. Klene, C. Adamo, R. Cammi, 
 J. W. Ochterski, R. L. Martin, K. Morokuma, O. Farkas, 
 J. B. Foresman, and D. J. Fox, Gaussian, Inc., Wallingford CT, 2019.
 
 ******************************************
 Gaussian 16:  ES64L-G16RevC.01  3-Jul-2019
                17-Feb-2026 
 ******************************************
 %NProcShared=8
 Will use up to    8 processors via shared memory.
 %Mem=8GB
 %chk=prod_3g_4.chk
 ------------------------------------------------------
 #N OPT FREQ=NORAMAN Integral(Ultrafine) wB97XD def2SVP
 ------------------------------------------------------
 1/18=20,19=15,26=4,38=1/1,3;
 2/9=110,12=2,17=6,18=5,40=1/2;
 3/5=43,7=101,11=2,25=1,30=1,71=1,74=-58,75=-5/1,2,3;
 4//1;
 5/5=2,38=5/2;
 6/7=2,8=2,9=2,10=2,28=1/1;
 7//1,2,3,16;
 1/18=20,19=15,26=4/3(2);
 2/9=110/2;
 99//99;
 2/9=110/2;
 3/5=43,7=101,11=2,25=1,30=1,71=1,74=-58,75=-5/1,2,3;
 4/5=5,16=3,69=1/1;
 5/5=2,38=5/2;
 7//1,2,3,16;
 1/18=20,19=15,26=4/3(-5);
 2/9=110/2;
 6/7=2,8=2,9=2,10=2,19=2,28=1/1;
 99/9=1/99;
 ---------
 prod_3g_4
 ---------
 Symbolic Z-matrix:
 Charge =  0 Multiplicity = 1
 C                    -5.13415   1.09251   0.10224 
 O                    -3.8472    1.57513  -0.19714 
 C                    -2.82646   0.61912  -0.10929 
 C                    -1.52995   1.03953  -0.39477 
 C                    -0.44465   0.17475  -0.32863 
 N                     0.85024   0.64553  -0.64582 
 C                     2.09545   0.12384  -0.22912 
 C                     3.24456   0.38664  -0.97433 
 C                     4.46875  -0.09988  -0.57454 
 C                     4.57338  -0.84928   0.58113 
 C                     3.44787  -1.10498   1.33999 
 C                     2.2218   -0.62162   0.94229 
 C                    -0.6785   -1.15676   0.01147 
 C                    -1.95371  -1.59214   0.29604 
 C                    -3.01893  -0.72003   0.24269 
 H                    -5.16311   0.72198   1.12756 
 H                    -5.8441    1.91429   0.0033 
 H                    -5.40742   0.30299  -0.59877 
 H                    -1.37327   2.06708  -0.6628 
 H                     0.88991   1.46449  -1.24788 
 H                     3.15858   0.969    -1.87505 
 H                     5.3475    0.10482  -1.16402 
 H                     5.53255  -1.22869   0.89343 
 H                     3.53091  -1.67894   2.24844 
 H                     1.35245  -0.78625   1.55355 
 H                     0.14391  -1.84958   0.01476 
 H                    -2.12003  -2.62462   0.5569 
 H                    -4.00723  -1.07667   0.46825 
 

 GradGradGradGradGradGradGradGradGradGradGradGradGradGradGradGradGradGrad
 Berny optimization.
 Initialization pass.
                           ----------------------------
                           !    Initial Parameters    !
                           ! (Angstroms and Degrees)  !
 --------------------------                            --------------------------
 ! Name  Definition              Value          Derivative Info.                !
 --------------------------------------------------------------------------------
 ! R1    R(1,2)                  1.4067         estimate D2E/DX2                !
 ! R2    R(1,16)                 1.0906         estimate D2E/DX2                !
 ! R3    R(1,17)                 1.0905         estimate D2E/DX2                !
 ! R4    R(1,18)                 1.0906         estimate D2E/DX2                !
 ! R5    R(2,3)                  1.4013         estimate D2E/DX2                !
 ! R6    R(3,4)                  1.3925         estimate D2E/DX2                !
 ! R7    R(3,15)                 1.3979         estimate D2E/DX2                !
 ! R8    R(4,5)                  1.3893         estimate D2E/DX2                !
 ! R9    R(4,19)                 1.0734         estimate D2E/DX2                !
 ! R10   R(5,6)                  1.4139         estimate D2E/DX2                !
 ! R11   R(5,13)                 1.394          estimate D2E/DX2                !
 ! R12   R(6,7)                  1.4129         estimate D2E/DX2                !
 ! R13   R(6,20)                 1.0172         estimate D2E/DX2                !
 ! R14   R(7,8)                  1.3946         estimate D2E/DX2                !
 ! R15   R(7,12)                 1.3942         estimate D2E/DX2                !
 ! R16   R(8,9)                  1.3767         estimate D2E/DX2                !
 ! R17   R(8,21)                 1.076          estimate D2E/DX2                !
 ! R18   R(9,10)                 1.3813         estimate D2E/DX2                !
 ! R19   R(9,22)                 1.0778         estimate D2E/DX2                !
 ! R20   R(10,11)                1.3813         estimate D2E/DX2                !
 ! R21   R(10,23)                1.0777         estimate D2E/DX2                !
 ! R22   R(11,12)                1.3766         estimate D2E/DX2                !
 ! R23   R(11,24)                1.0778         estimate D2E/DX2                !
 ! R24   R(12,25)                1.0754         estimate D2E/DX2                !
 ! R25   R(13,14)                1.3772         estimate D2E/DX2                !
 ! R26   R(13,26)                1.0753         estimate D2E/DX2                !
 ! R27   R(14,15)                1.3777         estimate D2E/DX2                !
 ! R28   R(14,27)                1.0778         estimate D2E/DX2                !
 ! R29   R(15,28)                1.0746         estimate D2E/DX2                !
 ! A1    A(2,1,16)             109.9343         estimate D2E/DX2                !
 ! A2    A(2,1,17)             108.5278         estimate D2E/DX2                !
 ! A3    A(2,1,18)             109.9262         estimate D2E/DX2                !
 ! A4    A(16,1,17)            108.9077         estimate D2E/DX2                !
 ! A5    A(16,1,18)            110.5905         estimate D2E/DX2                !
 ! A6    A(17,1,18)            108.911          estimate D2E/DX2                !
 ! A7    A(1,2,3)              114.7724         estimate D2E/DX2                !
 ! A8    A(2,3,4)              117.347          estimate D2E/DX2                !
 ! A9    A(2,3,15)             124.6833         estimate D2E/DX2                !
 ! A10   A(4,3,15)             117.9697         estimate D2E/DX2                !
 ! A11   A(3,4,5)              121.9811         estimate D2E/DX2                !
 ! A12   A(3,4,19)             118.4299         estimate D2E/DX2                !
 ! A13   A(5,4,19)             119.5857         estimate D2E/DX2                !
 ! A14   A(4,5,6)              119.8359         estimate D2E/DX2                !
 ! A15   A(4,5,13)             118.3674         estimate D2E/DX2                !
 ! A16   A(6,5,13)             121.7638         estimate D2E/DX2                !
 ! A17   A(5,6,7)              128.1731         estimate D2E/DX2                !
 ! A18   A(5,6,20)             115.8856         estimate D2E/DX2                !
 ! A19   A(7,6,20)             115.9411         estimate D2E/DX2                !
 ! A20   A(6,7,8)              119.9341         estimate D2E/DX2                !
 ! A21   A(6,7,12)             121.6731         estimate D2E/DX2                !
 ! A22   A(8,7,12)             118.3623         estimate D2E/DX2                !
 ! A23   A(7,8,9)              120.7269         estimate D2E/DX2                !
 ! A24   A(7,8,21)             118.911          estimate D2E/DX2                !
 ! A25   A(9,8,21)             120.3592         estimate D2E/DX2                !
 ! A26   A(8,9,10)             120.1355         estimate D2E/DX2                !
 ! A27   A(8,9,22)             119.9394         estimate D2E/DX2                !
 ! A28   A(10,9,22)            119.9251         estimate D2E/DX2                !
 ! A29   A(9,10,11)            119.8896         estimate D2E/DX2                !
 ! A30   A(9,10,23)            120.0555         estimate D2E/DX2                !
 ! A31   A(11,10,23)           120.0538         estimate D2E/DX2                !
 ! A32   A(10,11,12)           120.1322         estimate D2E/DX2                !
 ! A33   A(10,11,24)           119.925          estimate D2E/DX2                !
 ! A34   A(12,11,24)           119.9417         estimate D2E/DX2                !
 ! A35   A(7,12,11)            120.7424         estimate D2E/DX2                !
 ! A36   A(7,12,25)            119.0878         estimate D2E/DX2                !
 ! A37   A(11,12,25)           120.1341         estimate D2E/DX2                !
 ! A38   A(5,13,14)            120.5107         estimate D2E/DX2                !
 ! A39   A(5,13,26)            119.1987         estimate D2E/DX2                !
 ! A40   A(14,13,26)           120.2542         estimate D2E/DX2                !
 ! A41   A(13,14,15)           120.5172         estimate D2E/DX2                !
 ! A42   A(13,14,27)           119.7173         estimate D2E/DX2                !
 ! A43   A(15,14,27)           119.7645         estimate D2E/DX2                !
 ! A44   A(3,15,14)            120.6428         estimate D2E/DX2                !
 ! A45   A(3,15,28)            119.8273         estimate D2E/DX2                !
 ! A46   A(14,15,28)           119.5288         estimate D2E/DX2                !
 ! D1    D(16,1,2,3)            60.9674         estimate D2E/DX2                !
 ! D2    D(17,1,2,3)           179.9854         estimate D2E/DX2                !
 ! D3    D(18,1,2,3)           -60.9974         estimate D2E/DX2                !
 ! D4    D(1,2,3,4)           -179.9939         estimate D2E/DX2                !
 ! D5    D(1,2,3,15)             0.0309         estimate D2E/DX2                !
 ! D6    D(2,3,4,5)            179.5516         estimate D2E/DX2                !
 ! D7    D(2,3,4,19)             0.2172         estimate D2E/DX2                !
 ! D8    D(15,3,4,5)            -0.4715         estimate D2E/DX2                !
 ! D9    D(15,3,4,19)         -179.8058         estimate D2E/DX2                !
 ! D10   D(2,3,15,14)          179.6336         estimate D2E/DX2                !
 ! D11   D(2,3,15,28)            0.024          estimate D2E/DX2                !
 ! D12   D(4,3,15,14)           -0.3415         estimate D2E/DX2                !
 ! D13   D(4,3,15,28)         -179.9511         estimate D2E/DX2                !
 ! D14   D(3,4,5,6)            179.1331         estimate D2E/DX2                !
 ! D15   D(3,4,5,13)             1.1801         estimate D2E/DX2                !
 ! D16   D(19,4,5,6)            -1.5401         estimate D2E/DX2                !
 ! D17   D(19,4,5,13)         -179.4931         estimate D2E/DX2                !
 ! D18   D(4,5,6,7)            156.3888         estimate D2E/DX2                !
 ! D19   D(4,5,6,20)           -23.4322         estimate D2E/DX2                !
 ! D20   D(13,5,6,7)           -25.7297         estimate D2E/DX2                !
 ! D21   D(13,5,6,20)          154.4493         estimate D2E/DX2                !
 ! D22   D(4,5,13,14)           -1.0935         estimate D2E/DX2                !
 ! D23   D(4,5,13,26)          176.7184         estimate D2E/DX2                !
 ! D24   D(6,5,13,14)         -179.005          estimate D2E/DX2                !
 ! D25   D(6,5,13,26)           -1.1931         estimate D2E/DX2                !
 ! D26   D(5,6,7,8)            157.3815         estimate D2E/DX2                !
 ! D27   D(5,6,7,12)           -24.6595         estimate D2E/DX2                !
 ! D28   D(20,6,7,8)           -22.7976         estimate D2E/DX2                !
 ! D29   D(20,6,7,12)          155.1614         estimate D2E/DX2                !
 ! D30   D(6,7,8,9)            179.2079         estimate D2E/DX2                !
 ! D31   D(6,7,8,21)            -1.4064         estimate D2E/DX2                !
 ! D32   D(12,7,8,9)             1.1817         estimate D2E/DX2                !
 ! D33   D(12,7,8,21)         -179.4325         estimate D2E/DX2                !
 ! D34   D(6,7,12,11)         -179.0827         estimate D2E/DX2                !
 ! D35   D(6,7,12,25)           -1.2518         estimate D2E/DX2                !
 ! D36   D(8,7,12,11)           -1.0926         estimate D2E/DX2                !
 ! D37   D(8,7,12,25)          176.7383         estimate D2E/DX2                !
 ! D38   D(7,8,9,10)            -0.4911         estimate D2E/DX2                !
 ! D39   D(7,8,9,22)           179.5485         estimate D2E/DX2                !
 ! D40   D(21,8,9,10)         -179.8679         estimate D2E/DX2                !
 ! D41   D(21,8,9,22)            0.1716         estimate D2E/DX2                !
 ! D42   D(8,9,10,11)           -0.3164         estimate D2E/DX2                !
 ! D43   D(8,9,10,23)         -179.9389         estimate D2E/DX2                !
 ! D44   D(22,9,10,11)         179.6441         estimate D2E/DX2                !
 ! D45   D(22,9,10,23)           0.0216         estimate D2E/DX2                !
 ! D46   D(9,10,11,12)           0.4053         estimate D2E/DX2                !
 ! D47   D(9,10,11,24)        -179.2178         estimate D2E/DX2                !
 ! D48   D(23,10,11,12)       -179.9722         estimate D2E/DX2                !
 ! D49   D(23,10,11,24)          0.4047         estimate D2E/DX2                !
 ! D50   D(10,11,12,7)           0.3126         estimate D2E/DX2                !
 ! D51   D(10,11,12,25)       -177.4956         estimate D2E/DX2                !
 ! D52   D(24,11,12,7)         179.9356         estimate D2E/DX2                !
 ! D53   D(24,11,12,25)          2.1274         estimate D2E/DX2                !
 ! D54   D(5,13,14,15)           0.3166         estimate D2E/DX2                !
 ! D55   D(5,13,14,27)         179.9593         estimate D2E/DX2                !
 ! D56   D(26,13,14,15)       -177.4722         estimate D2E/DX2                !
 ! D57   D(26,13,14,27)          2.1705         estimate D2E/DX2                !
 ! D58   D(13,14,15,3)           0.4181         estimate D2E/DX2                !
 ! D59   D(13,14,15,28)       -179.9711         estimate D2E/DX2                !
 ! D60   D(27,14,15,3)        -179.2244         estimate D2E/DX2                !
 ! D61   D(27,14,15,28)          0.3864         estimate D2E/DX2                !
 --------------------------------------------------------------------------------
 Trust Radius=3.00D-01 FncErr=1.00D-07 GrdErr=1.00D-06 EigMax=2.50D+02 EigMin=1.00D-04
 Number of steps in this run=    146 maximum allowed number of steps=    168.
 GradGradGradGradGradGradGradGradGradGradGradGradGradGradGradGradGradGrad

                          Input orientation:                          
 ---------------------------------------------------------------------
 Center     Atomic      Atomic             Coordinates (Angstroms)
 Number     Number       Type             X           Y           Z
 ---------------------------------------------------------------------
      1          6           0       -5.134150    1.092510    0.102240
      2          8           0       -3.847200    1.575130   -0.197140
      3          6           0       -2.826460    0.619120   -0.109290
      4          6           0       -1.529950    1.039530   -0.394770
      5          6           0       -0.444650    0.174750   -0.328630
      6          7           0        0.850240    0.645530   -0.645820
      7          6           0        2.095450    0.123840   -0.229120
      8          6           0        3.244560    0.386640   -0.974330
      9          6           0        4.468750   -0.099880   -0.574540
     10          6           0        4.573380   -0.849280    0.581130
     11          6           0        3.447870   -1.104980    1.339990
     12          6           0        2.221800   -0.621620    0.942290
     13          6           0       -0.678500   -1.156760    0.011470
     14          6           0       -1.953710   -1.592140    0.296040
     15          6           0       -3.018930   -0.720030    0.242690
     16          1           0       -5.163110    0.721980    1.127560
     17          1           0       -5.844100    1.914290    0.003300
     18          1           0       -5.407420    0.302990   -0.598770
     19          1           0       -1.373270    2.067080   -0.662800
     20          1           0        0.889910    1.464490   -1.247880
     21          1           0        3.158580    0.969000   -1.875050
     22          1           0        5.347500    0.104820   -1.164020
     23          1           0        5.532550   -1.228690    0.893430
     24          1           0        3.530910   -1.678940    2.248440
     25          1           0        1.352450   -0.786250    1.553550
     26          1           0        0.143910   -1.849580    0.014760
     27          1           0       -2.120030   -2.624620    0.556900
     28          1           0       -4.007230   -1.076670    0.468250
 ---------------------------------------------------------------------
                    Distance matrix (angstroms):
                    1          2          3          4          5
     1  C    0.000000
     2  O    1.406695   0.000000
     3  C    2.365222   1.401279   0.000000
     4  C    3.638693   2.386540   1.392545   0.000000
     5  C    4.797848   3.681807   2.432816   1.389279   0.000000
     6  N    6.047504   4.809513   3.715735   2.425606   1.413854
     7  C    7.301728   6.117381   4.948218   3.742920   2.542558
     8  C    8.477030   7.232537   6.136744   4.853669   3.751279
     9  C    9.700284   8.491355   7.345305   6.108598   4.927209
    10  C    9.911409   8.797138   7.575652   6.463020   5.201627
    11  C    8.944946   7.922361   6.666345   5.690958   4.424219
    12  C    7.599600   6.554142   5.303790   4.315412   3.059313
    13  C    4.992021   4.188962   2.789635   2.390332   1.394013
    14  C    4.166546   3.722920   2.411567   2.753630   2.406112
    15  C    2.789119   2.479363   1.397948   2.391541   2.784592
    16  H    1.090602   2.052879   2.645810   3.951984   4.968281
    17  H    1.090477   2.035391   3.285771   4.419904   5.682450
    18  H    1.090611   2.052787   2.645918   3.952073   4.971771
    19  H    3.959708   2.564992   2.124788   1.073428   2.134225
    20  H    6.184698   4.853505   3.977744   2.600790   2.071111
    21  H    8.526095   7.229366   6.249882   4.917166   4.000689
    22  H   10.603958   9.361580   8.257759   6.983176   5.852501
    23  H   10.944973   9.850404   8.619333   7.528824   6.260191
    24  H    9.347212   8.426526   7.159338   6.323681   5.087488
    25  H    6.907389   5.973055   4.712047   3.929078   2.774111
    26  H    6.043299   5.263316   3.864320   3.363997   2.135938
    27  H    4.807150   4.603215   3.385957   3.831431   3.380464
    28  H    2.471690   2.738685   2.145571   3.370463   3.859151
                    6          7          8          9         10
     6  N    0.000000
     7  C    1.412922   0.000000
     8  C    2.430578   1.394581   0.000000
     9  C    3.695177   2.408717   1.376654   0.000000
    10  C    4.195430   2.782733   2.390129   1.381348   0.000000
    11  C    3.708828   2.408557   2.760859   2.391202   1.381312
    12  C    2.451314   1.394230   2.395007   2.760755   2.390020
    13  C    2.453024   3.064738   4.329467   5.287210   5.291625
    14  C    3.708963   4.429004   5.705385   6.650770   6.575410
    15  C    4.198176   5.204960   6.475891   7.557632   7.600949
    16  H    6.269856   7.408444   8.672907   9.815565   9.877585
    17  H    6.844362   8.142247   9.267859  10.523576  10.793289
    18  H    6.267205   7.514106   8.660531   9.884413  10.116139
    19  H    2.639146   3.999535   4.923950   6.231589   6.739077
    20  H    1.017224   2.070879   2.604029   3.963425   4.718767
    21  H    2.635161   2.133923   1.076026   2.133161   3.367584
    22  H    4.559194   3.383819   2.130202   1.077771   2.134272
    23  H    5.273141   3.860455   3.366410   2.135607   1.077725
    24  H    4.578853   3.383617   3.838602   3.367817   2.134245
    25  H    2.671973   2.135000   3.368372   3.835518   3.365110
    26  H    2.675975   2.786103   3.948798   4.702443   4.576197
    27  H    4.578528   5.093342   6.339651   7.146082   6.924894
    28  H    5.272773   6.258614   7.537292   8.595567   8.584365
                   11         12         13         14         15
    11  C    0.000000
    12  C    1.376608   0.000000
    13  C    4.335271   3.092659   0.000000
    14  C    5.523063   4.335255   1.377206   0.000000
    15  C    6.570522   5.288135   2.392030   1.377721   0.000000
    16  H    8.805219   7.508427   4.988692   4.043121   2.731281
    17  H    9.861209   8.507131   6.009562   5.245558   3.870211
    18  H    9.173730   7.838033   4.986577   4.039841   2.731210
    19  H    6.108725   4.767594   3.366079   3.827032   3.360966
    20  H    4.454482   3.304940   3.304062   4.451163   4.719423
    21  H    3.836869   3.368239   4.775039   6.116255   6.745315
    22  H    3.367830   3.838523   6.267857   7.636695   8.523870
    23  H    2.135559   3.366302   6.273768   7.518847   8.591275
    24  H    1.077779   2.130193   4.795398   5.822410   6.916860
    25  H    2.130254   1.075412   2.576829   3.627876   4.564176
    26  H    3.636869   2.585696   1.075346   2.131995   3.366213
    27  H    5.824435   4.797085   2.128407   1.077834   2.129369
    28  H    7.505948   6.263593   3.360879   2.124220   1.074619
                   16         17         18         19         20
    16  H    0.000000
    17  H    1.774630   0.000000
    18  H    1.793169   1.774673   0.000000
    19  H    4.401996   4.522760   4.403462   0.000000
    20  H    6.544699   6.864012   6.436365   2.414004   0.000000
    21  H    8.850266   9.245000   8.686128   4.817987   2.405352
    22  H   10.775210  11.396874  10.771587   7.019290   4.661099
    23  H   10.874607  11.836335  11.147002   7.808604   5.778627
    24  H    9.088827  10.287991   9.587930   6.823413   5.392614
    25  H    6.701399   7.841334   7.177379   4.525842   3.623228
    26  H    6.001309   7.072702   5.985586   4.254544   3.624063
    27  H    4.559136   5.897192   4.551198   4.904831   5.388672
    28  H    2.237385   3.540637   2.236633   4.254431   5.777939
                   21         22         23         24         25
    21  H    0.000000
    22  H    2.458402   0.000000
    23  H    4.257940   2.458779   0.000000
    24  H    4.914609   4.257544   2.458727   0.000000
    25  H    4.254210   4.913208   4.254967   2.454680   0.000000
    26  H    4.539164   5.682126   5.494998   4.060814   2.226907
    27  H    6.833170   8.134827   7.786132   5.974005   4.053521
    28  H    7.811828   9.569284   9.550460   7.768871   5.476166
                   26         27         28
    26  H    0.000000
    27  H    2.453574   0.000000
    28  H    4.246764   2.442444   0.000000
 Stoichiometry    C13H13NO
 Framework group  C1[X(C13H13NO)]
 Deg. of freedom    78
 Full point group                 C1      NOp   1
 Largest Abelian subgroup         C1      NOp   1
 Largest concise Abelian subgroup C1      NOp   1
                         Standard orientation:                         
 ---------------------------------------------------------------------
 Center     Atomic      Atomic             Coordinates (Angstroms)
 Number     Number       Type             X           Y           Z
 ---------------------------------------------------------------------
      1          6           0        5.213640   -0.251842    0.375975
      2          8           0        4.008121   -0.974345    0.435171
      3          6           0        2.867776   -0.244410    0.074074
      4          6           0        1.644248   -0.908176    0.113773
      5          6           0        0.452471   -0.274768   -0.215708
      6          7           0       -0.762163   -0.997390   -0.177425
      7          6           0       -2.073206   -0.494017   -0.022097
      8          6           0       -3.163163   -1.242847   -0.464935
      9          6           0       -4.448384   -0.775417   -0.307166
     10          6           0       -4.673139    0.442759    0.304105
     11          6           0       -3.605876    1.189687    0.763530
     12          6           0       -2.319250    0.726247    0.605831
     13          6           0        0.500705    1.058545   -0.619718
     14          6           0        1.701151    1.731905   -0.666748
     15          6           0        2.873769    1.096393   -0.321486
     16          1           0        5.174095    0.594363    1.062841
     17          1           0        6.028353   -0.912044    0.675167
     18          1           0        5.392290    0.090170   -0.644096
     19          1           0        1.630698   -1.937049    0.419524
     20          1           0       -0.681360   -2.007068   -0.271057
     21          1           0       -2.983827   -2.190281   -0.942470
     22          1           0       -5.281039   -1.361330   -0.660694
     23          1           0       -5.679873    0.806997    0.427829
     24          1           0       -3.781323    2.134345    1.251841
     25          1           0       -1.490979    1.288243    0.999072
     26          1           0       -0.406519    1.546202   -0.928755
     27          1           0        1.723729    2.762455   -0.981682
     28          1           0        3.801476    1.637135   -0.363495
 ---------------------------------------------------------------------
 Rotational constants (GHZ):           2.1347271           0.2533083           0.2352253
 Standard basis: def2SVP (5D, 7F)
 There are   290 symmetry adapted cartesian basis functions of A   symmetry.
 There are   275 symmetry adapted basis functions of A   symmetry.
   275 basis functions,   466 primitive gaussians,   290 cartesian basis functions
    53 alpha electrons       53 beta electrons
       nuclear repulsion energy       892.6453210944 Hartrees.
 NAtoms=   28 NActive=   28 NUniq=   28 SFac= 1.00D+00 NAtFMM=   60 NAOKFM=F Big=F
 Integral buffers will be    131072 words long.
 Raffenetti 2 integral format.
 Two-electron integral symmetry is turned on.
 Nuclear repulsion after empirical dispersion term =      892.6289379132 Hartrees.
 One-electron integrals computed using PRISM.
   1 Symmetry operations used in ECPInt.
 ECPInt:  NShTT=    8385 NPrTT=   30369 LenC2=    7643 LenP2D=   20123.
 LDataN:  DoStor=T MaxTD1= 4 Len=   56
 NBasis=   275 RedAO= T EigKep=  2.20D-04  NBF=   275
 NBsUse=   275 1.00D-06 EigRej= -1.00D+00 NBFU=   275
 ExpMin= 1.22D-01 ExpMax= 2.27D+03 ExpMxC= 3.41D+02 IAcc=3 IRadAn=         5 AccDes= 0.00D+00
 Harris functional with IExCor= 4639 and IRadAn=       5 diagonalized for initial guess.
 HarFok:  IExCor= 4639 AccDes= 0.00D+00 IRadAn=         5 IDoV= 1 UseB2=F ITyADJ=14
 ICtDFT=  3500011 ScaDFX=  1.000000  1.000000  1.000000  1.000000
 FoFCou: FMM=F IPFlag=           0 FMFlag=      100000 FMFlg1=           0
         NFxFlg=           0 DoJE=T BraDBF=F KetDBF=T FulRan=T
         wScrn=  0.000000 ICntrl=       500 IOpCl=  0 I1Cent=   200000004 NGrid=           0
         NMat0=    1 NMatS0=      1 NMatT0=    0 NMatD0=    1 NMtDS0=    0 NMtDT0=    0
 Petite list used in FoFCou.
 Requested convergence on RMS density matrix=1.00D-08 within 128 cycles.
 Requested convergence on MAX density matrix=1.00D-06.
 Requested convergence on             energy=1.00D-06.
 No special actions if energy rises.
 Integral accuracy reduced to 1.0D-05 until final iterations.
 Initial convergence to 1.0D-05 achieved.  Increase integral accuracy.
 SCF Done:  E(RwB97XD) =  -632.508803885     A.U. after   15 cycles
            NFock= 15  Conv=0.46D-08     -V/T= 2.0103

 **********************************************************************

            Population analysis using the SCF Density.

 **********************************************************************

 Orbital symmetries:
       Occupied  (A) (A) (A) (A) (A) (A) (A) (A) (A) (A) (A) (A)
                 (A) (A) (A) (A) (A) (A) (A) (A) (A) (A) (A) (A)
                 (A) (A) (A) (A) (A) (A) (A) (A) (A) (A) (A) (A)
                 (A) (A) (A) (A) (A) (A) (A) (A) (A) (A) (A) (A)
                 (A) (A) (A) (A) (A)
       Virtual   (A) (A) (A) (A) (A) (A) (A) (A) (A) (A) (A) (A)
                 (A) (A) (A) (A) (A) (A) (A) (A) (A) (A) (A) (A)
                 (A) (A) (A) (A) (A) (A) (A) (A) (A) (A) (A) (A)
                 (A) (A) (A) (A) (A) (A) (A) (A) (A) (A) (A) (A)
                 (A) (A) (A) (A) (A) (A) (A) (A) (A) (A) (A) (A)
                 (A) (A) (A) (A) (A) (A) (A) (A) (A) (A) (A) (A)
                 (A) (A) (A) (A) (A) (A) (A) (A) (A) (A) (A) (A)
                 (A) (A) (A) (A) (A) (A) (A) (A) (A) (A) (A) (A)
                 (A) (A) (A) (A) (A) (A) (A) (A) (A) (A) (A) (A)
                 (A) (A) (A) (A) (A) (A) (A) (A) (A) (A) (A) (A)
                 (A) (A) (A) (A) (A) (A) (A) (A) (A) (A) (A) (A)
                 (A) (A) (A) (A) (A) (A) (A) (A) (A) (A) (A) (A)
                 (A) (A) (A) (A) (A) (A) (A) (A) (A) (A) (A) (A)
                 (A) (A) (A) (A) (A) (A) (A) (A) (A) (A) (A) (A)
                 (A) (A) (A) (A) (A) (A) (A) (A) (A) (A) (A) (A)
                 (A) (A) (A) (A) (A) (A) (A) (A) (A) (A) (A) (A)
                 (A) (A) (A) (A) (A) (A) (A) (A) (A) (A) (A) (A)
                 (A) (A) (A) (A) (A) (A) (A) (A) (A) (A) (A) (A)
                 (A) (A) (A) (A) (A) (A)
 The electronic state is 1-A.
 Alpha  occ. eigenvalues --  -19.28460 -14.46834 -10.36126 -10.34776 -10.34648
 Alpha  occ. eigenvalues --  -10.34410 -10.30109 -10.29770 -10.29669 -10.29487
 Alpha  occ. eigenvalues --  -10.29139 -10.29127 -10.29077 -10.28831 -10.28769
 Alpha  occ. eigenvalues --   -1.14803  -1.03812  -0.95707  -0.93609  -0.85424
 Alpha  occ. eigenvalues --   -0.84936  -0.84091  -0.81019  -0.78464  -0.71840
 Alpha  occ. eigenvalues --   -0.70782  -0.69380  -0.66845  -0.63257  -0.62118
 Alpha  occ. eigenvalues --   -0.59290  -0.57046  -0.56483  -0.56110  -0.55920
 Alpha  occ. eigenvalues --   -0.53318  -0.52311  -0.51245  -0.51012  -0.50424
 Alpha  occ. eigenvalues --   -0.48447  -0.46753  -0.45822  -0.45234  -0.43814
 Alpha  occ. eigenvalues --   -0.42698  -0.42128  -0.41178  -0.39144  -0.33671
 Alpha  occ. eigenvalues --   -0.33379  -0.30447  -0.26649
 Alpha virt. eigenvalues --    0.05546   0.06393   0.06958   0.09957   0.14240
 Alpha virt. eigenvalues --    0.14923   0.15302   0.16418   0.19039   0.19753
 Alpha virt. eigenvalues --    0.20104   0.20626   0.21566   0.21906   0.23034
 Alpha virt. eigenvalues --    0.23777   0.23964   0.24886   0.25464   0.26707
 Alpha virt. eigenvalues --    0.30160   0.32037   0.34207   0.36121   0.37074
 Alpha virt. eigenvalues --    0.37631   0.38467   0.39024   0.39591   0.41077
 Alpha virt. eigenvalues --    0.41703   0.43505   0.45610   0.48200   0.48797
 Alpha virt. eigenvalues --    0.49204   0.50082   0.50846   0.53037   0.53999
 Alpha virt. eigenvalues --    0.54538   0.54888   0.56412   0.56934   0.57572
 Alpha virt. eigenvalues --    0.57874   0.58656   0.58750   0.60645   0.61662
 Alpha virt. eigenvalues --    0.62489   0.63491   0.64231   0.65412   0.66135
 Alpha virt. eigenvalues --    0.67684   0.69137   0.70138   0.71513   0.71920
 Alpha virt. eigenvalues --    0.72651   0.73965   0.74081   0.74512   0.75474
 Alpha virt. eigenvalues --    0.75542   0.76308   0.77247   0.77875   0.78645
 Alpha virt. eigenvalues --    0.79100   0.79834   0.80200   0.81447   0.82006
 Alpha virt. eigenvalues --    0.83024   0.84059   0.84917   0.85369   0.86493
 Alpha virt. eigenvalues --    0.87684   0.89785   0.91522   0.92887   0.93327
 Alpha virt. eigenvalues --    0.94750   0.95374   1.00701   1.01870   1.03133
 Alpha virt. eigenvalues --    1.04476   1.09879   1.10787   1.12469   1.15648
 Alpha virt. eigenvalues --    1.18826   1.20557   1.21644   1.25820   1.27530
 Alpha virt. eigenvalues --    1.28385   1.29935   1.30148   1.32263   1.32880
 Alpha virt. eigenvalues --    1.33762   1.35811   1.36206   1.37016   1.37534
 Alpha virt. eigenvalues --    1.38959   1.39455   1.40790   1.42978   1.45852
 Alpha virt. eigenvalues --    1.52633   1.55143   1.57747   1.59771   1.60249
 Alpha virt. eigenvalues --    1.62241   1.69341   1.73288   1.74804   1.75580
 Alpha virt. eigenvalues --    1.77238   1.78071   1.79032   1.79534   1.81687
 Alpha virt. eigenvalues --    1.81904   1.82733   1.83428   1.84049   1.84990
 Alpha virt. eigenvalues --    1.86053   1.86391   1.87014   1.88511   1.88588
 Alpha virt. eigenvalues --    1.89472   1.89776   1.90421   1.91952   1.92830
 Alpha virt. eigenvalues --    1.94877   1.95939   1.98629   1.98682   1.99809
 Alpha virt. eigenvalues --    2.01117   2.04151   2.04630   2.06817   2.08400
 Alpha virt. eigenvalues --    2.08624   2.10461   2.12756   2.17308   2.18627
 Alpha virt. eigenvalues --    2.19440   2.20751   2.22340   2.23392   2.24098
 Alpha virt. eigenvalues --    2.24920   2.27701   2.27968   2.29486   2.30135
 Alpha virt. eigenvalues --    2.32773   2.33480   2.35418   2.37175   2.38912
 Alpha virt. eigenvalues --    2.39901   2.40341   2.41382   2.41970   2.43814
 Alpha virt. eigenvalues --    2.45785   2.48355   2.49038   2.51996   2.54531
 Alpha virt. eigenvalues --    2.59451   2.66557   2.68878   2.69796   2.70851
 Alpha virt. eigenvalues --    2.72842   2.74085   2.76793   2.78101   2.78655
 Alpha virt. eigenvalues --    2.80946   2.84014   2.84890   2.85894   2.86109
 Alpha virt. eigenvalues --    2.90096   2.92347   2.97012   2.97845   2.98022
 Alpha virt. eigenvalues --    2.99072   3.01014   3.05532   3.07991   3.12440
 Alpha virt. eigenvalues --    3.14496   3.16129   3.20205   3.23976   3.25475
 Alpha virt. eigenvalues --    3.30229   3.39916   3.46273   3.55222   3.60183
 Alpha virt. eigenvalues --    3.80529   3.82315
          Condensed to atoms (all electrons):
               1          2          3          4          5          6
     1  C    4.393756   0.300452  -0.058512   0.006610  -0.000272   0.000001
     2  O    0.300452   7.912907   0.390216  -0.071855   0.004152  -0.000006
     3  C   -0.058512   0.390216   4.987605   0.268988   0.157381   0.009225
     4  C    0.006610  -0.071855   0.268988   5.314554   0.230557  -0.093554
     5  C   -0.000272   0.004152   0.157381   0.230557   5.097604   0.363539
     6  N    0.000001  -0.000006   0.009225  -0.093554   0.363539   6.457067
     7  C   -0.000000   0.000000  -0.000367   0.008070  -0.037006   0.352376
     8  C   -0.000000  -0.000000  -0.000008  -0.000094   0.007473  -0.084275
     9  C   -0.000000   0.000000   0.000000  -0.000008  -0.000307   0.007643
    10  C   -0.000000   0.000000  -0.000000   0.000000   0.000048  -0.000313
    11  C    0.000000   0.000000   0.000001  -0.000002   0.000230   0.007317
    12  C    0.000000   0.000000   0.000084  -0.000205  -0.010087  -0.077871
    13  C    0.000104  -0.000246  -0.166236   0.081235   0.205032  -0.079913
    14  C    0.001020   0.004728   0.137463  -0.144268   0.140316   0.008353
    15  C    0.001182  -0.081123   0.170661   0.051126  -0.172732  -0.000836
    16  H    0.403787  -0.030596  -0.009331  -0.000326   0.000056   0.000000
    17  H    0.397480  -0.020704   0.005058  -0.000048   0.000005  -0.000000
    18  H    0.403598  -0.030657  -0.009240  -0.000212   0.000050   0.000000
    19  H   -0.000115   0.001127  -0.057913   0.442138  -0.084977  -0.010964
    20  H    0.000001  -0.000011   0.000531  -0.016858  -0.018878   0.361837
    21  H   -0.000000   0.000000  -0.000001  -0.000027  -0.000048  -0.010069
    22  H    0.000000  -0.000000   0.000000  -0.000000   0.000005  -0.000116
    23  H    0.000000   0.000000  -0.000000   0.000000   0.000000   0.000009
    24  H    0.000000  -0.000000  -0.000000   0.000000  -0.000018  -0.000113
    25  H    0.000000   0.000000   0.000067  -0.000924   0.004103  -0.011220
    26  H   -0.000000   0.000004  -0.002110   0.015625  -0.075582  -0.011172
    27  H   -0.000033  -0.000060   0.014307  -0.002399   0.015476  -0.000120
    28  H    0.008291  -0.008102  -0.090858   0.013851  -0.001826   0.000007
               7          8          9         10         11         12
     1  C   -0.000000  -0.000000  -0.000000  -0.000000   0.000000   0.000000
     2  O    0.000000  -0.000000   0.000000   0.000000   0.000000   0.000000
     3  C   -0.000367  -0.000008   0.000000  -0.000000   0.000001   0.000084
     4  C    0.008070  -0.000094  -0.000008   0.000000  -0.000002  -0.000205
     5  C   -0.037006   0.007473  -0.000307   0.000048   0.000230  -0.010087
     6  N    0.352376  -0.084275   0.007643  -0.000313   0.007317  -0.077871
     7  C    5.076080   0.274132   0.114260  -0.161179   0.116517   0.251417
     8  C    0.274132   5.175417   0.297000   0.080374  -0.145880   0.057180
     9  C    0.114260   0.297000   5.018422   0.288933   0.094549  -0.144975
    10  C   -0.161179   0.080374   0.288933   5.101269   0.287041   0.080071
    11  C    0.116517  -0.145880   0.094549   0.287041   5.024211   0.292784
    12  C    0.251417   0.057180  -0.144975   0.080071   0.292784   5.197700
    13  C   -0.010782  -0.000056   0.000067  -0.000042  -0.000307  -0.005255
    14  C    0.000117   0.000001   0.000000   0.000001  -0.000011  -0.000421
    15  C    0.000106   0.000001  -0.000000  -0.000000   0.000000  -0.000057
    16  H    0.000000  -0.000000  -0.000000   0.000000  -0.000000   0.000000
    17  H    0.000000  -0.000000   0.000000   0.000000  -0.000000  -0.000000
    18  H   -0.000000   0.000000   0.000000  -0.000000   0.000000   0.000000
    19  H    0.000082  -0.000022  -0.000001   0.000000   0.000000  -0.000007
    20  H   -0.019905  -0.016639   0.000439  -0.000040  -0.000146   0.008488
    21  H   -0.079612   0.450791  -0.061820   0.015217  -0.002543   0.017110
    22  H    0.015216  -0.067307   0.451247  -0.069591   0.014003  -0.001922
    23  H   -0.001645   0.014654  -0.070438   0.453010  -0.069708   0.014985
    24  H    0.015252  -0.001949   0.014213  -0.071662   0.453658  -0.068166
    25  H   -0.072971   0.015179  -0.002321   0.014632  -0.064138   0.459508
    26  H    0.003891  -0.000667   0.000039  -0.000129   0.001018   0.002403
    27  H   -0.000015   0.000000  -0.000000   0.000000  -0.000002   0.000036
    28  H    0.000001   0.000000  -0.000000   0.000000  -0.000000   0.000000
              13         14         15         16         17         18
     1  C    0.000104   0.001020   0.001182   0.403787   0.397480   0.403598
     2  O   -0.000246   0.004728  -0.081123  -0.030596  -0.020704  -0.030657
     3  C   -0.166236   0.137463   0.170661  -0.009331   0.005058  -0.009240
     4  C    0.081235  -0.144268   0.051126  -0.000326  -0.000048  -0.000212
     5  C    0.205032   0.140316  -0.172732   0.000056   0.000005   0.000050
     6  N   -0.079913   0.008353  -0.000836   0.000000  -0.000000   0.000000
     7  C   -0.010782   0.000117   0.000106   0.000000   0.000000  -0.000000
     8  C   -0.000056   0.000001   0.000001  -0.000000  -0.000000   0.000000
     9  C    0.000067   0.000000  -0.000000  -0.000000   0.000000   0.000000
    10  C   -0.000042   0.000001  -0.000000   0.000000   0.000000  -0.000000
    11  C   -0.000307  -0.000011   0.000000  -0.000000  -0.000000   0.000000
    12  C   -0.005255  -0.000421  -0.000057   0.000000  -0.000000   0.000000
    13  C    5.263920   0.258822   0.094806  -0.000112   0.000006  -0.000127
    14  C    0.258822   5.046293   0.219327   0.000745  -0.000036   0.000679
    15  C    0.094806   0.219327   5.398593   0.005944   0.000277   0.006039
    16  H   -0.000112   0.000745   0.005944   0.659314  -0.023550  -0.042898
    17  H    0.000006  -0.000036   0.000277  -0.023550   0.612829  -0.023569
    18  H   -0.000127   0.000679   0.006039  -0.042898  -0.023569   0.659794
    19  H    0.017877  -0.003609   0.021526   0.000084  -0.000099   0.000067
    20  H    0.008453  -0.000125  -0.000091  -0.000000   0.000000   0.000000
    21  H   -0.000006   0.000000   0.000000  -0.000000  -0.000000   0.000000
    22  H   -0.000000  -0.000000  -0.000000   0.000000  -0.000000  -0.000000
    23  H    0.000000  -0.000000   0.000000  -0.000000   0.000000   0.000000
    24  H    0.000035  -0.000002   0.000000  -0.000000   0.000000   0.000000
    25  H    0.003246   0.001223  -0.000199  -0.000000  -0.000000   0.000000
    26  H    0.462233  -0.065834   0.015820   0.000001  -0.000000  -0.000001
    27  H   -0.069772   0.455579  -0.069931   0.000031  -0.000001   0.000027
    28  H    0.016148  -0.061831   0.461702   0.000274  -0.000260   0.000114
              19         20         21         22         23         24
     1  C   -0.000115   0.000001  -0.000000   0.000000   0.000000   0.000000
     2  O    0.001127  -0.000011   0.000000  -0.000000   0.000000  -0.000000
     3  C   -0.057913   0.000531  -0.000001   0.000000  -0.000000  -0.000000
     4  C    0.442138  -0.016858  -0.000027  -0.000000   0.000000   0.000000
     5  C   -0.084977  -0.018878  -0.000048   0.000005   0.000000  -0.000018
     6  N   -0.010964   0.361837  -0.010069  -0.000116   0.000009  -0.000113
     7  C    0.000082  -0.019905  -0.079612   0.015216  -0.001645   0.015252
     8  C   -0.000022  -0.016639   0.450791  -0.067307   0.014654  -0.001949
     9  C   -0.000001   0.000439  -0.061820   0.451247  -0.070438   0.014213
    10  C    0.000000  -0.000040   0.015217  -0.069591   0.453010  -0.071662
    11  C    0.000000  -0.000146  -0.002543   0.014003  -0.069708   0.453658
    12  C   -0.000007   0.008488   0.017110  -0.001922   0.014985  -0.068166
    13  C    0.017877   0.008453  -0.000006  -0.000000   0.000000   0.000035
    14  C   -0.003609  -0.000125   0.000000  -0.000000  -0.000000  -0.000002
    15  C    0.021526  -0.000091   0.000000  -0.000000   0.000000   0.000000
    16  H    0.000084  -0.000000  -0.000000   0.000000  -0.000000  -0.000000
    17  H   -0.000099   0.000000  -0.000000  -0.000000   0.000000   0.000000
    18  H    0.000067   0.000000   0.000000  -0.000000   0.000000   0.000000
    19  H    0.685647   0.004818  -0.000014   0.000000   0.000000  -0.000000
    20  H    0.004818   0.545421   0.005423  -0.000016  -0.000001   0.000010
    21  H   -0.000014   0.005423   0.692172  -0.013251  -0.000240   0.000025
    22  H    0.000000  -0.000016  -0.013251   0.672670  -0.012433  -0.000267
    23  H    0.000000  -0.000001  -0.000240  -0.012433   0.677286  -0.012396
    24  H   -0.000000   0.000010   0.000025  -0.000267  -0.012396   0.672849
    25  H   -0.000021  -0.000193  -0.000200   0.000021  -0.000230  -0.012950
    26  H   -0.000180  -0.000190  -0.000014  -0.000001  -0.000001   0.000059
    27  H    0.000022   0.000010  -0.000000   0.000000   0.000000  -0.000000
    28  H   -0.000212  -0.000002   0.000000   0.000000  -0.000000   0.000000
              25         26         27         28
     1  C    0.000000  -0.000000  -0.000033   0.008291
     2  O    0.000000   0.000004  -0.000060  -0.008102
     3  C    0.000067  -0.002110   0.014307  -0.090858
     4  C   -0.000924   0.015625  -0.002399   0.013851
     5  C    0.004103  -0.075582   0.015476  -0.001826
     6  N   -0.011220  -0.011172  -0.000120   0.000007
     7  C   -0.072971   0.003891  -0.000015   0.000001
     8  C    0.015179  -0.000667   0.000000   0.000000
     9  C   -0.002321   0.000039  -0.000000  -0.000000
    10  C    0.014632  -0.000129   0.000000   0.000000
    11  C   -0.064138   0.001018  -0.000002  -0.000000
    12  C    0.459508   0.002403   0.000036   0.000000
    13  C    0.003246   0.462233  -0.069772   0.016148
    14  C    0.001223  -0.065834   0.455579  -0.061831
    15  C   -0.000199   0.015820  -0.069931   0.461702
    16  H   -0.000000   0.000001   0.000031   0.000274
    17  H   -0.000000  -0.000000  -0.000001  -0.000260
    18  H    0.000000  -0.000001   0.000027   0.000114
    19  H   -0.000021  -0.000180   0.000022  -0.000212
    20  H   -0.000193  -0.000190   0.000010  -0.000002
    21  H   -0.000200  -0.000014  -0.000000   0.000000
    22  H    0.000021  -0.000001   0.000000   0.000000
    23  H   -0.000230  -0.000001   0.000000  -0.000000
    24  H   -0.012950   0.000059  -0.000000   0.000000
    25  H    0.658022  -0.004059   0.000049  -0.000001
    26  H   -0.004059   0.662087  -0.012855  -0.000230
    27  H    0.000049  -0.012855   0.670531  -0.013796
    28  H   -0.000001  -0.000230  -0.013796   0.685420
 Mulliken charges:
               1
     1  C    0.142650
     2  O   -0.370227
     3  C    0.252991
     4  C   -0.101973
     5  C    0.175707
     6  N   -0.186834
     7  C    0.155965
     8  C   -0.055306
     9  C   -0.006942
    10  C   -0.017640
    11  C   -0.008592
    12  C   -0.072803
    13  C   -0.079128
    14  C    0.001469
    15  C   -0.122141
    16  H    0.036579
    17  H    0.052613
    18  H    0.036335
    19  H   -0.015253
    20  H    0.137663
    21  H   -0.012893
    22  H    0.011742
    23  H    0.007147
    24  H    0.011420
    25  H    0.013379
    26  H    0.009844
    27  H    0.012917
    28  H   -0.008690
 Sum of Mulliken charges =  -0.00000
 Mulliken charges with hydrogens summed into heavy atoms:
               1
     1  C    0.268178
     2  O   -0.370227
     3  C    0.252991
     4  C   -0.117226
     5  C    0.175707
     6  N   -0.049171
     7  C    0.155965
     8  C   -0.068199
     9  C    0.004800
    10  C   -0.010493
    11  C    0.002827
    12  C   -0.059425
    13  C   -0.069284
    14  C    0.014386
    15  C   -0.130831
 Electronic spatial extent (au):  <R**2>=           4523.0670
 Charge=             -0.0000 electrons
 Dipole moment (field-independent basis, Debye):
    X=              0.9144    Y=              0.1892    Z=             -0.2703  Tot=              0.9721
 Quadrupole moment (field-independent basis, Debye-Ang):
   XX=            -73.8744   YY=            -80.8395   ZZ=            -92.1117
   XY=              4.6142   XZ=              0.7359   YZ=              2.1300
 Traceless Quadrupole moment (field-independent basis, Debye-Ang):
   XX=              8.4008   YY=              1.4357   ZZ=             -9.8365
   XY=              4.6142   XZ=              0.7359   YZ=              2.1300
 Octapole moment (field-independent basis, Debye-Ang**2):
  XXX=             77.7391  YYY=             -9.1329  ZZZ=              3.7899  XYY=             -3.6192
  XXY=             13.0113  XXZ=              1.5174  XZZ=             10.1768  YZZ=             -0.4436
  YYZ=             -3.5687  XYZ=            -10.6615
 Hexadecapole moment (field-independent basis, Debye-Ang**3):
 XXXX=          -4529.6812 YYYY=           -582.5070 ZZZZ=           -225.0068 XXXY=             25.3839
 XXXZ=             54.8581 YYYX=              4.6375 YYYZ=              2.3305 ZZZX=             17.0093
 ZZZY=              2.6821 XXYY=           -967.6804 XXZZ=           -952.9604 YYZZ=           -137.7575
 XXYZ=             40.5038 YYXZ=             -2.5746 ZZXY=             -8.3715
 N-N= 8.926289379132D+02 E-N=-3.252600993640D+03  KE= 6.260564826706D+02
   1 Symmetry operations used in ECPInt.
 ECPInt:  NShTT=    8385 NPrTT=   30369 LenC2=    7643 LenP2D=   20123.
 LDataN:  DoStor=T MaxTD1= 5 Len=  102
 Calling FoFJK, ICntrl=      2127 FMM=F ISym2X=0 I1Cent= 0 IOpClX= 0 NMat=1 NMatS=1 NMatT=0.
 ***** Axes restored to original set *****
 -------------------------------------------------------------------
 Center     Atomic                   Forces (Hartrees/Bohr)
 Number     Number              X              Y              Z
 -------------------------------------------------------------------
      1        6           0.009289435    0.006654195   -0.002920383
      2        8           0.025206338   -0.025682852    0.002634116
      3        6          -0.014012583    0.014572209   -0.003330251
      4        6          -0.003818385    0.006708900   -0.000075136
      5        6           0.017209744    0.003852835   -0.003606127
      6        7          -0.001676460   -0.002254293    0.001528726
      7        6          -0.019582273    0.006070195   -0.003680730
      8        6          -0.008078863    0.001697979   -0.002490436
      9        6           0.001889213    0.000356713    0.001896898
     10        6           0.007234962   -0.003334955    0.002031278
     11        6           0.002457143   -0.000624026   -0.001286312
     12        6          -0.006242463    0.003133727    0.000350982
     13        6           0.006390065   -0.004252942   -0.001353446
     14        6           0.005756558    0.004072567   -0.000870938
     15        6          -0.016939489    0.011454546    0.000182359
     16        1          -0.004353720   -0.004465675    0.007197910
     17        1          -0.000461949    0.005342929   -0.001215867
     18        1          -0.005769784   -0.006975388   -0.002983825
     19        1           0.001045275    0.013968324   -0.002821958
     20        1          -0.000367579   -0.004894402    0.003830062
     21        1          -0.000428393    0.006368282   -0.010908947
     22        1           0.008038022    0.002451918   -0.006116806
     23        1           0.009256776   -0.003778437    0.002816224
     24        1           0.000023048   -0.005147496    0.009035825
     25        1          -0.007989150   -0.002406512    0.006872600
     26        1           0.007094515   -0.007944135    0.000483933
     27        1          -0.001867515   -0.009526679    0.002083090
     28        1          -0.009302488   -0.005417527    0.002717158
 -------------------------------------------------------------------
 Cartesian Forces:  Max     0.025682852 RMS     0.007571160

 GradGradGradGradGradGradGradGradGradGradGradGradGradGradGradGradGradGrad
 Berny optimization.
 FormGI is forming the generalized inverse of G from B-inverse, IUseBI=4.
 Internal  Forces:  Max     0.034731228 RMS     0.006579905
 Search for a local minimum.
 Step number   1 out of a maximum of  146
 All quantities printed in internal units (Hartrees-Bohrs-Radians)
 Mixed Optimization -- RFO/linear search
 Second derivative matrix not updated -- first step.
 ITU=  0
     Eigenvalues ---    0.01509   0.01515   0.01521   0.01603   0.01675
     Eigenvalues ---    0.01974   0.01985   0.02069   0.02171   0.02190
     Eigenvalues ---    0.02202   0.02213   0.02250   0.02269   0.02288
     Eigenvalues ---    0.02290   0.02336   0.02336   0.02341   0.02354
     Eigenvalues ---    0.02368   0.02372   0.02387   0.10347   0.10574
     Eigenvalues ---    0.15989   0.15989   0.15999   0.15999   0.16000
     Eigenvalues ---    0.16000   0.16000   0.16000   0.16000   0.16000
     Eigenvalues ---    0.16000   0.16000   0.16000   0.21999   0.22000
     Eigenvalues ---    0.22000   0.22000   0.23452   0.23464   0.23479
     Eigenvalues ---    0.24982   0.24984   0.25000   0.25000   0.34742
     Eigenvalues ---    0.34743   0.34758   0.36257   0.36264   0.36265
     Eigenvalues ---    0.36271   0.36479   0.36554   0.36563   0.36652
     Eigenvalues ---    0.36800   0.42647   0.43098   0.43400   0.43413
     Eigenvalues ---    0.43544   0.43792   0.44529   0.44784   0.45409
     Eigenvalues ---    0.46292   0.47034   0.47368   0.47937   0.48626
     Eigenvalues ---    0.49072   0.49232   0.49723
 RFO step:  Lambda=-1.59090736D-02 EMin= 1.50851720D-02
 Linear search not attempted -- first point.
 Iteration  1 RMS(Cart)=  0.09976413 RMS(Int)=  0.00334080
 Iteration  2 RMS(Cart)=  0.00789984 RMS(Int)=  0.00016118
 Iteration  3 RMS(Cart)=  0.00004515 RMS(Int)=  0.00015972
 Iteration  4 RMS(Cart)=  0.00000002 RMS(Int)=  0.00015972
 Variable       Old X    -DE/DX   Delta X   Delta X   Delta X     New X
                                 (Linear)    (Quad)   (Total)
    R1        2.65827   0.00101   0.00000   0.00220   0.00220   2.66047
    R2        2.06094   0.00840   0.00000   0.02312   0.02312   2.08406
    R3        2.06070   0.00444   0.00000   0.01221   0.01221   2.07291
    R4        2.06096   0.00841   0.00000   0.02316   0.02316   2.08411
    R5        2.64803  -0.03473   0.00000  -0.07390  -0.07390   2.57414
    R6        2.63153   0.00279   0.00000   0.00472   0.00475   2.63627
    R7        2.64174   0.00153   0.00000   0.00275   0.00280   2.64454
    R8        2.62536   0.00819   0.00000   0.01614   0.01612   2.64147
    R9        2.02848   0.01423   0.00000   0.03706   0.03706   2.06555
   R10        2.67180  -0.01582   0.00000  -0.03516  -0.03516   2.63664
   R11        2.63430   0.01157   0.00000   0.02450   0.02446   2.65876
   R12        2.67003  -0.01403   0.00000  -0.03109  -0.03109   2.63894
   R13        1.92228  -0.00622   0.00000  -0.01342  -0.01342   1.90886
   R14        2.63538   0.00872   0.00000   0.01766   0.01765   2.65303
   R15        2.63471   0.01058   0.00000   0.02163   0.02163   2.65634
   R16        2.60150   0.01551   0.00000   0.03010   0.03009   2.63159
   R17        2.03339   0.01261   0.00000   0.03313   0.03313   2.06653
   R18        2.61037   0.01298   0.00000   0.02604   0.02604   2.63641
   R19        2.03669   0.01037   0.00000   0.02738   0.02738   2.06407
   R20        2.61030   0.01353   0.00000   0.02726   0.02727   2.63757
   R21        2.03660   0.01038   0.00000   0.02743   0.02743   2.06403
   R22        2.60141   0.01619   0.00000   0.03167   0.03168   2.63309
   R23        2.03671   0.01036   0.00000   0.02736   0.02736   2.06407
   R24        2.03223   0.01073   0.00000   0.02814   0.02814   2.06037
   R25        2.60254   0.01246   0.00000   0.02533   0.02530   2.62784
   R26        2.03211   0.01055   0.00000   0.02764   0.02764   2.05975
   R27        2.60352   0.01676   0.00000   0.03333   0.03335   2.63687
   R28        2.03681   0.00992   0.00000   0.02621   0.02621   2.06302
   R29        2.03074   0.01092   0.00000   0.02856   0.02856   2.05930
    A1        1.91872   0.00655   0.00000   0.03865   0.03827   1.95699
    A2        1.89417  -0.00746   0.00000  -0.04524  -0.04498   1.84918
    A3        1.91857   0.00653   0.00000   0.03862   0.03825   1.95682
    A4        1.90080  -0.00080   0.00000  -0.00743  -0.00718   1.89362
    A5        1.93017  -0.00428   0.00000  -0.01893  -0.01978   1.91039
    A6        1.90085  -0.00076   0.00000  -0.00713  -0.00688   1.89398
    A7        2.00316   0.01744   0.00000   0.06557   0.06557   2.06873
    A8        2.04809  -0.01128   0.00000  -0.04146  -0.04150   2.00659
    A9        2.17613   0.00068   0.00000   0.00351   0.00347   2.17960
   A10        2.05896   0.01059   0.00000   0.03795   0.03800   2.09696
   A11        2.12897  -0.00370   0.00000  -0.01791  -0.01791   2.11106
   A12        2.06699   0.00070   0.00000   0.00240   0.00240   2.06939
   A13        2.08716   0.00301   0.00000   0.01554   0.01554   2.10270
   A14        2.09153  -0.00834   0.00000  -0.03190  -0.03187   2.05966
   A15        2.06590   0.00287   0.00000   0.01148   0.01138   2.07728
   A16        2.12518   0.00545   0.00000   0.02000   0.01999   2.14517
   A17        2.23704   0.00496   0.00000   0.02101   0.02101   2.25805
   A18        2.02258  -0.00259   0.00000  -0.01115  -0.01115   2.01143
   A19        2.02355  -0.00237   0.00000  -0.00987  -0.00987   2.01369
   A20        2.09325  -0.00739   0.00000  -0.02725  -0.02726   2.06599
   A21        2.12360   0.00567   0.00000   0.02188   0.02185   2.14545
   A22        2.06581   0.00171   0.00000   0.00496   0.00491   2.07072
   A23        2.10708  -0.00011   0.00000  -0.00156  -0.00159   2.10550
   A24        2.07539   0.00073   0.00000   0.00463   0.00464   2.08003
   A25        2.10066  -0.00062   0.00000  -0.00304  -0.00303   2.09764
   A26        2.09676   0.00159   0.00000   0.00724   0.00721   2.10397
   A27        2.09334  -0.00158   0.00000  -0.00808  -0.00809   2.08525
   A28        2.09309  -0.00001   0.00000   0.00085   0.00084   2.09393
   A29        2.09247  -0.00381   0.00000  -0.01444  -0.01443   2.07804
   A30        2.09536   0.00180   0.00000   0.00657   0.00657   2.10193
   A31        2.09533   0.00202   0.00000   0.00784   0.00784   2.10317
   A32        2.09670   0.00257   0.00000   0.01221   0.01221   2.10891
   A33        2.09309  -0.00043   0.00000  -0.00125  -0.00127   2.09182
   A34        2.09338  -0.00214   0.00000  -0.01101  -0.01102   2.08236
   A35        2.10735  -0.00194   0.00000  -0.00846  -0.00847   2.09888
   A36        2.07847   0.00227   0.00000   0.01171   0.01171   2.09019
   A37        2.09674  -0.00033   0.00000  -0.00310  -0.00311   2.09363
   A38        2.10331  -0.00524   0.00000  -0.01796  -0.01804   2.08527
   A39        2.08041   0.00422   0.00000   0.01810   0.01814   2.09855
   A40        2.09883   0.00102   0.00000  -0.00009  -0.00006   2.09877
   A41        2.10342   0.00393   0.00000   0.02104   0.02101   2.12443
   A42        2.08946  -0.00167   0.00000  -0.00884  -0.00884   2.08062
   A43        2.09029  -0.00227   0.00000  -0.01225  -0.01225   2.07803
   A44        2.10561  -0.00845   0.00000  -0.03460  -0.03454   2.07108
   A45        2.09138   0.00624   0.00000   0.02875   0.02871   2.12009
   A46        2.08617   0.00221   0.00000   0.00583   0.00580   2.09197
    D1        1.06408   0.00163   0.00000   0.01396   0.01481   1.07889
    D2        3.14134   0.00000   0.00000   0.00035   0.00035  -3.14149
    D3       -1.06461  -0.00158   0.00000  -0.01290  -0.01375  -1.07835
    D4       -3.14149   0.00023   0.00000   0.00604   0.00598  -3.13551
    D5        0.00054  -0.00013   0.00000  -0.00306  -0.00300  -0.00246
    D6        3.13377   0.00022   0.00000   0.00498   0.00505   3.13882
    D7        0.00379   0.00011   0.00000   0.00194   0.00209   0.00589
    D8       -0.00823   0.00056   0.00000   0.01345   0.01356   0.00533
    D9       -3.13820   0.00044   0.00000   0.01041   0.01060  -3.12760
   D10        3.13520   0.00001   0.00000  -0.00047  -0.00032   3.13488
   D11        0.00042   0.00011   0.00000   0.00277   0.00288   0.00330
   D12       -0.00596  -0.00035   0.00000  -0.00960  -0.00971  -0.01567
   D13       -3.14074  -0.00025   0.00000  -0.00636  -0.00651   3.13593
   D14        3.12646  -0.00058   0.00000  -0.01844  -0.01814   3.10832
   D15        0.02060  -0.00023   0.00000  -0.00591  -0.00573   0.01487
   D16       -0.02688  -0.00049   0.00000  -0.01545  -0.01522  -0.04209
   D17       -3.13274  -0.00013   0.00000  -0.00292  -0.00281  -3.13555
   D18        2.72950  -0.00094   0.00000  -0.03066  -0.03068   2.69882
   D19       -0.40897  -0.00088   0.00000  -0.02875  -0.02877  -0.43774
   D20       -0.44907  -0.00137   0.00000  -0.04386  -0.04384  -0.49291
   D21        2.69565  -0.00132   0.00000  -0.04195  -0.04193   2.65372
   D22       -0.01909  -0.00021   0.00000  -0.00541  -0.00532  -0.02441
   D23        3.08432  -0.00024   0.00000  -0.00407  -0.00412   3.08020
   D24       -3.12423   0.00045   0.00000   0.00850   0.00885  -3.11538
   D25       -0.02082   0.00043   0.00000   0.00984   0.01005  -0.01077
   D26        2.74682  -0.00097   0.00000  -0.03165  -0.03166   2.71516
   D27       -0.43039  -0.00143   0.00000  -0.04536  -0.04535  -0.47574
   D28       -0.39789  -0.00103   0.00000  -0.03357  -0.03358  -0.43147
   D29        2.70808  -0.00149   0.00000  -0.04728  -0.04727   2.66081
   D30        3.12777  -0.00051   0.00000  -0.01637  -0.01614   3.11162
   D31       -0.02455  -0.00038   0.00000  -0.01262  -0.01243  -0.03698
   D32        0.02063  -0.00015   0.00000  -0.00348  -0.00343   0.01719
   D33       -3.13169  -0.00002   0.00000   0.00026   0.00028  -3.13141
   D34       -3.12558   0.00033   0.00000   0.00620   0.00643  -3.11916
   D35       -0.02185   0.00045   0.00000   0.01063   0.01081  -0.01103
   D36       -0.01907  -0.00031   0.00000  -0.00795  -0.00793  -0.02700
   D37        3.08466  -0.00019   0.00000  -0.00352  -0.00354   3.08112
   D38       -0.00857   0.00057   0.00000   0.01339   0.01346   0.00489
   D39        3.13371   0.00016   0.00000   0.00380   0.00383   3.13755
   D40       -3.13929   0.00042   0.00000   0.00954   0.00966  -3.12962
   D41        0.00300   0.00002   0.00000  -0.00005   0.00004   0.00303
   D42       -0.00552  -0.00046   0.00000  -0.01167  -0.01168  -0.01720
   D43       -3.14053  -0.00034   0.00000  -0.00831  -0.00834   3.13432
   D44        3.13538  -0.00006   0.00000  -0.00208  -0.00201   3.13337
   D45        0.00038   0.00006   0.00000   0.00128   0.00133   0.00170
   D46        0.00707  -0.00001   0.00000   0.00024   0.00020   0.00727
   D47       -3.12794   0.00032   0.00000   0.00834   0.00836  -3.11958
   D48       -3.14111  -0.00013   0.00000  -0.00312  -0.00315   3.13893
   D49        0.00706   0.00020   0.00000   0.00498   0.00502   0.01208
   D50        0.00546   0.00038   0.00000   0.00955   0.00956   0.01502
   D51       -3.09788   0.00019   0.00000   0.00476   0.00485  -3.09304
   D52        3.14047   0.00005   0.00000   0.00149   0.00148  -3.14124
   D53        0.03713  -0.00013   0.00000  -0.00331  -0.00324   0.03389
   D54        0.00553   0.00033   0.00000   0.00877   0.00875   0.01428
   D55        3.14088  -0.00005   0.00000  -0.00055  -0.00065   3.14023
   D56       -3.09747   0.00029   0.00000   0.00703   0.00715  -3.09033
   D57        0.03788  -0.00009   0.00000  -0.00229  -0.00225   0.03563
   D58        0.00730  -0.00009   0.00000  -0.00128  -0.00142   0.00588
   D59       -3.14109  -0.00018   0.00000  -0.00442  -0.00447   3.13763
   D60       -3.12806   0.00029   0.00000   0.00803   0.00796  -3.12010
   D61        0.00674   0.00020   0.00000   0.00490   0.00491   0.01165
         Item               Value     Threshold  Converged?
 Maximum Force            0.034731     0.000450     NO 
 RMS     Force            0.006580     0.000300     NO 
 Maximum Displacement     0.389785     0.001800     NO 
 RMS     Displacement     0.105501     0.001200     NO 
 Predicted change in Energy=-8.436501D-03
 GradGradGradGradGradGradGradGradGradGradGradGradGradGradGradGradGradGrad

                          Input orientation:                          
 ---------------------------------------------------------------------
 Center     Atomic      Atomic             Coordinates (Angstroms)
 Number     Number       Type             X           Y           Z
 ---------------------------------------------------------------------
      1          6           0       -5.113372    1.193633    0.073447
      2          8           0       -3.770697    1.538530   -0.172184
      3          6           0       -2.823768    0.562317   -0.095679
      4          6           0       -1.518543    0.987135   -0.344879
      5          6           0       -0.448482    0.089107   -0.296099
      6          7           0        0.826031    0.571614   -0.595300
      7          6           0        2.072960    0.091507   -0.189363
      8          6           0        3.191222    0.380556   -0.987446
      9          6           0        4.462194   -0.044327   -0.608792
     10          6           0        4.645759   -0.770295    0.568346
     11          6           0        3.539780   -1.047673    1.373310
     12          6           0        2.265630   -0.616889    1.009376
     13          6           0       -0.705486   -1.263858   -0.008079
     14          6           0       -2.009284   -1.672839    0.249982
     15          6           0       -3.079395   -0.778022    0.215041
     16          1           0       -5.263863    0.813230    1.097604
     17          1           0       -5.688584    2.120555   -0.041519
     18          1           0       -5.491643    0.454381   -0.652312
     19          1           0       -1.346729    2.042408   -0.572068
     20          1           0        0.849008    1.388993   -1.188357
     21          1           0        3.052596    0.939586   -1.917036
     22          1           0        5.318475    0.187756   -1.245936
     23          1           0        5.642530   -1.108438    0.860051
     24          1           0        3.671757   -1.597182    2.308004
     25          1           0        1.418813   -0.801842    1.670778
     26          1           0        0.105841   -1.991603   -0.021336
     27          1           0       -2.203932   -2.723915    0.471706
     28          1           0       -4.089671   -1.132168    0.418618
 ---------------------------------------------------------------------
                    Distance matrix (angstroms):
                    1          2          3          4          5
     1  C    0.000000
     2  O    1.407858   0.000000
     3  C    2.381061   1.362175   0.000000
     4  C    3.624973   2.325093   1.395057   0.000000
     5  C    4.808091   3.626747   2.430243   1.397807   0.000000
     6  N    6.009212   4.716339   3.683848   2.394242   1.395247
     7  C    7.275103   6.020175   4.920202   3.704758   2.523701
     8  C    8.411472   7.104496   6.083452   4.791942   3.716227
     9  C    9.679332   8.395032   7.329157   6.074766   4.922430
    10  C    9.967074   8.758755   7.616470   6.474655   5.238046
    11  C    9.032726   7.906964   6.726421   5.716577   4.470507
    12  C    7.655300   6.517603   5.339816   4.327454   3.093395
    13  C    5.047312   4.156420   2.798161   2.416912   1.406955
    14  C    4.228852   3.686962   2.403911   2.769503   2.416354
    15  C    2.836289   2.448317   1.399428   2.421889   2.816892
    16  H    1.102837   2.089968   2.727810   4.017265   5.065043
    17  H    1.096937   2.008511   3.261627   4.331964   5.625857
    18  H    1.102865   2.089871   2.727462   4.020432   5.068905
    19  H    3.914679   2.507872   2.144589   1.093040   2.167577
    20  H    6.097564   4.732509   3.920028   2.545239   2.041888
    21  H    8.408899   7.068279   6.163710   4.834175   3.950733
    22  H   10.562954   9.251518   8.231617   6.942315   5.845487
    23  H   11.027588   9.832640   8.682341   7.558059   6.314366
    24  H    9.484745   8.448322   7.254859   6.376182   5.157644
    25  H    7.014473   5.983717   4.793829   3.986398   2.854678
    26  H    6.115136   5.245201   3.887240   3.408252   2.170742
    27  H    4.895982   4.586697   3.391968   3.861148   3.403561
    28  H    2.564461   2.753801   2.176762   3.418343   3.906481
                    6          7          8          9         10
     6  N    0.000000
     7  C    1.396467   0.000000
     8  C    2.405080   1.403921   0.000000
     9  C    3.687988   2.429570   1.392579   0.000000
    10  C    4.212495   2.817112   2.420873   1.395127   0.000000
    11  C    3.723165   2.427188   2.781097   2.405469   1.395742
    12  C    2.461701   1.405675   2.416385   2.787686   2.425502
    13  C    2.461571   3.096715   4.341381   5.343504   5.404785
    14  C    3.713635   4.468855   5.726510   6.728267   6.723507
    15  C    4.210762   5.240838   6.489138   7.621849   7.733233
    16  H    6.325433   7.483725   8.719122   9.911780  10.049292
    17  H    6.719084   8.023744   9.097984  10.394557  10.748376
    18  H    6.319019   7.587439   8.689644   9.966418  10.283811
    19  H    2.623863   3.955597   4.850493   6.172471   6.717273
    20  H    1.010125   2.044387   2.557983   3.930066   4.707850
    21  H    2.615336   2.159578   1.093558   2.160221   3.411596
    22  H    4.555517   3.414525   2.151557   1.092260   2.159173
    23  H    5.304648   3.909344   3.411636   2.164030   1.092239
    24  H    4.607712   3.412428   3.873287   3.397624   2.158433
    25  H    2.715305   2.164741   3.406706   3.877168   3.410210
    26  H    2.723635   2.870042   4.009998   4.807786   4.738162
    27  H    4.602140   5.162889   6.393320   7.265322   7.123499
    28  H    5.300474   6.312293   7.568140   8.681783   8.744204
                   11         12         13         14         15
    11  C    0.000000
    12  C    1.393371   0.000000
    13  C    4.469593   3.206449   0.000000
    14  C    5.696035   4.468400   1.390593   0.000000
    15  C    6.725160   5.406128   2.433364   1.395369   0.000000
    16  H    9.002395   7.664612   5.129876   4.182258   2.843044
    17  H    9.859114   8.477470   6.023839   5.292642   3.908381
    18  H    9.376883   8.005255   5.125884   4.179237   2.844303
    19  H    6.100088   4.756255   3.414773   3.862358   3.402426
    20  H    4.442942   3.295513   3.293498   4.428710   4.700833
    21  H    3.874652   3.406731   4.756308   6.094536   6.715448
    22  H    3.398602   3.879917   6.318828   7.706857   8.578543
    23  H    2.165337   3.415754   6.408988   7.696818   8.751982
    24  H    1.092259   2.150489   4.963427   6.042798   7.115446
    25  H    2.155788   1.090301   2.746756   3.811712   4.727961
    26  H    3.824655   2.759872   1.089972   2.156149   3.416779
    27  H    6.050860   4.970476   2.146462   1.091701   2.149143
    28  H    7.689415   6.403464   3.413520   2.156101   1.089734
                   16         17         18         19         20
    16  H    0.000000
    17  H    1.785242   0.000000
    18  H    1.800795   1.785494   0.000000
    19  H    4.432000   4.374848   4.439436   0.000000
    20  H    6.551665   6.677614   6.431540   2.372345   0.000000
    21  H    8.846892   9.017787   8.650952   4.730667   2.364051
    22  H   10.856762  11.240182  10.829688   6.951171   4.628436
    23  H   11.076943  11.816657  11.344579   7.799265   5.780224
    24  H    9.333835  10.342041   9.845826   6.835689   5.395340
    25  H    6.898924   7.873212   7.397923   4.557230   3.646791
    26  H    6.160587   7.105322   6.141074   4.322790   3.652761
    27  H    4.718721   5.989582   4.708931   4.953999   5.384447
    28  H    2.371566   3.653554   2.372669   4.310815   5.773142
                   21         22         23         24         25
    21  H    0.000000
    22  H    2.479886   0.000000
    23  H    4.314438   2.494056   0.000000
    24  H    4.966842   4.304437   2.493870   0.000000
    25  H    4.309782   4.969295   4.311736   2.472727   0.000000
    26  H    4.568251   5.781074   5.675540   4.277517   2.450036
    27  H    6.838013   8.247105   8.020446   6.258214   4.272754
    28  H    7.794833   9.645007   9.742236   8.001611   5.658659
                   26         27         28
    26  H    0.000000
    27  H    2.472735   0.000000
    28  H    4.305172   2.468297   0.000000
 Stoichiometry    C13H13NO
 Framework group  C1[X(C13H13NO)]
 Deg. of freedom    78
 Full point group                 C1      NOp   1
 Largest Abelian subgroup         C1      NOp   1
 Largest concise Abelian subgroup C1      NOp   1
                         Standard orientation:                         
 ---------------------------------------------------------------------
 Center     Atomic      Atomic             Coordinates (Angstroms)
 Number     Number       Type             X           Y           Z
 ---------------------------------------------------------------------
      1          6           0        5.209383   -0.405142    0.425219
      2          8           0        3.926840   -0.985679    0.436273
      3          6           0        2.862496   -0.219019    0.068950
      4          6           0        1.627288   -0.865859    0.114150
      5          6           0        0.451334   -0.195225   -0.234054
      6          7           0       -0.745025   -0.912608   -0.205754
      7          6           0       -2.051233   -0.450496   -0.031413
      8          6           0       -3.106285   -1.225039   -0.539293
      9          6           0       -4.428752   -0.826889   -0.360872
     10          6           0       -4.728296    0.352671    0.321251
     11          6           0       -3.684097    1.118993    0.841340
     12          6           0       -2.358051    0.723305    0.678498
     13          6           0        0.528651    1.146075   -0.651738
     14          6           0        1.764257    1.783372   -0.681441
     15          6           0        2.939552    1.122269   -0.322723
     16          1           0        5.288204    0.441486    1.127543
     17          1           0        5.899685   -1.192948    0.750973
     18          1           0        5.506701   -0.074216   -0.583940
     19          1           0        1.595443   -1.909806    0.436481
     20          1           0       -0.651434   -1.911317   -0.324812
     21          1           0       -2.877824   -2.144972   -1.084635
     22          1           0       -5.234705   -1.441968   -0.767257
     23          1           0       -5.765962    0.666617    0.454196
     24          1           0       -3.904870    2.033989    1.395481
     25          1           0       -1.556045    1.308324    1.129382
     26          1           0       -0.367804    1.670557   -0.982383
     27          1           0        1.819396    2.823789   -1.007482
     28          1           0        3.892194    1.650049   -0.360696
 ---------------------------------------------------------------------
 Rotational constants (GHZ):           2.0704545           0.2516774           0.2345500
 Standard basis: def2SVP (5D, 7F)
 There are   290 symmetry adapted cartesian basis functions of A   symmetry.
 There are   275 symmetry adapted basis functions of A   symmetry.
   275 basis functions,   466 primitive gaussians,   290 cartesian basis functions
    53 alpha electrons       53 beta electrons
       nuclear repulsion energy       888.7866017043 Hartrees.
 NAtoms=   28 NActive=   28 NUniq=   28 SFac= 1.00D+00 NAtFMM=   60 NAOKFM=F Big=F
 Integral buffers will be    131072 words long.
 Raffenetti 2 integral format.
 Two-electron integral symmetry is turned on.
 Nuclear repulsion after empirical dispersion term =      888.7702435015 Hartrees.
 One-electron integrals computed using PRISM.
   1 Symmetry operations used in ECPInt.
 ECPInt:  NShTT=    8385 NPrTT=   30369 LenC2=    7626 LenP2D=   20033.
 LDataN:  DoStor=T MaxTD1= 4 Len=   56
 NBasis=   275 RedAO= T EigKep=  2.49D-04  NBF=   275
 NBsUse=   275 1.00D-06 EigRej= -1.00D+00 NBFU=   275
 Initial guess from the checkpoint file:  "prod_3g_4.chk"
 B after Tr=     0.000000   -0.000000   -0.000000
         Rot=    0.999867   -0.016140    0.002083    0.000403 Ang=  -1.87 deg.
 ExpMin= 1.22D-01 ExpMax= 2.27D+03 ExpMxC= 3.41D+02 IAcc=3 IRadAn=         5 AccDes= 0.00D+00
 Harris functional with IExCor= 4639 and IRadAn=       5 diagonalized for initial guess.
 HarFok:  IExCor= 4639 AccDes= 0.00D+00 IRadAn=         5 IDoV= 1 UseB2=F ITyADJ=14
 ICtDFT=  3500011 ScaDFX=  1.000000  1.000000  1.000000  1.000000
 FoFCou: FMM=F IPFlag=           0 FMFlag=      100000 FMFlg1=           0
         NFxFlg=           0 DoJE=T BraDBF=F KetDBF=T FulRan=T
         wScrn=  0.000000 ICntrl=       500 IOpCl=  0 I1Cent=   200000004 NGrid=           0
         NMat0=    1 NMatS0=      1 NMatT0=    0 NMatD0=    1 NMtDS0=    0 NMtDT0=    0
 Petite list used in FoFCou.
 Requested convergence on RMS density matrix=1.00D-08 within 128 cycles.
 Requested convergence on MAX density matrix=1.00D-06.
 Requested convergence on             energy=1.00D-06.
 No special actions if energy rises.
 Integral accuracy reduced to 1.0D-05 until final iterations.
 Initial convergence to 1.0D-05 achieved.  Increase integral accuracy.
 SCF Done:  E(RwB97XD) =  -632.516577482     A.U. after   13 cycles
            NFock= 13  Conv=0.10D-07     -V/T= 2.0110
   1 Symmetry operations used in ECPInt.
 ECPInt:  NShTT=    8385 NPrTT=   30369 LenC2=    7626 LenP2D=   20033.
 LDataN:  DoStor=T MaxTD1= 5 Len=  102
 Calling FoFJK, ICntrl=      2127 FMM=F ISym2X=0 I1Cent= 0 IOpClX= 0 NMat=1 NMatS=1 NMatT=0.
 ***** Axes restored to original set *****
 -------------------------------------------------------------------
 Center     Atomic                   Forces (Hartrees/Bohr)
 Number     Number              X              Y              Z
 -------------------------------------------------------------------
      1        6           0.003415672    0.004636828   -0.001372184
      2        8           0.000321955   -0.010228846    0.001928396
      3        6          -0.005601113    0.006751294   -0.001261635
      4        6           0.002503630    0.000564005    0.000020150
      5        6           0.001494323    0.000997710   -0.000607623
      6        7           0.000625586   -0.002116340    0.001095760
      7        6          -0.002283365    0.000561418   -0.000103737
      8        6           0.001934958   -0.001147702    0.000274353
[...]
     9  C   -0.000000   0.000000  -0.000032  -0.000356   0.001288   0.010195
    10  C    0.000000  -0.000000   0.000008   0.000069  -0.000466   0.001510
    11  C   -0.000000   0.000000  -0.000013  -0.000318  -0.000014   0.001863
    12  C   -0.000000   0.000003   0.001417   0.008841  -0.002754  -0.036492
    13  C    0.002077  -0.001305  -0.118895   0.004815   0.359681  -0.039422
    14  C   -0.006402   0.009502   0.100990  -0.088044   0.011824   0.002911
    15  C    0.016386  -0.093470   0.217765   0.052063  -0.116589   0.000204
    16  H    0.413584  -0.042069  -0.015768   0.001432  -0.000442  -0.000000
    17  H    0.400755  -0.030531   0.006389  -0.000580   0.000117  -0.000000
    18  H    0.414104  -0.041593  -0.014659   0.000333   0.000009  -0.000000
    19  H    0.000090   0.008689  -0.037821   0.438166  -0.082997   0.000738
    20  H    0.000004  -0.000025   0.002220  -0.002495  -0.056584   0.400084
    21  H    0.000000   0.000000   0.000004  -0.000418   0.000872   0.004608
    22  H    0.000000  -0.000000   0.000000   0.000003   0.000010  -0.000279
    23  H   -0.000000   0.000000   0.000000   0.000000  -0.000002   0.000001
    24  H    0.000000   0.000000  -0.000001   0.000002   0.000024  -0.000210
    25  H   -0.000000   0.000000   0.000271  -0.000470   0.002639   0.001503
    26  H    0.000001   0.000010  -0.002032   0.004411  -0.047878   0.001244
    27  H   -0.000150  -0.000079   0.006692  -0.000461   0.011077  -0.000226
    28  H    0.009705  -0.005911  -0.063148   0.006663  -0.001719  -0.000012
               7          8          9         10         11         12
     1  C   -0.000001   0.000000  -0.000000   0.000000  -0.000000  -0.000000
     2  O    0.000006  -0.000000   0.000000  -0.000000   0.000000   0.000003
     3  C    0.000475  -0.000380  -0.000032   0.000008  -0.000013   0.001417
     4  C    0.015838  -0.008578  -0.000356   0.000069  -0.000318   0.008841
     5  C   -0.090977   0.010465   0.001288  -0.000466  -0.000014  -0.002754
     6  N    0.252561  -0.025147   0.010195   0.001510   0.001863  -0.036492
     7  C    4.933820   0.392498  -0.036413  -0.071381  -0.019749   0.395387
     8  C    0.392498   5.138990   0.453934   0.008555  -0.066898   0.009460
     9  C   -0.036413   0.453934   4.891472   0.462219   0.002113  -0.079398
    10  C   -0.071381   0.008555   0.462219   4.946887   0.459429   0.019138
    11  C   -0.019749  -0.066898   0.002113   0.459429   4.889687   0.440115
    12  C    0.395387   0.009460  -0.079398   0.019138   0.440115   5.210790
    13  C   -0.007173   0.010175   0.001056  -0.000492   0.004100  -0.015579
    14  C   -0.000122  -0.000149  -0.000035   0.000015   0.000197   0.003420
    15  C   -0.000059   0.000089   0.000010  -0.000003  -0.000000  -0.000716
    16  H    0.000001   0.000000  -0.000000   0.000000  -0.000000  -0.000001
    17  H   -0.000000   0.000000   0.000000  -0.000000   0.000000  -0.000000
    18  H   -0.000001   0.000000   0.000000  -0.000000   0.000000   0.000000
    19  H    0.000861  -0.000277   0.000006  -0.000001   0.000005   0.000132
    20  H   -0.062237   0.000311   0.001005   0.000117  -0.000379   0.008505
    21  H   -0.079539   0.438520  -0.025692   0.008049  -0.001715   0.004903
    22  H    0.014943  -0.056293   0.438902  -0.057182   0.010454  -0.003164
    23  H   -0.004089   0.012510  -0.057245   0.444831  -0.059082   0.012972
    24  H    0.013493  -0.002786   0.010015  -0.055558   0.439761  -0.057193
    25  H   -0.043271   0.003290  -0.001169   0.005486  -0.028986   0.427674
    26  H    0.002624  -0.000190   0.000237  -0.000137   0.000417  -0.007503
    27  H    0.000021   0.000002  -0.000001   0.000001  -0.000007   0.000068
    28  H    0.000001   0.000000   0.000000  -0.000000  -0.000000  -0.000006
              13         14         15         16         17         18
     1  C    0.002077  -0.006402   0.016386   0.413584   0.400755   0.414104
     2  O   -0.001305   0.009502  -0.093470  -0.042069  -0.030531  -0.041593
     3  C   -0.118895   0.100990   0.217765  -0.015768   0.006389  -0.014659
     4  C    0.004815  -0.088044   0.052063   0.001432  -0.000580   0.000333
     5  C    0.359681   0.011824  -0.116589  -0.000442   0.000117   0.000009
     6  N   -0.039422   0.002911   0.000204  -0.000000  -0.000000  -0.000000
     7  C   -0.007173  -0.000122  -0.000059   0.000001  -0.000000  -0.000001
     8  C    0.010175  -0.000149   0.000089   0.000000   0.000000   0.000000
     9  C    0.001056  -0.000035   0.000010  -0.000000   0.000000   0.000000
    10  C   -0.000492   0.000015  -0.000003   0.000000  -0.000000  -0.000000
    11  C    0.004100   0.000197  -0.000000  -0.000000   0.000000   0.000000
    12  C   -0.015579   0.003420  -0.000716  -0.000001  -0.000000   0.000000
    13  C    5.263419   0.418739   0.081540   0.000233  -0.000066   0.000082
    14  C    0.418739   4.963900   0.305132  -0.001206   0.000352  -0.000942
    15  C    0.081540   0.305132   5.424715   0.011553  -0.001979   0.010481
    16  H    0.000233  -0.001206   0.011553   0.585495  -0.020023  -0.055637
    17  H   -0.000066   0.000352  -0.001979  -0.020023   0.526535  -0.020097
    18  H    0.000082  -0.000942   0.010481  -0.055637  -0.020097   0.585854
    19  H    0.009428  -0.005993   0.019265   0.000160  -0.000231   0.000094
    20  H    0.008899  -0.000322  -0.000034  -0.000001   0.000000   0.000000
    21  H    0.000254   0.000007   0.000000  -0.000000   0.000000   0.000000
    22  H   -0.000009   0.000000  -0.000000   0.000000  -0.000000  -0.000000
    23  H   -0.000003  -0.000000  -0.000000   0.000000  -0.000000  -0.000000
    24  H    0.000080  -0.000008   0.000001  -0.000000   0.000000   0.000000
    25  H   -0.006533   0.000877  -0.000285  -0.000000   0.000000   0.000000
    26  H    0.431614  -0.031118   0.008284   0.000003  -0.000000  -0.000002
    27  H   -0.049634   0.427051  -0.046345  -0.000022   0.000002  -0.000021
    28  H    0.008270  -0.027428   0.433169   0.000774  -0.000263   0.000106
              19         20         21         22         23         24
     1  C    0.000090   0.000004   0.000000   0.000000  -0.000000   0.000000
     2  O    0.008689  -0.000025   0.000000  -0.000000   0.000000   0.000000
     3  C   -0.037821   0.002220   0.000004   0.000000   0.000000  -0.000001
     4  C    0.438166  -0.002495  -0.000418   0.000003   0.000000   0.000002
     5  C   -0.082997  -0.056584   0.000872   0.000010  -0.000002   0.000024
     6  N    0.000738   0.400084   0.004608  -0.000279   0.000001  -0.000210
     7  C    0.000861  -0.062237  -0.079539   0.014943  -0.004089   0.013493
     8  C   -0.000277   0.000311   0.438520  -0.056293   0.012510  -0.002786
     9  C    0.000006   0.001005  -0.025692   0.438902  -0.057245   0.010015
    10  C   -0.000001   0.000117   0.008049  -0.057182   0.444831  -0.055558
    11  C    0.000005  -0.000379  -0.001715   0.010454  -0.059082   0.439761
    12  C    0.000132   0.008505   0.004903  -0.003164   0.012972  -0.057193
    13  C    0.009428   0.008899   0.000254  -0.000009  -0.000003   0.000080
    14  C   -0.005993  -0.000322   0.000007   0.000000  -0.000000  -0.000008
    15  C    0.019265  -0.000034   0.000000  -0.000000  -0.000000   0.000001
    16  H    0.000160  -0.000001  -0.000000   0.000000   0.000000  -0.000000
    17  H   -0.000231   0.000000   0.000000  -0.000000  -0.000000   0.000000
    18  H    0.000094   0.000000   0.000000  -0.000000  -0.000000   0.000000
    19  H    0.531963   0.002947  -0.000021   0.000000   0.000000   0.000000
    20  H    0.002947   0.463878   0.003840  -0.000042  -0.000002   0.000016
    21  H   -0.000021   0.003840   0.540683  -0.008080  -0.000132   0.000042
    22  H    0.000000  -0.000042  -0.008080   0.549822  -0.006694  -0.000176
    23  H    0.000000  -0.000002  -0.000132  -0.006694   0.547258  -0.006990
    24  H    0.000000   0.000016   0.000042  -0.000176  -0.006990   0.546205
    25  H   -0.000007  -0.000210  -0.000200   0.000034  -0.000077  -0.006112
    26  H   -0.000121  -0.000226   0.000006  -0.000002  -0.000000   0.000080
    27  H    0.000033   0.000016  -0.000000   0.000000   0.000000  -0.000001
    28  H   -0.000029  -0.000004   0.000000  -0.000000  -0.000000   0.000000
              25         26         27         28
     1  C   -0.000000   0.000001  -0.000150   0.009705
     2  O    0.000000   0.000010  -0.000079  -0.005911
     3  C    0.000271  -0.002032   0.006692  -0.063148
     4  C   -0.000470   0.004411  -0.000461   0.006663
     5  C    0.002639  -0.047878   0.011077  -0.001719
     6  N    0.001503   0.001244  -0.000226  -0.000012
     7  C   -0.043271   0.002624   0.000021   0.000001
     8  C    0.003290  -0.000190   0.000002   0.000000
     9  C   -0.001169   0.000237  -0.000001   0.000000
    10  C    0.005486  -0.000137   0.000001  -0.000000
    11  C   -0.028986   0.000417  -0.000007  -0.000000
    12  C    0.427674  -0.007503   0.000068  -0.000006
    13  C   -0.006533   0.431614  -0.049634   0.008270
    14  C    0.000877  -0.031118   0.427051  -0.027428
    15  C   -0.000285   0.008284  -0.046345   0.433169
    16  H   -0.000000   0.000003  -0.000022   0.000774
    17  H    0.000000  -0.000000   0.000002  -0.000263
    18  H    0.000000  -0.000002  -0.000021   0.000106
    19  H   -0.000007  -0.000121   0.000033  -0.000029
    20  H   -0.000210  -0.000226   0.000016  -0.000004
    21  H   -0.000200   0.000006  -0.000000   0.000000
    22  H    0.000034  -0.000002   0.000000  -0.000000
    23  H   -0.000077  -0.000000   0.000000  -0.000000
    24  H   -0.006112   0.000080  -0.000001   0.000000
    25  H    0.483083  -0.005898   0.000061  -0.000001
    26  H   -0.005898   0.486046  -0.005939  -0.000106
    27  H    0.000061  -0.005939   0.543743  -0.005009
    28  H   -0.000001  -0.000106  -0.005009   0.516220
 Mulliken charges:
               1
     1  C   -0.208143
     2  O   -0.284565
     3  C    0.399493
     4  C   -0.428835
     5  C    0.432276
     6  N   -0.339956
     7  C    0.392480
     8  C   -0.318101
     9  C   -0.072109
    10  C   -0.171094
    11  C   -0.070979
    12  C   -0.340019
    13  C   -0.365352
    14  C   -0.083146
    15  C   -0.321179
    16  H    0.121933
    17  H    0.139622
    18  H    0.121889
    19  H    0.114921
    20  H    0.230717
    21  H    0.114009
    22  H    0.117754
    23  H    0.116745
    24  H    0.119315
    25  H    0.168300
    26  H    0.166172
    27  H    0.119128
    28  H    0.128726
 Sum of Mulliken charges =   0.00000
 Mulliken charges with hydrogens summed into heavy atoms:
               1
     1  C    0.175300
     2  O   -0.284565
     3  C    0.399493
     4  C   -0.313914
     5  C    0.432276
     6  N   -0.109239
     7  C    0.392480
     8  C   -0.204092
     9  C    0.045645
    10  C   -0.054349
    11  C    0.048337
    12  C   -0.171719
    13  C   -0.199180
    14  C    0.035981
    15  C   -0.192453
 Electronic spatial extent (au):  <R**2>=           4540.8427
 Charge=              0.0000 electrons
 Dipole moment (field-independent basis, Debye):
    X=              1.1609    Y=             -0.1463    Z=             -0.1439  Tot=              1.1789
 Quadrupole moment (field-independent basis, Debye-Ang):
   XX=            -73.4604   YY=            -81.1796   ZZ=            -92.8124
   XY=              3.1306   XZ=              1.1743   YZ=              2.1986
 Traceless Quadrupole moment (field-independent basis, Debye-Ang):
   XX=              9.0238   YY=              1.3045   ZZ=            -10.3282
   XY=              3.1306   XZ=              1.1743   YZ=              2.1986
 Octapole moment (field-independent basis, Debye-Ang**2):
  XXX=             80.5775  YYY=             -9.7475  ZZZ=              4.1514  XYY=             -0.8936
  XXY=              7.1282  XXZ=              3.0992  XZZ=             10.2190  YZZ=             -1.0134
  YYZ=             -3.6832  XYZ=            -13.5332
 Hexadecapole moment (field-independent basis, Debye-Ang**3):
 XXXX=          -4569.6711 YYYY=           -597.8845 ZZZZ=           -243.9795 XXXY=             -6.1783
 XXXZ=             58.8847 YYYX=              0.8942 YYYZ=              1.4428 ZZZX=             17.9706
 ZZZY=              4.5336 XXYY=           -969.9964 XXZZ=           -968.1614 YYZZ=           -141.4674
 XXYZ=             42.1622 YYXZ=             -0.5458 ZZXY=            -10.4557
 N-N= 8.903203753285D+02 E-N=-3.253090038530D+03  KE= 6.297557767943D+02
 Breneman (CHELPG) radii used.
 Read replacement radii for each type of atom:
 Atom Element Radius
    1     6    1.50
    2     8    1.70
    3     6    1.50
    4     6    1.50
    5     6    1.50
    6     7    1.70
    7     6    1.50
    8     6    1.50
    9     6    1.50
   10     6    1.50
   11     6    1.50
   12     6    1.50
   13     6    1.50
   14     6    1.50
   15     6    1.50
   16     1    1.45
   17     1    1.45
   18     1    1.45
   19     1    1.45
   20     1    1.45
   21     1    1.45
   22     1    1.45
   23     1    1.45
   24     1    1.45
   25     1    1.45
   26     1    1.45
   27     1    1.45
   28     1    1.45
 Generate Potential Derived Charges using the Breneman model, NDens= 1.
 Grid spacing= 0.300 Box extension= 2.800
 NStep X,Y,Z=   59     37     28   Total possible points=       61124
 Number of Points to Fit=   17658

 **********************************************************************

            Electrostatic Properties Using The SCF Density.

 **********************************************************************

       Atomic Center    1 is at   5.210116 -0.375990  0.392365
       Atomic Center    2 is at   3.940151 -0.966512  0.413304
       Atomic Center    3 is at   2.866293 -0.224185  0.067360
       Atomic Center    4 is at   1.631954 -0.878865  0.132584
       Atomic Center    5 is at   0.447450 -0.218978 -0.208007
       Atomic Center    6 is at  -0.745459 -0.936268 -0.175229
       Atomic Center    7 is at  -2.047451 -0.462672 -0.023430
       Atomic Center    8 is at  -3.110177 -1.237437 -0.517237
       Atomic Center    9 is at  -4.428269 -0.826676 -0.348165
       Atomic Center   10 is at  -4.719329  0.373120  0.300250
       Atomic Center   11 is at  -3.668596  1.144692  0.794260
       Atomic Center   12 is at  -2.346167  0.733983  0.647947
       Atomic Center   13 is at   0.510305  1.125928 -0.619904
       Atomic Center   14 is at   1.739777  1.768275 -0.662142
       Atomic Center   15 is at   2.928186  1.117714 -0.323979
       Atomic Center   16 is at   5.278103  0.476664  1.090489
       Atomic Center   17 is at   5.921804 -1.148873  0.707624
       Atomic Center   18 is at   5.485553 -0.029709 -0.619200
       Atomic Center   19 is at   1.618142 -1.918976  0.464696
       Atomic Center   20 is at  -0.652768 -1.939071 -0.258146
       Atomic Center   21 is at  -2.891368 -2.169654 -1.044783
       Atomic Center   22 is at  -5.236566 -1.448596 -0.739706
       Atomic Center   23 is at  -5.753308  0.700302  0.423355
       Atomic Center   24 is at  -3.878073  2.079429  1.319688
       Atomic Center   25 is at  -1.540928  1.333634  1.073743
       Atomic Center   26 is at  -0.393690  1.650578 -0.928115
       Atomic Center   27 is at   1.781721  2.811098 -0.985331
       Atomic Center   28 is at   3.873841  1.655695 -0.375553
   17658 points will be used for fitting atomic charges
 Fitting point charges to electrostatic potential
 Charges from ESP fit, RMS=   0.00390 RRMS=   0.33624:
 ESP charges:
               1
     1  C    0.128685
     2  O   -0.359311
     3  C    0.459530
     4  C   -0.491460
     5  C    0.512227
     6  N   -0.744320
     7  C    0.464570
     8  C   -0.313751
     9  C   -0.018562
    10  C   -0.171654
    11  C   -0.065397
    12  C   -0.221838
    13  C   -0.286724
    14  C   -0.046982
    15  C   -0.337450
    16  H    0.012914
    17  H    0.052015
    18  H    0.009202
    19  H    0.167440
    20  H    0.367568
    21  H    0.129505
    22  H    0.086688
    23  H    0.097834
    24  H    0.098380
    25  H    0.106563
    26  H    0.116312
    27  H    0.107397
    28  H    0.140618
 Sum of ESP charges =  -0.00000
 ESP charges with hydrogens summed into heavy atoms:
               1
     1  C    0.202815
     2  O   -0.359311
     3  C    0.459530
     4  C   -0.324019
     5  C    0.512227
     6  N   -0.376752
     7  C    0.464570
     8  C   -0.184246
     9  C    0.068126
    10  C   -0.073820
    11  C    0.032983
    12  C   -0.115275
    13  C   -0.170412
    14  C    0.060416
    15  C   -0.196832
 Charge=  -0.00000 Dipole=     1.0854    -0.1740    -0.1525 Tot=     1.1098
 -----------------------------------------------------------------

              Electrostatic Properties (Atomic Units)

 -----------------------------------------------------------------
    Center     Electric         -------- Electric Field --------
               Potential          X             Y             Z
 -----------------------------------------------------------------
    1 Atom    -14.713605
    2 Atom    -22.325477
    3 Atom    -14.707534
    4 Atom    -14.778591
    5 Atom    -14.720644
    6 Atom    -18.359700
    7 Atom    -14.721895
    8 Atom    -14.771784
    9 Atom    -14.769179
   10 Atom    -14.777453
   11 Atom    -14.769992
   12 Atom    -14.774207
   13 Atom    -14.780184
   14 Atom    -14.767759
   15 Atom    -14.778260
   16 Atom     -1.106264
   17 Atom     -1.104212
   18 Atom     -1.106298
   19 Atom     -1.101702
   20 Atom     -1.023964
   21 Atom     -1.102344
   22 Atom     -1.108426
   23 Atom     -1.112541
   24 Atom     -1.110100
   25 Atom     -1.108326
   26 Atom     -1.110908
   27 Atom     -1.109424
   28 Atom     -1.103835
 -----------------------------------------------------------------
 Unable to Open any file for archive entry.
 1\1\GINC-NOTCH310\SP\RwB97XD\def2TZVP\C13H13N1O1\U1366379\17-Feb-2026\
 0\\#N Guess=Read Geom=Check Integral(Ultrafine) Density Pop=(ChelpG,Re
 adRadii) NMR wB97XD def2TZVP\\prod_3g_4\\0,1\C,0,-5.1166697649,1.16850
 29317,0.0544969101\O,0,-3.78456687,1.5223153311,-0.1950693206\C,0,-2.8
 263308383,0.5751972031,-0.1020736906\C,0,-1.5196852478,1.0106596615,-0
 .3460079583\C,0,-0.4414480441,0.1227171739,-0.2871512305\N,0,0.8302603
 849,0.6011170394,-0.5912939653\C,0,2.0703854456,0.1026290896,-0.196173
 6856\C,0,3.1957693652,0.3854104922,-0.9880310168\C,0,4.4603148894,-0.0
 526406295,-0.6089369358\C,0,4.6324589473,-0.7974992533,0.5573482265\C,
 0,3.5193640183,-1.0789824331,1.3480419928\C,0,2.2515608835,-0.62910773
 02,0.9886033533\C,0,-0.6867444478,-1.2280729621,0.0252222021\C,0,-1.98
 60005641,-1.6421551458,0.283027251\C,0,-3.0693589536,-0.7629200814,0.2
 266350606\H,0,-5.2558881037,0.7924486323,1.0831953992\H,0,-5.713513382
 8,2.0800042875,-0.0726970396\H,0,-5.478587287,0.4040579771,-0.65520666
 63\H,0,-1.3638567356,2.0665384772,-0.5765687662\H,0,0.8568246192,1.432
 4275273,-1.165138959\H,0,3.0681992933,0.9514075458,-1.9146287729\H,0,5
 .3195143069,0.1825231185,-1.2413188213\H,0,5.6233894404,-1.1501185309,
 0.8489505262\H,0,3.6372766253,-1.6469942654,2.2738639992\H,0,1.3996870
 357,-0.828530628,1.6396297743\H,0,0.1313599988,-1.9477799137,0.0387950
 164\H,0,-2.1696406976,-2.6923080765,0.5220802673\H,0,-4.0749243165,-1.
 1285868382,0.4302868498\\Version=ES64L-G16RevC.01\State=1-A\HF=-633.19
 00818\RMSD=2.190e-09\Dipole=-0.4484344,0.080025,-0.0873771\Quadrupole=
 7.0577443,-2.867633,-4.1901113,0.4252301,-2.2562705,-4.2709669\PG=C01 
 [X(C13H13N1O1)]\\@
 The archive entry for this job was punched.


 IMAGINATION WILL OFTEN CARRY US TO WORLDS THAT NEVER WERE.
 BUT WITHOUT IT, WE GO NOWHERE. -- CARL SAGAN (COSMOS)
 Job cpu time:       0 days  1 hours  3 minutes 15.1 seconds.
 Elapsed time:       0 days  0 hours  8 minutes 10.3 seconds.
 File lengths (MBytes):  RWF=    183 Int=      0 D2E=      0 Chk=     28 Scr=      2
 Normal termination of Gaussian 16 at Tue Feb 17 16:20:56 2026.
