 Entering Gaussian System, Link 0=g16
 Input=prod_5e_2.com
 Output=prod_5e_2.log
 Initial command:
 /uufs/chpc.utah.edu/sys/installdir/gaussian16/C01/AVX/g16/l1.exe "/scratch/general/vast/u1366379/GAUSSSCRDIR/11028647-notchpeak.peaks/Gau-1651765.inp" -scrdir="/scratch/general/vast/u1366379/GAUSSSCRDIR/11028647-notchpeak.peaks/"
 Entering Link 1 = /uufs/chpc.utah.edu/sys/installdir/gaussian16/C01/AVX/g16/l1.exe PID=   1651770.
  
 Copyright (c) 1988-2019, Gaussian, Inc.  All Rights Reserved.
  
 This is part of the Gaussian(R) 16 program.  It is based on
 the Gaussian(R) 09 system (copyright 2009, Gaussian, Inc.),
 the Gaussian(R) 03 system (copyright 2003, Gaussian, Inc.),
 the Gaussian(R) 98 system (copyright 1998, Gaussian, Inc.),
 the Gaussian(R) 94 system (copyright 1995, Gaussian, Inc.),
 the Gaussian 92(TM) system (copyright 1992, Gaussian, Inc.),
 the Gaussian 90(TM) system (copyright 1990, Gaussian, Inc.),
 the Gaussian 88(TM) system (copyright 1988, Gaussian, Inc.),
 the Gaussian 86(TM) system (copyright 1986, Carnegie Mellon
 University), and the Gaussian 82(TM) system (copyright 1983,
 Carnegie Mellon University). Gaussian is a federally registered
 trademark of Gaussian, Inc.
  
 This software contains proprietary and confidential information,
 including trade secrets, belonging to Gaussian, Inc.
  
 This software is provided under written license and may be
 used, copied, transmitted, or stored only in accord with that
 written license.
  
 The following legend is applicable only to US Government
 contracts under FAR:
  
                    RESTRICTED RIGHTS LEGEND
  
 Use, reproduction and disclosure by the US Government is
 subject to restrictions as set forth in subparagraphs (a)
 and (c) of the Commercial Computer Software - Restricted
 Rights clause in FAR 52.227-19.
  
 Gaussian, Inc.
 340 Quinnipiac St., Bldg. 40, Wallingford CT 06492
  
  
 ---------------------------------------------------------------
 Warning -- This program may not be used in any manner that
 competes with the business of Gaussian, Inc. or will provide
 assistance to any competitor of Gaussian, Inc.  The licensee
 of this program is prohibited from giving any competitor of
 Gaussian, Inc. access to this program.  By using this program,
 the user acknowledges that Gaussian, Inc. is engaged in the
 business of creating and licensing software in the field of
 computational chemistry and represents and warrants to the
 licensee that it is not a competitor of Gaussian, Inc. and that
 it will not use this program in any manner prohibited above.
 ---------------------------------------------------------------
  

 Cite this work as:
 Gaussian 16, Revision C.01,
 M. J. Frisch, G. W. Trucks, H. B. Schlegel, G. E. Scuseria, 
 M. A. Robb, J. R. Cheeseman, G. Scalmani, V. Barone, 
 G. A. Petersson, H. Nakatsuji, X. Li, M. Caricato, A. V. Marenich, 
 J. Bloino, B. G. Janesko, R. Gomperts, B. Mennucci, H. P. Hratchian, 
 J. V. Ortiz, A. F. Izmaylov, J. L. Sonnenberg, D. Williams-Young, 
 F. Ding, F. Lipparini, F. Egidi, J. Goings, B. Peng, A. Petrone, 
 T. Henderson, D. Ranasinghe, V. G. Zakrzewski, J. Gao, N. Rega, 
 G. Zheng, W. Liang, M. Hada, M. Ehara, K. Toyota, R. Fukuda, 
 J. Hasegawa, M. Ishida, T. Nakajima, Y. Honda, O. Kitao, H. Nakai, 
 T. Vreven, K. Throssell, J. A. Montgomery, Jr., J. E. Peralta, 
 F. Ogliaro, M. J. Bearpark, J. J. Heyd, E. N. Brothers, K. N. Kudin, 
 V. N. Staroverov, T. A. Keith, R. Kobayashi, J. Normand, 
 K. Raghavachari, A. P. Rendell, J. C. Burant, S. S. Iyengar, 
 J. Tomasi, M. Cossi, J. M. Millam, M. Klene, C. Adamo, R. Cammi, 
 J. W. Ochterski, R. L. Martin, K. Morokuma, O. Farkas, 
 J. B. Foresman, and D. J. Fox, Gaussian, Inc., Wallingford CT, 2019.
 
 ******************************************
 Gaussian 16:  ES64L-G16RevC.01  3-Jul-2019
                17-Feb-2026 
 ******************************************
 %NProcShared=8
 Will use up to    8 processors via shared memory.
 %Mem=8GB
 %chk=prod_5e_2.chk
 ------------------------------------------------------
 #N OPT FREQ=NORAMAN Integral(Ultrafine) wB97XD def2SVP
 ------------------------------------------------------
 1/18=20,19=15,26=4,38=1/1,3;
 2/9=110,12=2,17=6,18=5,40=1/2;
 3/5=43,7=101,11=2,25=1,30=1,71=1,74=-58,75=-5/1,2,3;
 4//1;
 5/5=2,38=5/2;
 6/7=2,8=2,9=2,10=2,28=1/1;
 7//1,2,3,16;
 1/18=20,19=15,26=4/3(2);
 2/9=110/2;
 99//99;
 2/9=110/2;
 3/5=43,7=101,11=2,25=1,30=1,71=1,74=-58,75=-5/1,2,3;
 4/5=5,16=3,69=1/1;
 5/5=2,38=5/2;
 7//1,2,3,16;
 1/18=20,19=15,26=4/3(-5);
 2/9=110/2;
 6/7=2,8=2,9=2,10=2,19=2,28=1/1;
 99/9=1/99;
 ---------
 prod_5e_2
 ---------
 Symbolic Z-matrix:
 Charge =  0 Multiplicity = 1
 C                     5.22958  -0.30165  -0.7128 
 O                     4.3287   -0.82884   0.23015 
 C                     3.02684  -0.30339   0.15897 
 C                     2.08673  -0.78686   1.07045 
 C                     0.79192  -0.32772   1.06817 
 C                     2.61145   0.66488  -0.75722 
 C                     1.31544   1.12435  -0.7592 
 C                     0.38232   0.63518   0.15058 
 N                    -0.97417   1.11582   0.14636 
 C                    -1.19178   2.5525    0.29488 
 C                    -2.08442   0.23927   0.01291 
 C                    -1.89229  -1.08716  -0.37434 
 C                    -2.95862  -1.94567  -0.51673 
 C                    -4.24337  -1.49931  -0.27733 
 C                    -4.45527  -0.18844   0.10277 
 C                    -3.39035   0.67288   0.24517 
 H                     5.3351    0.77375  -0.56538 
 H                     6.20095  -0.77525  -0.56709 
 H                     4.87931  -0.51751  -1.72279 
 H                     2.40337  -1.53095   1.77954 
 H                     0.07763  -0.70181   1.78074 
 H                     3.31111   1.05649  -1.47276 
 H                     1.00082   1.86143  -1.47729 
 H                    -1.68762   2.7608    1.24097 
 H                    -0.24157   3.08302   0.28648 
 H                    -1.80424   2.92712  -0.52313 
 H                    -0.89338  -1.4318   -0.57458 
 H                    -2.79107  -2.96709  -0.81728 
 H                    -5.07841  -2.17148  -0.3885 
 H                    -5.45783   0.161     0.28863 
 H                    -3.56483   1.69066   0.54514 
 

 GradGradGradGradGradGradGradGradGradGradGradGradGradGradGradGradGradGrad
 Berny optimization.
 Initialization pass.
                           ----------------------------
                           !    Initial Parameters    !
                           ! (Angstroms and Degrees)  !
 --------------------------                            --------------------------
 ! Name  Definition              Value          Derivative Info.                !
 --------------------------------------------------------------------------------
 ! R1    R(1,2)                  1.4067         estimate D2E/DX2                !
 ! R2    R(1,17)                 1.0906         estimate D2E/DX2                !
 ! R3    R(1,18)                 1.0905         estimate D2E/DX2                !
 ! R4    R(1,19)                 1.0906         estimate D2E/DX2                !
 ! R5    R(2,3)                  1.4057         estimate D2E/DX2                !
 ! R6    R(3,4)                  1.3958         estimate D2E/DX2                !
 ! R7    R(3,6)                  1.3962         estimate D2E/DX2                !
 ! R8    R(4,5)                  1.3738         estimate D2E/DX2                !
 ! R9    R(4,20)                 1.0755         estimate D2E/DX2                !
 ! R10   R(5,8)                  1.3917         estimate D2E/DX2                !
 ! R11   R(5,21)                 1.0761         estimate D2E/DX2                !
 ! R12   R(6,7)                  1.375          estimate D2E/DX2                !
 ! R13   R(6,22)                 1.0747         estimate D2E/DX2                !
 ! R14   R(7,8)                  1.392          estimate D2E/DX2                !
 ! R15   R(7,23)                 1.0761         estimate D2E/DX2                !
 ! R16   R(8,9)                  1.4391         estimate D2E/DX2                !
 ! R17   R(9,10)                 1.4606         estimate D2E/DX2                !
 ! R18   R(9,11)                 1.4208         estimate D2E/DX2                !
 ! R19   R(10,24)                1.0883         estimate D2E/DX2                !
 ! R20   R(10,25)                1.0883         estimate D2E/DX2                !
 ! R21   R(10,26)                1.0884         estimate D2E/DX2                !
 ! R22   R(11,12)                1.3951         estimate D2E/DX2                !
 ! R23   R(11,16)                1.3955         estimate D2E/DX2                !
 ! R24   R(12,13)                1.3764         estimate D2E/DX2                !
 ! R25   R(12,27)                1.0755         estimate D2E/DX2                !
 ! R26   R(13,14)                1.381          estimate D2E/DX2                !
 ! R27   R(13,28)                1.0778         estimate D2E/DX2                !
 ! R28   R(14,15)                1.3812         estimate D2E/DX2                !
 ! R29   R(14,29)                1.0777         estimate D2E/DX2                !
 ! R30   R(15,16)                1.377          estimate D2E/DX2                !
 ! R31   R(15,30)                1.0779         estimate D2E/DX2                !
 ! R32   R(16,31)                1.0753         estimate D2E/DX2                !
 ! A1    A(2,1,17)             109.9329         estimate D2E/DX2                !
 ! A2    A(2,1,18)             108.5514         estimate D2E/DX2                !
 ! A3    A(2,1,19)             109.934          estimate D2E/DX2                !
 ! A4    A(17,1,18)            108.9062         estimate D2E/DX2                !
 ! A5    A(17,1,19)            110.5755         estimate D2E/DX2                !
 ! A6    A(18,1,19)            108.8982         estimate D2E/DX2                !
 ! A7    A(1,2,3)              114.7774         estimate D2E/DX2                !
 ! A8    A(2,3,4)              117.4659         estimate D2E/DX2                !
 ! A9    A(2,3,6)              124.6092         estimate D2E/DX2                !
 ! A10   A(4,3,6)              117.9249         estimate D2E/DX2                !
 ! A11   A(3,4,5)              121.1942         estimate D2E/DX2                !
 ! A12   A(3,4,20)             118.1557         estimate D2E/DX2                !
 ! A13   A(5,4,20)             120.65           estimate D2E/DX2                !
 ! A14   A(4,5,8)              120.6445         estimate D2E/DX2                !
 ! A15   A(4,5,21)             120.5536         estimate D2E/DX2                !
 ! A16   A(8,5,21)             118.8007         estimate D2E/DX2                !
 ! A17   A(3,6,7)              120.8689         estimate D2E/DX2                !
 ! A18   A(3,6,22)             119.7307         estimate D2E/DX2                !
 ! A19   A(7,6,22)             119.4003         estimate D2E/DX2                !
 ! A20   A(6,7,8)              120.8934         estimate D2E/DX2                !
 ! A21   A(6,7,23)             120.359          estimate D2E/DX2                !
 ! A22   A(8,7,23)             118.7417         estimate D2E/DX2                !
 ! A23   A(5,8,7)              118.4736         estimate D2E/DX2                !
 ! A24   A(5,8,9)              120.6913         estimate D2E/DX2                !
 ! A25   A(7,8,9)              120.8348         estimate D2E/DX2                !
 ! A26   A(8,9,10)             117.9455         estimate D2E/DX2                !
 ! A27   A(8,9,11)             122.0572         estimate D2E/DX2                !
 ! A28   A(10,9,11)            119.9958         estimate D2E/DX2                !
 ! A29   A(9,10,24)            110.1539         estimate D2E/DX2                !
 ! A30   A(9,10,25)            110.4025         estimate D2E/DX2                !
 ! A31   A(9,10,26)            110.2408         estimate D2E/DX2                !
 ! A32   A(24,10,25)           108.1323         estimate D2E/DX2                !
 ! A33   A(24,10,26)           109.3366         estimate D2E/DX2                !
 ! A34   A(25,10,26)           108.5256         estimate D2E/DX2                !
 ! A35   A(9,11,12)            120.3323         estimate D2E/DX2                !
 ! A36   A(9,11,16)            121.5959         estimate D2E/DX2                !
 ! A37   A(12,11,16)           118.0671         estimate D2E/DX2                !
 ! A38   A(11,12,13)           121.0023         estimate D2E/DX2                !
 ! A39   A(11,12,27)           118.9644         estimate D2E/DX2                !
 ! A40   A(13,12,27)           120.0287         estimate D2E/DX2                !
 ! A41   A(12,13,14)           120.0802         estimate D2E/DX2                !
 ! A42   A(12,13,28)           119.9685         estimate D2E/DX2                !
 ! A43   A(14,13,28)           119.9512         estimate D2E/DX2                !
 ! A44   A(13,14,15)           119.814          estimate D2E/DX2                !
 ! A45   A(13,14,29)           120.0898         estimate D2E/DX2                !
 ! A46   A(15,14,29)           120.0961         estimate D2E/DX2                !
 ! A47   A(14,15,16)           120.2285         estimate D2E/DX2                !
 ! A48   A(14,15,30)           119.857          estimate D2E/DX2                !
 ! A49   A(16,15,30)           119.9144         estimate D2E/DX2                !
 ! A50   A(11,16,15)           120.8069         estimate D2E/DX2                !
 ! A51   A(11,16,31)           119.4964         estimate D2E/DX2                !
 ! A52   A(15,16,31)           119.6955         estimate D2E/DX2                !
 ! D1    D(17,1,2,3)            60.9069         estimate D2E/DX2                !
 ! D2    D(18,1,2,3)           179.9364         estimate D2E/DX2                !
 ! D3    D(19,1,2,3)           -61.0432         estimate D2E/DX2                !
 ! D4    D(1,2,3,4)           -179.9481         estimate D2E/DX2                !
 ! D5    D(1,2,3,6)              0.0556         estimate D2E/DX2                !
 ! D6    D(2,3,4,5)           -179.9276         estimate D2E/DX2                !
 ! D7    D(2,3,4,20)             0.1595         estimate D2E/DX2                !
 ! D8    D(6,3,4,5)              0.069          estimate D2E/DX2                !
 ! D9    D(6,3,4,20)          -179.8439         estimate D2E/DX2                !
 ! D10   D(2,3,6,7)            179.9337         estimate D2E/DX2                !
 ! D11   D(2,3,6,22)             0.0638         estimate D2E/DX2                !
 ! D12   D(4,3,6,7)             -0.0626         estimate D2E/DX2                !
 ! D13   D(4,3,6,22)          -179.9325         estimate D2E/DX2                !
 ! D14   D(3,4,5,8)              0.0868         estimate D2E/DX2                !
 ! D15   D(3,4,5,21)          -179.5023         estimate D2E/DX2                !
 ! D16   D(20,4,5,8)           179.9976         estimate D2E/DX2                !
 ! D17   D(20,4,5,21)            0.4085         estimate D2E/DX2                !
 ! D18   D(4,5,8,7)             -0.2452         estimate D2E/DX2                !
 ! D19   D(4,5,8,9)            179.933          estimate D2E/DX2                !
 ! D20   D(21,5,8,7)           179.351          estimate D2E/DX2                !
 ! D21   D(21,5,8,9)            -0.4708         estimate D2E/DX2                !
 ! D22   D(3,6,7,8)             -0.0996         estimate D2E/DX2                !
 ! D23   D(3,6,7,23)          -179.202          estimate D2E/DX2                !
 ! D24   D(22,6,7,8)           179.7707         estimate D2E/DX2                !
 ! D25   D(22,6,7,23)            0.6683         estimate D2E/DX2                !
 ! D26   D(6,7,8,5)              0.2519         estimate D2E/DX2                !
 ! D27   D(6,7,8,9)           -179.9265         estimate D2E/DX2                !
 ! D28   D(23,7,8,5)           179.3686         estimate D2E/DX2                !
 ! D29   D(23,7,8,9)            -0.8099         estimate D2E/DX2                !
 ! D30   D(5,8,9,10)           123.3963         estimate D2E/DX2                !
 ! D31   D(5,8,9,11)           -56.1612         estimate D2E/DX2                !
 ! D32   D(7,8,9,10)           -56.4213         estimate D2E/DX2                !
 ! D33   D(7,8,9,11)           124.0212         estimate D2E/DX2                !
 ! D34   D(8,9,10,24)         -113.4011         estimate D2E/DX2                !
 ! D35   D(8,9,10,25)            5.9532         estimate D2E/DX2                !
 ! D36   D(8,9,10,26)          125.8511         estimate D2E/DX2                !
 ! D37   D(11,9,10,24)          66.1658         estimate D2E/DX2                !
 ! D38   D(11,9,10,25)        -174.4799         estimate D2E/DX2                !
 ! D39   D(11,9,10,26)         -54.582          estimate D2E/DX2                !
 ! D40   D(8,9,11,12)          -12.3477         estimate D2E/DX2                !
 ! D41   D(8,9,11,16)          168.4557         estimate D2E/DX2                !
 ! D42   D(10,9,11,12)         168.1037         estimate D2E/DX2                !
 ! D43   D(10,9,11,16)         -11.0929         estimate D2E/DX2                !
 ! D44   D(9,11,12,13)        -179.5527         estimate D2E/DX2                !
 ! D45   D(9,11,12,27)          -0.3325         estimate D2E/DX2                !
 ! D46   D(16,11,12,13)         -0.3282         estimate D2E/DX2                !
 ! D47   D(16,11,12,27)        178.892          estimate D2E/DX2                !
 ! D48   D(9,11,16,15)         179.5832         estimate D2E/DX2                !
 ! D49   D(9,11,16,31)          -0.817          estimate D2E/DX2                !
 ! D50   D(12,11,16,15)          0.369          estimate D2E/DX2                !
 ! D51   D(12,11,16,31)        179.9688         estimate D2E/DX2                !
 ! D52   D(11,12,13,14)          0.0846         estimate D2E/DX2                !
 ! D53   D(11,12,13,28)        179.9667         estimate D2E/DX2                !
 ! D54   D(27,12,13,14)       -179.1274         estimate D2E/DX2                !
 ! D55   D(27,12,13,28)          0.7547         estimate D2E/DX2                !
 ! D56   D(12,13,14,15)          0.1271         estimate D2E/DX2                !
 ! D57   D(12,13,14,29)       -179.9823         estimate D2E/DX2                !
 ! D58   D(28,13,14,15)       -179.755          estimate D2E/DX2                !
 ! D59   D(28,13,14,29)          0.1356         estimate D2E/DX2                !
 ! D60   D(13,14,15,16)         -0.086          estimate D2E/DX2                !
 ! D61   D(13,14,15,30)        179.9255         estimate D2E/DX2                !
 ! D62   D(29,14,15,16)       -179.9766         estimate D2E/DX2                !
 ! D63   D(29,14,15,30)          0.0349         estimate D2E/DX2                !
 ! D64   D(14,15,16,11)         -0.1673         estimate D2E/DX2                !
 ! D65   D(14,15,16,31)       -179.7663         estimate D2E/DX2                !
 ! D66   D(30,15,16,11)        179.8212         estimate D2E/DX2                !
 ! D67   D(30,15,16,31)          0.2222         estimate D2E/DX2                !
 --------------------------------------------------------------------------------
 Trust Radius=3.00D-01 FncErr=1.00D-07 GrdErr=1.00D-06 EigMax=2.50D+02 EigMin=1.00D-04
 Number of steps in this run=    161 maximum allowed number of steps=    186.
 GradGradGradGradGradGradGradGradGradGradGradGradGradGradGradGradGradGrad

                          Input orientation:                          
 ---------------------------------------------------------------------
 Center     Atomic      Atomic             Coordinates (Angstroms)
 Number     Number       Type             X           Y           Z
 ---------------------------------------------------------------------
      1          6           0        5.229580   -0.301650   -0.712800
      2          8           0        4.328700   -0.828840    0.230150
      3          6           0        3.026840   -0.303390    0.158970
      4          6           0        2.086730   -0.786860    1.070450
      5          6           0        0.791920   -0.327720    1.068170
      6          6           0        2.611450    0.664880   -0.757220
      7          6           0        1.315440    1.124350   -0.759200
      8          6           0        0.382320    0.635180    0.150580
      9          7           0       -0.974170    1.115820    0.146360
     10          6           0       -1.191780    2.552500    0.294880
     11          6           0       -2.084420    0.239270    0.012910
     12          6           0       -1.892290   -1.087160   -0.374340
     13          6           0       -2.958620   -1.945670   -0.516730
     14          6           0       -4.243370   -1.499310   -0.277330
     15          6           0       -4.455270   -0.188440    0.102770
     16          6           0       -3.390350    0.672880    0.245170
     17          1           0        5.335100    0.773750   -0.565380
     18          1           0        6.200950   -0.775250   -0.567090
     19          1           0        4.879310   -0.517510   -1.722790
     20          1           0        2.403370   -1.530950    1.779540
     21          1           0        0.077630   -0.701810    1.780740
     22          1           0        3.311110    1.056490   -1.472760
     23          1           0        1.000820    1.861430   -1.477290
     24          1           0       -1.687620    2.760800    1.240970
     25          1           0       -0.241570    3.083020    0.286480
     26          1           0       -1.804240    2.927120   -0.523130
     27          1           0       -0.893380   -1.431800   -0.574580
     28          1           0       -2.791070   -2.967090   -0.817280
     29          1           0       -5.078410   -2.171480   -0.388500
     30          1           0       -5.457830    0.161000    0.288630
     31          1           0       -3.564830    1.690660    0.545140
 ---------------------------------------------------------------------
                    Distance matrix (angstroms):
                    1          2          3          4          5
     1  C    0.000000
     2  O    1.406652   0.000000
     3  C    2.368976   1.405704   0.000000
     4  C    3.645945   2.394639   1.395832   0.000000
     5  C    4.781774   3.669089   2.412904   1.373808   0.000000
     6  C    2.791193   2.480937   1.396245   2.392333   2.761882
     7  C    4.166068   3.724715   2.410470   2.755945   2.392041
     8  C    5.011886   4.209941   2.806149   2.402784   1.391733
     9  N    6.421362   5.648819   4.245279   3.720651   2.460206
    10  C    7.098976   6.474052   5.096208   4.743571   3.581719
    11  C    7.369793   6.505087   5.142061   4.423780   3.115828
    12  C    7.173048   6.255626   5.009646   4.243842   3.140473
    13  C    8.353913   7.410140   6.243347   5.414567   4.381349
    14  C    9.558285   8.613214   7.380822   6.511088   5.342016
    15  C    9.719789   8.808205   7.483204   6.640201   5.337078
    16  C    8.727577   7.863785   6.491599   5.728030   4.378346
    17  H    1.090574   2.052804   2.648203   3.957695   4.951990
    18  H    1.090453   2.035629   3.290105   4.428146   5.668506
    19  H    1.090580   2.052821   2.649248   3.958945   4.953003
    20  H    3.963635   2.569137   2.126468   1.075518   2.133209
    21  H    5.737635   4.526816   3.389206   2.132658   1.076062
    22  H    2.470346   2.736761   2.143041   3.371196   3.836493
    23  H    4.811005   4.607352   3.386525   3.831921   3.363835
    24  H    7.813032   7.078374   5.725916   5.182730   3.964459
    25  H    6.510609   6.016078   4.708135   4.583837   3.648601
    26  H    7.741806   7.231018   5.851563   5.610062   4.457159
    27  H    6.227920   5.318014   4.144820   3.464553   2.599588
    28  H    8.452592   7.507353   6.472746   5.666556   4.833116
    29  H   10.481226   9.522559   8.335740   7.442106   6.323141
    30  H   10.744191   9.836634   8.498358   7.643956   6.317112
    31  H    9.104579   8.291858   6.897498   6.193076   4.829978
                    6          7          8          9         10
     6  C    0.000000
     7  C    1.375049   0.000000
     8  C    2.407074   1.392013   0.000000
     9  N    3.725114   2.462199   1.439131   0.000000
    10  C    4.374309   3.071946   2.484900   1.460637   0.000000
    11  C    4.777598   3.597022   2.502100   1.420846   2.495465
    12  C    4.847671   3.915153   2.901008   2.442784   3.766390
    13  C    6.156175   5.267960   4.274105   3.708160   4.900405
    14  C    7.204344   6.165725   5.112354   4.207860   5.104585
    15  C    7.169817   5.980594   4.907434   3.717667   4.266149
    16  C    6.084937   4.832913   3.774044   2.458431   2.892949
    17  H    2.732567   4.039573   5.006179   6.358496   6.819396
    18  H    3.872291   5.245340   6.029993   7.454361   8.152875
    19  H    2.733781   4.040468   5.006109   6.358043   7.096061
    20  H    3.361565   3.831372   3.380869   4.591345   5.639493
    21  H    3.837880   3.364272   2.130211   2.661064   3.796013
    22  H    1.074653   2.120489   3.374988   4.581342   5.063459
    23  H    2.131751   1.076070   2.129834   2.663223   2.902699
    24  H    5.183401   3.961946   3.160991   2.100748   1.088270
    25  H    3.882838   2.711847   2.529749   2.103857   1.088311
    26  H    4.966976   3.610833   3.238506   2.101914   1.088388
    27  H    4.088185   3.383323   2.534891   2.648896   4.088967
    28  H    6.510149   5.797127   4.897296   4.571639   5.853247
    29  H    8.204562   7.202863   6.163402   5.285565   6.155395
    30  H    8.152360   6.921212   5.860994   4.586407   4.890654
    31  H    6.394904   5.083212   4.104840   2.683465   2.537078
                   11         12         13         14         15
    11  C    0.000000
    12  C    1.395096   0.000000
    13  C    2.412200   1.376363   0.000000
    14  C    2.787107   2.388903   1.380990   0.000000
    15  C    2.410797   2.757571   2.389895   1.381216   0.000000
    16  C    1.395498   2.392847   2.761102   2.391455   1.377027
    17  H    7.461191   7.465564   8.728310   9.848698   9.860202
    18  H    8.367378   8.101541   9.234183  10.473397  10.693366
    19  H    7.216572   6.928015   8.057752   9.288519   9.517108
    20  H    5.137599   4.825852   5.847716   6.957792   7.187130
    21  H    2.947086   2.945072   4.005542   4.852082   4.860691
    22  H    5.655688   5.733859   7.016871   8.064201   8.021771
    23  H    3.790884   4.275601   5.576186   6.343186   6.038831
    24  H    2.832613   4.178267   5.182259   5.194770   4.201595
    25  H    3.399684   4.533427   5.771935   6.109831   5.337740
    26  H    2.755064   4.018001   5.007666   5.059946   4.138409
    27  H    2.134525   1.075497   2.128996   3.363829   3.832989
    28  H    3.386638   2.130291   1.077823   2.134268   3.367039
    29  H    3.864818   3.365607   2.135636   1.077712   2.135907
    30  H    3.385564   3.835428   3.366410   2.133507   1.077858
    31  H    2.140424   3.370329   3.836399   3.363448   2.125933
                   16         17         18         19         20
    16  C    0.000000
    17  H    8.763598   0.000000
    18  H    9.733955   1.774570   0.000000
    19  H    8.583541   1.792957   1.774487   0.000000
    20  H    6.385793   4.405148   4.527623   4.407228   0.000000
    21  H    4.034183   5.943277   6.558410   5.946833   2.469117
    22  H    6.928781   2.236027   3.539306   2.235899   4.253974
    23  H    4.864349   4.560769   5.901008   4.556568   4.907375
    24  H    2.872337   7.518634   8.831889   7.915539   5.953602
    25  H    3.965513   6.095707   7.557837   6.574526   5.523917
    26  H    2.861403   7.457142   8.820008   7.614099   6.548333
    27  H    3.366976   6.607458   7.124650   5.956363   4.052194
    28  H    3.838921   8.949412   9.258681   8.102785   5.982322
    29  H    3.367710  10.823440  11.366852  10.181951   7.815863
    30  H    2.130348  10.843991  11.727573  10.552850   8.178262
    31  H    1.075315   9.015694  10.133520   9.017928   6.893615
                   21         22         23         24         25
    21  H    0.000000
    22  H    4.912461   0.000000
    23  H    4.247027   2.446505   0.000000
    24  H    3.923917   5.937702   3.927533   0.000000
    25  H    4.081622   4.452335   2.479254   1.762367   0.000000
    26  H    4.692375   5.528821   3.148726   1.775757   1.766836
    27  H    2.650147   4.967499   3.904900   4.637341   4.642185
    28  H    4.484489   7.338627   6.174840   6.185687   6.657482
    29  H    5.783622   9.054251   7.376101   6.203226   7.173590
    30  H    5.797599   8.988810   6.908263   4.677648   5.978927
    31  H    4.529695   7.193931   4.996453   2.270087   3.612427
                   26         27         28         29         30
    26  H    0.000000
    27  H    4.453369   0.000000
    28  H    5.983483   2.453008   0.000000
    29  H    6.060861   4.253966   2.459425   0.000000
    30  H    4.653933   4.910840   4.256712   2.458237   0.000000
    31  H    2.402022   4.259128   4.914217   4.251909   2.447265
                   31
    31  H    0.000000
 Stoichiometry    C14H15NO
 Framework group  C1[X(C14H15NO)]
 Deg. of freedom    87
 Full point group                 C1      NOp   1
 Largest Abelian subgroup         C1      NOp   1
 Largest concise Abelian subgroup C1      NOp   1
                         Standard orientation:                         
 ---------------------------------------------------------------------
 Center     Atomic      Atomic             Coordinates (Angstroms)
 Number     Number       Type             X           Y           Z
 ---------------------------------------------------------------------
      1          6           0        5.227606   -0.420781   -0.600791
      2          8           0        4.301604   -0.910378    0.338083
      3          6           0        3.010048   -0.365980    0.230764
      4          6           0        2.046105   -0.812010    1.136422
      5          6           0        0.759284   -0.332332    1.099691
      6          6           0        2.626964    0.586292   -0.715769
      7          6           0        1.338943    1.066326   -0.752230
      8          6           0        0.381924    0.614445    0.151992
      9          7           0       -0.966170    1.116556    0.111689
     10          6           0       -1.162659    2.559728    0.221722
     11          6           0       -2.088184    0.254960   -0.020755
     12          6           0       -1.911122   -1.083399   -0.372517
     13          6           0       -2.988773   -1.927885   -0.513536
     14          6           0       -4.270027   -1.455272   -0.308207
     15          6           0       -4.466982   -0.132323    0.036424
     16          6           0       -3.390695    0.714995    0.177359
     17          1           0        5.348215    0.656050   -0.477338
     18          1           0        6.188304   -0.906236   -0.426200
     19          1           0        4.891761   -0.655461   -1.611482
     20          1           0        2.337831   -1.543642    1.868781
     21          1           0        0.026420   -0.677486    1.807990
     22          1           0        3.345543    0.949121   -1.427723
     23          1           0        1.049281    1.790700   -1.493380
     24          1           0       -1.671670    2.798883    1.153412
     25          1           0       -0.203832    3.074564    0.217789
     26          1           0       -1.754281    2.924151   -0.615993
     27          1           0       -0.914642   -1.448794   -0.546317
     28          1           0       -2.832791   -2.958863   -0.786402
     29          1           0       -5.113936   -2.116452   -0.418306
     30          1           0       -5.466778    0.237579    0.195669
     31          1           0       -3.553654    1.742431    0.449608
 ---------------------------------------------------------------------
 Rotational constants (GHZ):           1.3908204           0.2536255           0.2289480
 Standard basis: def2SVP (5D, 7F)
 There are   315 symmetry adapted cartesian basis functions of A   symmetry.
 There are   299 symmetry adapted basis functions of A   symmetry.
   299 basis functions,   505 primitive gaussians,   315 cartesian basis functions
    57 alpha electrons       57 beta electrons
       nuclear repulsion energy      1019.6701104415 Hartrees.
 NAtoms=   31 NActive=   31 NUniq=   31 SFac= 1.00D+00 NAtFMM=   60 NAOKFM=F Big=F
 Integral buffers will be    131072 words long.
 Raffenetti 2 integral format.
 Two-electron integral symmetry is turned on.
 Nuclear repulsion after empirical dispersion term =     1019.6498629043 Hartrees.
 One-electron integrals computed using PRISM.
   1 Symmetry operations used in ECPInt.
 ECPInt:  NShTT=   10011 NPrTT=   36031 LenC2=    9186 LenP2D=   23967.
 LDataN:  DoStor=T MaxTD1= 4 Len=   56
 NBasis=   299 RedAO= T EigKep=  2.15D-04  NBF=   299
 NBsUse=   299 1.00D-06 EigRej= -1.00D+00 NBFU=   299
 ExpMin= 1.22D-01 ExpMax= 2.27D+03 ExpMxC= 3.41D+02 IAcc=3 IRadAn=         5 AccDes= 0.00D+00
 Harris functional with IExCor= 4639 and IRadAn=       5 diagonalized for initial guess.
 HarFok:  IExCor= 4639 AccDes= 0.00D+00 IRadAn=         5 IDoV= 1 UseB2=F ITyADJ=14
 ICtDFT=  3500011 ScaDFX=  1.000000  1.000000  1.000000  1.000000
 FoFCou: FMM=F IPFlag=           0 FMFlag=      100000 FMFlg1=           0
         NFxFlg=           0 DoJE=T BraDBF=F KetDBF=T FulRan=T
         wScrn=  0.000000 ICntrl=       500 IOpCl=  0 I1Cent=   200000004 NGrid=           0
         NMat0=    1 NMatS0=      1 NMatT0=    0 NMatD0=    1 NMtDS0=    0 NMtDT0=    0
 Petite list used in FoFCou.
 Requested convergence on RMS density matrix=1.00D-08 within 128 cycles.
 Requested convergence on MAX density matrix=1.00D-06.
 Requested convergence on             energy=1.00D-06.
 No special actions if energy rises.
 Integral accuracy reduced to 1.0D-05 until final iterations.
 Initial convergence to 1.0D-05 achieved.  Increase integral accuracy.
 SCF Done:  E(RwB97XD) =  -671.770740421     A.U. after   15 cycles
            NFock= 15  Conv=0.71D-08     -V/T= 2.0105

 **********************************************************************

            Population analysis using the SCF Density.

 **********************************************************************

 Orbital symmetries:
       Occupied  (A) (A) (A) (A) (A) (A) (A) (A) (A) (A) (A) (A)
                 (A) (A) (A) (A) (A) (A) (A) (A) (A) (A) (A) (A)
                 (A) (A) (A) (A) (A) (A) (A) (A) (A) (A) (A) (A)
                 (A) (A) (A) (A) (A) (A) (A) (A) (A) (A) (A) (A)
                 (A) (A) (A) (A) (A) (A) (A) (A) (A)
       Virtual   (A) (A) (A) (A) (A) (A) (A) (A) (A) (A) (A) (A)
                 (A) (A) (A) (A) (A) (A) (A) (A) (A) (A) (A) (A)
                 (A) (A) (A) (A) (A) (A) (A) (A) (A) (A) (A) (A)
                 (A) (A) (A) (A) (A) (A) (A) (A) (A) (A) (A) (A)
                 (A) (A) (A) (A) (A) (A) (A) (A) (A) (A) (A) (A)
                 (A) (A) (A) (A) (A) (A) (A) (A) (A) (A) (A) (A)
                 (A) (A) (A) (A) (A) (A) (A) (A) (A) (A) (A) (A)
                 (A) (A) (A) (A) (A) (A) (A) (A) (A) (A) (A) (A)
                 (A) (A) (A) (A) (A) (A) (A) (A) (A) (A) (A) (A)
                 (A) (A) (A) (A) (A) (A) (A) (A) (A) (A) (A) (A)
                 (A) (A) (A) (A) (A) (A) (A) (A) (A) (A) (A) (A)
                 (A) (A) (A) (A) (A) (A) (A) (A) (A) (A) (A) (A)
                 (A) (A) (A) (A) (A) (A) (A) (A) (A) (A) (A) (A)
                 (A) (A) (A) (A) (A) (A) (A) (A) (A) (A) (A) (A)
                 (A) (A) (A) (A) (A) (A) (A) (A) (A) (A) (A) (A)
                 (A) (A) (A) (A) (A) (A) (A) (A) (A) (A) (A) (A)
                 (A) (A) (A) (A) (A) (A) (A) (A) (A) (A) (A) (A)
                 (A) (A) (A) (A) (A) (A) (A) (A) (A) (A) (A) (A)
                 (A) (A) (A) (A) (A) (A) (A) (A) (A) (A) (A) (A)
                 (A) (A) (A) (A) (A) (A) (A) (A) (A) (A) (A) (A)
                 (A) (A)
 The electronic state is 1-A.
 Alpha  occ. eigenvalues --  -19.28581 -14.46064 -10.36165 -10.35005 -10.33594
 Alpha  occ. eigenvalues --  -10.33491 -10.32783 -10.30391 -10.30332 -10.30111
 Alpha  occ. eigenvalues --  -10.29887 -10.29058 -10.28949 -10.28579 -10.28266
 Alpha  occ. eigenvalues --  -10.27966  -1.14841  -1.03845  -0.95646  -0.93666
 Alpha  occ. eigenvalues --   -0.85501  -0.85042  -0.83635  -0.82864  -0.79320
 Alpha  occ. eigenvalues --   -0.76191  -0.70859  -0.70181  -0.68634  -0.66206
 Alpha  occ. eigenvalues --   -0.63323  -0.61591  -0.58426  -0.57999  -0.56142
 Alpha  occ. eigenvalues --   -0.55325  -0.54052  -0.53145  -0.52519  -0.52239
 Alpha  occ. eigenvalues --   -0.51708  -0.50461  -0.50132  -0.48729  -0.47353
 Alpha  occ. eigenvalues --   -0.46697  -0.45923  -0.44752  -0.43256  -0.41723
 Alpha  occ. eigenvalues --   -0.41398  -0.40643  -0.37145  -0.34198  -0.32630
 Alpha  occ. eigenvalues --   -0.31077  -0.25786
 Alpha virt. eigenvalues --    0.05532   0.06135   0.07608   0.09368   0.13864
 Alpha virt. eigenvalues --    0.15032   0.15879   0.16935   0.18453   0.19193
 Alpha virt. eigenvalues --    0.20157   0.20662   0.20842   0.21330   0.21620
 Alpha virt. eigenvalues --    0.22011   0.22829   0.23483   0.24051   0.25121
 Alpha virt. eigenvalues --    0.25248   0.26124   0.26427   0.30622   0.32021
 Alpha virt. eigenvalues --    0.34492   0.36229   0.37437   0.38187   0.39084
 Alpha virt. eigenvalues --    0.39755   0.40886   0.41636   0.43014   0.43852
 Alpha virt. eigenvalues --    0.45289   0.47262   0.49021   0.49435   0.50116
 Alpha virt. eigenvalues --    0.50989   0.52773   0.53229   0.53867   0.55003
 Alpha virt. eigenvalues --    0.55751   0.57000   0.57346   0.57869   0.58481
 Alpha virt. eigenvalues --    0.58792   0.59267   0.60136   0.60996   0.61156
 Alpha virt. eigenvalues --    0.63886   0.64564   0.65259   0.65738   0.67282
 Alpha virt. eigenvalues --    0.68188   0.70226   0.71666   0.71961   0.72340
 Alpha virt. eigenvalues --    0.72528   0.73252   0.73561   0.74210   0.74975
 Alpha virt. eigenvalues --    0.75156   0.75699   0.75955   0.76758   0.77425
 Alpha virt. eigenvalues --    0.77669   0.78150   0.79405   0.79825   0.81172
 Alpha virt. eigenvalues --    0.81545   0.82198   0.83342   0.84757   0.85021
 Alpha virt. eigenvalues --    0.86311   0.87247   0.87987   0.89815   0.91148
 Alpha virt. eigenvalues --    0.91977   0.92730   0.94003   0.95309   0.99993
 Alpha virt. eigenvalues --    1.00738   1.03466   1.04311   1.05706   1.08659
 Alpha virt. eigenvalues --    1.10580   1.11080   1.15386   1.18247   1.18761
 Alpha virt. eigenvalues --    1.21057   1.22279   1.25175   1.27280   1.29773
 Alpha virt. eigenvalues --    1.32297   1.32676   1.33468   1.34208   1.34560
 Alpha virt. eigenvalues --    1.35035   1.35554   1.36672   1.39184   1.39852
 Alpha virt. eigenvalues --    1.40270   1.40880   1.41725   1.43676   1.48286
 Alpha virt. eigenvalues --    1.51712   1.55337   1.59954   1.60846   1.60981
 Alpha virt. eigenvalues --    1.62356   1.64906   1.67231   1.72079   1.74124
 Alpha virt. eigenvalues --    1.77039   1.77329   1.77935   1.78908   1.79114
 Alpha virt. eigenvalues --    1.79820   1.81788   1.82440   1.83755   1.83958
 Alpha virt. eigenvalues --    1.84759   1.85852   1.86163   1.87108   1.87694
 Alpha virt. eigenvalues --    1.88223   1.88882   1.89793   1.90182   1.91342
 Alpha virt. eigenvalues --    1.91551   1.92613   1.94001   1.94655   1.96604
 Alpha virt. eigenvalues --    1.98233   1.98385   1.99550   2.00871   2.01973
 Alpha virt. eigenvalues --    2.05269   2.05558   2.06553   2.07703   2.09469
 Alpha virt. eigenvalues --    2.09826   2.11473   2.14696   2.16508   2.17063
 Alpha virt. eigenvalues --    2.19167   2.22830   2.23455   2.24769   2.25556
 Alpha virt. eigenvalues --    2.25749   2.26483   2.28756   2.29132   2.30124
 Alpha virt. eigenvalues --    2.31820   2.32694   2.35442   2.36229   2.39105
 Alpha virt. eigenvalues --    2.41063   2.41319   2.41847   2.42211   2.44325
 Alpha virt. eigenvalues --    2.45275   2.45714   2.46698   2.49955   2.51215
 Alpha virt. eigenvalues --    2.54118   2.57834   2.59721   2.65497   2.69601
 Alpha virt. eigenvalues --    2.70443   2.71937   2.72794   2.72858   2.75215
 Alpha virt. eigenvalues --    2.76035   2.77387   2.78644   2.83384   2.85590
 Alpha virt. eigenvalues --    2.85884   2.86347   2.88933   2.89877   2.91693
 Alpha virt. eigenvalues --    2.95536   2.97066   2.97476   3.00507   3.01598
 Alpha virt. eigenvalues --    3.02651   3.03775   3.05715   3.06953   3.07353
 Alpha virt. eigenvalues --    3.14221   3.16462   3.21637   3.23103   3.28785
 Alpha virt. eigenvalues --    3.29858   3.34924   3.43509   3.53031   3.53879
 Alpha virt. eigenvalues --    3.80270   3.81987
          Condensed to atoms (all electrons):
               1          2          3          4          5          6
     1  C    4.394090   0.301635  -0.058211   0.006178  -0.000225   0.000617
     2  O    0.301635   7.915454   0.384645  -0.067490   0.003266  -0.080718
     3  C   -0.058211   0.384645   5.067331   0.271672   0.119622   0.167775
     4  C    0.006178  -0.067490   0.271672   5.148857   0.252426   0.056992
     5  C   -0.000225   0.003266   0.119622   0.252426   5.142223  -0.142996
     6  C    0.000617  -0.080718   0.167775   0.056992  -0.142996   5.352734
     7  C    0.001250   0.004433   0.119593  -0.130407   0.060351   0.213684
     8  C    0.000037  -0.000009  -0.183768   0.126522   0.243897   0.116773
     9  N   -0.000000   0.000000  -0.000079   0.008962  -0.074125   0.009310
    10  C    0.000000  -0.000000   0.000031  -0.000076   0.002567   0.000041
    11  C   -0.000000  -0.000000   0.000025   0.000131  -0.006244  -0.000128
    12  C    0.000000   0.000000   0.000064  -0.001993  -0.003308  -0.000070
    13  C    0.000000   0.000000  -0.000002   0.000008  -0.000058   0.000002
    14  C   -0.000000  -0.000000   0.000000  -0.000001  -0.000023   0.000000
    15  C    0.000000  -0.000000  -0.000000   0.000001  -0.000019  -0.000000
    16  C   -0.000000   0.000000   0.000001  -0.000026   0.000048   0.000004
    17  H    0.402667  -0.031043  -0.009898  -0.000206   0.000003   0.006370
    18  H    0.397936  -0.020605   0.005168  -0.000079   0.000007   0.000240
    19  H    0.403385  -0.030944  -0.009202  -0.000158   0.000059   0.005680
    20  H   -0.000200   0.001468  -0.071658   0.446582  -0.070315   0.020025
    21  H    0.000007  -0.000054   0.016090  -0.074826   0.468242  -0.003261
    22  H    0.008693  -0.008093  -0.093270   0.012960  -0.002245   0.458636
    23  H   -0.000029  -0.000056   0.015397  -0.003142   0.017581  -0.067933
    24  H    0.000000   0.000000  -0.000003  -0.000103   0.001122   0.000067
    25  H   -0.000000  -0.000000  -0.000066  -0.000053  -0.000351   0.000054
    26  H   -0.000000   0.000000   0.000000   0.000038  -0.000630  -0.000098
    27  H   -0.000001  -0.000000   0.000128  -0.000745   0.001707   0.000025
    28  H    0.000000   0.000000  -0.000000  -0.000000   0.000028  -0.000000
    29  H    0.000000   0.000000  -0.000000   0.000000   0.000000   0.000000
    30  H   -0.000000   0.000000  -0.000000  -0.000000  -0.000000   0.000000
    31  H    0.000000   0.000000   0.000000  -0.000000  -0.000022   0.000000
               7          8          9         10         11         12
     1  C    0.001250   0.000037  -0.000000   0.000000  -0.000000   0.000000
     2  O    0.004433  -0.000009   0.000000  -0.000000  -0.000000   0.000000
     3  C    0.119593  -0.183768  -0.000079   0.000031   0.000025   0.000064
     4  C   -0.130407   0.126522   0.008962  -0.000076   0.000131  -0.001993
     5  C    0.060351   0.243897  -0.074125   0.002567  -0.006244  -0.003308
     6  C    0.213684   0.116773   0.009310   0.000041  -0.000128  -0.000070
     7  C    5.131678   0.273244  -0.073066  -0.006977   0.002590   0.000872
     8  C    0.273244   5.216967   0.292709  -0.051405  -0.045552  -0.004120
     9  N   -0.073066   0.292709   6.817631   0.340447   0.347440  -0.089425
    10  C   -0.006977  -0.051405   0.340447   4.433132  -0.051716   0.006624
    11  C    0.002590  -0.045552   0.347440  -0.051716   5.045182   0.270713
    12  C    0.000872  -0.004120  -0.089425   0.006624   0.270713   5.192372
    13  C   -0.000040  -0.000554   0.008520  -0.000252   0.122196   0.282481
    14  C   -0.000003   0.000034  -0.000675   0.000084  -0.165588   0.088574
    15  C    0.000005  -0.000116   0.008120   0.000380   0.121914  -0.155938
    16  C   -0.000400   0.007414  -0.091685   0.003538   0.257796   0.073807
    17  H    0.000717  -0.000082   0.000000   0.000000  -0.000000   0.000000
    18  H   -0.000031   0.000004  -0.000000  -0.000000   0.000000  -0.000000
    19  H    0.000570  -0.000102   0.000000  -0.000000   0.000000  -0.000000
    20  H   -0.003313   0.015910  -0.000126   0.000004  -0.000015   0.000022
    21  H    0.017263  -0.072858  -0.009968  -0.000163   0.003241   0.001198
    22  H   -0.055656   0.016674  -0.000174  -0.000009   0.000006  -0.000002
    23  H    0.454927  -0.072158  -0.008788   0.002077  -0.000229  -0.000090
    24  H   -0.000133   0.004468  -0.031710   0.399132  -0.010374  -0.000493
    25  H    0.003330  -0.005209  -0.019333   0.399572   0.006084  -0.000133
    26  H    0.001552   0.001875  -0.029501   0.400740  -0.007409   0.000120
    27  H   -0.001279   0.007671  -0.016422  -0.000108  -0.068377   0.459455
    28  H    0.000003  -0.000013  -0.000106   0.000006   0.015336  -0.069135
    29  H    0.000000   0.000000   0.000011  -0.000000  -0.001433   0.014951
    30  H   -0.000000   0.000007  -0.000091  -0.000038   0.015412  -0.001945
    31  H    0.000010  -0.000144  -0.016639   0.011973  -0.078354   0.016882
              13         14         15         16         17         18
     1  C    0.000000  -0.000000   0.000000  -0.000000   0.402667   0.397936
     2  O    0.000000  -0.000000  -0.000000   0.000000  -0.031043  -0.020605
     3  C   -0.000002   0.000000  -0.000000   0.000001  -0.009898   0.005168
     4  C    0.000008  -0.000001   0.000001  -0.000026  -0.000206  -0.000079
     5  C   -0.000058  -0.000023  -0.000019   0.000048   0.000003   0.000007
     6  C    0.000002   0.000000  -0.000000   0.000004   0.006370   0.000240
     7  C   -0.000040  -0.000003   0.000005  -0.000400   0.000717  -0.000031
     8  C   -0.000554   0.000034  -0.000116   0.007414  -0.000082   0.000004
     9  N    0.008520  -0.000675   0.008120  -0.091685   0.000000  -0.000000
    10  C   -0.000252   0.000084   0.000380   0.003538   0.000000  -0.000000
    11  C    0.122196  -0.165588   0.121914   0.257796  -0.000000   0.000000
    12  C    0.282481   0.088574  -0.155938   0.073807   0.000000  -0.000000
    13  C    5.047440   0.271549   0.103530  -0.155172   0.000000  -0.000000
    14  C    0.271549   5.118593   0.281066   0.088420  -0.000000   0.000000
    15  C    0.103530   0.281066   5.047934   0.269378   0.000000   0.000000
    16  C   -0.155172   0.088420   0.269378   5.217570  -0.000000   0.000000
    17  H    0.000000  -0.000000   0.000000  -0.000000   0.663255  -0.023292
    18  H   -0.000000   0.000000   0.000000   0.000000  -0.023292   0.610114
    19  H   -0.000000   0.000000  -0.000000   0.000000  -0.043885  -0.023382
    20  H    0.000001  -0.000000   0.000000  -0.000000   0.000072  -0.000097
    21  H   -0.000093  -0.000001   0.000005  -0.000527  -0.000000  -0.000000
    22  H   -0.000000   0.000000   0.000000  -0.000000   0.000782  -0.000314
    23  H    0.000004   0.000000   0.000000  -0.000056   0.000024  -0.000001
    24  H    0.000054  -0.000064   0.000853   0.003888  -0.000000  -0.000000
    25  H    0.000004   0.000004  -0.000052   0.000500   0.000000   0.000000
    26  H   -0.000029  -0.000080   0.000893   0.005287   0.000000   0.000000
    27  H   -0.071950   0.015150  -0.002473   0.016226  -0.000000  -0.000000
    28  H    0.454025  -0.072556   0.014341  -0.001945   0.000000  -0.000000
    29  H   -0.070810   0.452311  -0.070750   0.014915   0.000000   0.000000
    30  H    0.014316  -0.070942   0.453136  -0.069757   0.000000  -0.000000
    31  H   -0.002559   0.015818  -0.072106   0.459406  -0.000000   0.000000
              19         20         21         22         23         24
     1  C    0.403385  -0.000200   0.000007   0.008693  -0.000029   0.000000
     2  O   -0.030944   0.001468  -0.000054  -0.008093  -0.000056   0.000000
     3  C   -0.009202  -0.071658   0.016090  -0.093270   0.015397  -0.000003
     4  C   -0.000158   0.446582  -0.074826   0.012960  -0.003142  -0.000103
     5  C    0.000059  -0.070315   0.468242  -0.002245   0.017581   0.001122
     6  C    0.005680   0.020025  -0.003261   0.458636  -0.067933   0.000067
     7  C    0.000570  -0.003313   0.017263  -0.055656   0.454927  -0.000133
     8  C   -0.000102   0.015910  -0.072858   0.016674  -0.072158   0.004468
     9  N    0.000000  -0.000126  -0.009968  -0.000174  -0.008788  -0.031710
    10  C   -0.000000   0.000004  -0.000163  -0.000009   0.002077   0.399132
    11  C    0.000000  -0.000015   0.003241   0.000006  -0.000229  -0.010374
    12  C   -0.000000   0.000022   0.001198  -0.000002  -0.000090  -0.000493
    13  C   -0.000000   0.000001  -0.000093  -0.000000   0.000004   0.000054
    14  C    0.000000  -0.000000  -0.000001   0.000000   0.000000  -0.000064
    15  C   -0.000000   0.000000   0.000005   0.000000   0.000000   0.000853
    16  C    0.000000  -0.000000  -0.000527  -0.000000  -0.000056   0.003888
    17  H   -0.043885   0.000072  -0.000000   0.000782   0.000024  -0.000000
    18  H   -0.023382  -0.000097  -0.000000  -0.000314  -0.000001  -0.000000
    19  H    0.662177   0.000089  -0.000000   0.000092   0.000034   0.000000
    20  H    0.000089   0.661837  -0.013035  -0.000216   0.000026   0.000001
    21  H   -0.000000  -0.013035   0.656056   0.000015  -0.000234  -0.000048
    22  H    0.000092  -0.000216   0.000015   0.679639  -0.014212  -0.000002
    23  H    0.000034   0.000026  -0.000234  -0.014212   0.676424   0.000265
    24  H    0.000000   0.000001  -0.000048  -0.000002   0.000265   0.655830
    25  H   -0.000000   0.000001  -0.000019   0.000033   0.000561  -0.020386
    26  H   -0.000000  -0.000000   0.000014   0.000003  -0.000908  -0.040460
    27  H    0.000000   0.000017  -0.001687  -0.000004  -0.000087  -0.000030
    28  H   -0.000000  -0.000000   0.000013   0.000000  -0.000000  -0.000000
    29  H   -0.000000   0.000000  -0.000000   0.000000   0.000000   0.000000
    30  H   -0.000000   0.000000  -0.000001  -0.000000  -0.000000   0.000019
    31  H    0.000000  -0.000000  -0.000006  -0.000000  -0.000005  -0.001484
              25         26         27         28         29         30
     1  C   -0.000000  -0.000000  -0.000001   0.000000   0.000000  -0.000000
     2  O   -0.000000   0.000000  -0.000000   0.000000   0.000000   0.000000
     3  C   -0.000066   0.000000   0.000128  -0.000000  -0.000000  -0.000000
     4  C   -0.000053   0.000038  -0.000745  -0.000000   0.000000  -0.000000
     5  C   -0.000351  -0.000630   0.001707   0.000028   0.000000  -0.000000
     6  C    0.000054  -0.000098   0.000025  -0.000000   0.000000   0.000000
     7  C    0.003330   0.001552  -0.001279   0.000003   0.000000  -0.000000
     8  C   -0.005209   0.001875   0.007671  -0.000013   0.000000   0.000007
     9  N   -0.019333  -0.029501  -0.016422  -0.000106   0.000011  -0.000091
    10  C    0.399572   0.400740  -0.000108   0.000006  -0.000000  -0.000038
    11  C    0.006084  -0.007409  -0.068377   0.015336  -0.001433   0.015412
    12  C   -0.000133   0.000120   0.459455  -0.069135   0.014951  -0.001945
    13  C    0.000004  -0.000029  -0.071950   0.454025  -0.070810   0.014316
    14  C    0.000004  -0.000080   0.015150  -0.072556   0.452311  -0.070942
    15  C   -0.000052   0.000893  -0.002473   0.014341  -0.070750   0.453136
    16  C    0.000500   0.005287   0.016226  -0.001945   0.014915  -0.069757
    17  H    0.000000   0.000000  -0.000000   0.000000   0.000000   0.000000
    18  H    0.000000   0.000000  -0.000000  -0.000000   0.000000  -0.000000
    19  H   -0.000000  -0.000000   0.000000  -0.000000  -0.000000  -0.000000
    20  H    0.000001  -0.000000   0.000017  -0.000000   0.000000   0.000000
    21  H   -0.000019   0.000014  -0.001687   0.000013  -0.000000  -0.000001
    22  H    0.000033   0.000003  -0.000004   0.000000   0.000000  -0.000000
    23  H    0.000561  -0.000908  -0.000087  -0.000000   0.000000  -0.000000
    24  H   -0.020386  -0.040460  -0.000030  -0.000000   0.000000   0.000019
    25  H    0.606021  -0.020051  -0.000008  -0.000000  -0.000000  -0.000001
    26  H   -0.020051   0.651184   0.000028   0.000000  -0.000000   0.000005
    27  H   -0.000008   0.000028   0.663743  -0.013211  -0.000251   0.000020
    28  H   -0.000000   0.000000  -0.013211   0.678276  -0.012510  -0.000272
    29  H   -0.000000  -0.000000  -0.000251  -0.012510   0.684297  -0.012555
    30  H   -0.000001   0.000005   0.000020  -0.000272  -0.012555   0.679543
    31  H    0.000029  -0.001479  -0.000177   0.000024  -0.000264  -0.013831
              31
     1  C    0.000000
     2  O    0.000000
     3  C    0.000000
     4  C   -0.000000
     5  C   -0.000022
     6  C    0.000000
     7  C    0.000010
     8  C   -0.000144
     9  N   -0.016639
    10  C    0.011973
    11  C   -0.078354
    12  C    0.016882
    13  C   -0.002559
    14  C    0.015818
    15  C   -0.072106
    16  C    0.459406
    17  H   -0.000000
    18  H    0.000000
    19  H    0.000000
    20  H   -0.000000
    21  H   -0.000006
    22  H   -0.000000
    23  H   -0.000005
    24  H   -0.001484
    25  H    0.000029
    26  H   -0.001479
    27  H   -0.000177
    28  H    0.000024
    29  H   -0.000264
    30  H   -0.013831
    31  H    0.699142
 Mulliken charges:
               1
     1  C    0.142170
     2  O   -0.371888
     3  C    0.258616
     4  C   -0.052022
     5  C   -0.012587
     6  C   -0.113825
     7  C   -0.014767
     8  C    0.111884
     9  N   -0.371236
    10  C    0.110396
    11  C    0.227349
    12  C   -0.081483
    13  C   -0.002611
    14  C   -0.021670
    15  C   -0.000103
    16  C   -0.098630
    17  H    0.034515
    18  H    0.054333
    19  H    0.035588
    20  H    0.012922
    21  H    0.014634
    22  H   -0.003336
    23  H    0.000608
    24  H    0.039589
    25  H    0.049467
    26  H    0.038903
    27  H    0.012642
    28  H    0.007695
    29  H    0.002088
    30  H    0.006976
    31  H   -0.016214
 Sum of Mulliken charges =  -0.00000
 Mulliken charges with hydrogens summed into heavy atoms:
               1
     1  C    0.266606
     2  O   -0.371888
     3  C    0.258616
     4  C   -0.039100
     5  C    0.002047
     6  C   -0.117161
     7  C   -0.014159
     8  C    0.111884
     9  N   -0.371236
    10  C    0.238355
    11  C    0.227349
    12  C   -0.068841
    13  C    0.005084
    14  C   -0.019582
    15  C    0.006872
    16  C   -0.114845
 Electronic spatial extent (au):  <R**2>=           4738.8233
 Charge=             -0.0000 electrons
 Dipole moment (field-independent basis, Debye):
    X=              1.5202    Y=              1.6346    Z=             -0.8188  Tot=              2.3777
 Quadrupole moment (field-independent basis, Debye-Ang):
   XX=            -85.0814   YY=            -88.6993   ZZ=            -95.5045
   XY=              0.5659   XZ=             -7.0130   YZ=             -0.5109
 Traceless Quadrupole moment (field-independent basis, Debye-Ang):
   XX=              4.6803   YY=              1.0624   ZZ=             -5.7427
   XY=              0.5659   XZ=             -7.0130   YZ=             -0.5109
 Octapole moment (field-independent basis, Debye-Ang**2):
  XXX=             70.4907  YYY=              6.4796  ZZZ=              3.5248  XYY=             -7.6210
  XXY=             10.0362  XXZ=            -26.4838  XZZ=             20.0131  YZZ=              0.2594
  YYZ=             -3.1637  XYZ=             -6.0189
 Hexadecapole moment (field-independent basis, Debye-Ang**3):
 XXXX=          -4568.5627 YYYY=           -867.5192 ZZZZ=           -317.7576 XXXY=             -6.7960
 XXXZ=           -158.6668 YYYX=            -10.7426 YYYZ=              6.8099 ZZZX=            -10.3888
 ZZZY=            -14.5383 XXYY=           -995.7505 XXZZ=           -949.6602 YYZZ=           -199.4644
 XXYZ=             25.9922 YYXZ=              3.9631 ZZXY=            -17.2555
 N-N= 1.019649862904D+03 E-N=-3.597187344582D+03  KE= 6.648175281870D+02
   1 Symmetry operations used in ECPInt.
 ECPInt:  NShTT=   10011 NPrTT=   36031 LenC2=    9186 LenP2D=   23967.
 LDataN:  DoStor=T MaxTD1= 5 Len=  102
 Calling FoFJK, ICntrl=      2127 FMM=F ISym2X=0 I1Cent= 0 IOpClX= 0 NMat=1 NMatS=1 NMatT=0.
 ***** Axes restored to original set *****
 -------------------------------------------------------------------
 Center     Atomic                   Forces (Hartrees/Bohr)
 Number     Number              X              Y              Z
 -------------------------------------------------------------------
      1        6          -0.005789481   -0.006504617    0.009368584
      2        8          -0.033513781    0.015084361   -0.003491053
      3        6           0.024563553   -0.011266056    0.002425833
      4        6           0.012119951   -0.004040602   -0.002078077
      5        6          -0.001711117    0.005281384   -0.002006793
      6        6           0.017641356   -0.006844658    0.003859701
      7        6          -0.014053639   -0.002274436    0.006082709
      8        6          -0.022307923    0.006828180   -0.003339144
      9        7           0.002489916   -0.005193403   -0.001945617
     10        6           0.000556413   -0.020255266   -0.002482828
     11        6           0.025920598    0.016543143    0.003755094
     12        6           0.005246920   -0.000463326   -0.001616068
     13        6          -0.000345191    0.001123199    0.000903068
     14        6          -0.008647806   -0.004188519   -0.000142088
     15        6          -0.000892646   -0.004187294   -0.001627386
     16        6           0.006473148    0.008712736    0.001699519
     17        1           0.003328060    0.008859592   -0.002613288
     18        1           0.002757049   -0.003628461    0.002957282
     19        1           0.000569975    0.000876077   -0.009727805
     20        1           0.003543147   -0.008107379    0.008076771
     21        1          -0.006688734   -0.004833469    0.007784969
     22        1           0.005310332    0.005508634   -0.008295687
     23        1          -0.001979620    0.007540095   -0.008636319
     24        1          -0.005205089    0.005453328    0.008448645
     25        1           0.005491483    0.000602148    0.000157866
     26        1          -0.006114396    0.005725234   -0.005862909
     27        1           0.009433953   -0.004740435   -0.002591551
     28        1           0.002537357   -0.009608200   -0.003173099
     29        1          -0.008196208   -0.006443367   -0.001004159
     30        1          -0.009304671    0.004218664    0.001991225
     31        1          -0.003232908    0.010222713    0.003122605
 -------------------------------------------------------------------
 Cartesian Forces:  Max     0.033513781 RMS     0.008615248

 GradGradGradGradGradGradGradGradGradGradGradGradGradGradGradGradGradGrad
 Berny optimization.
 FormGI is forming the generalized inverse of G from B-inverse, IUseBI=4.
 Internal  Forces:  Max     0.035905285 RMS     0.006471739
 Search for a local minimum.
 Step number   1 out of a maximum of  161
 All quantities printed in internal units (Hartrees-Bohrs-Radians)
 Mixed Optimization -- RFO/linear search
 Second derivative matrix not updated -- first step.
 ITU=  0
     Eigenvalues ---    0.00890   0.01129   0.01174   0.01416   0.01604
     Eigenvalues ---    0.01616   0.01876   0.01930   0.02057   0.02164
     Eigenvalues ---    0.02180   0.02241   0.02252   0.02260   0.02283
     Eigenvalues ---    0.02298   0.02302   0.02334   0.02337   0.02339
     Eigenvalues ---    0.02346   0.02355   0.02368   0.02375   0.07432
     Eigenvalues ---    0.07470   0.10346   0.10571   0.15998   0.15999
     Eigenvalues ---    0.16000   0.16000   0.16000   0.16000   0.16000
     Eigenvalues ---    0.16000   0.16000   0.16000   0.16000   0.16000
     Eigenvalues ---    0.16000   0.16000   0.16000   0.22000   0.22000
     Eigenvalues ---    0.22000   0.22955   0.23466   0.24000   0.24997
     Eigenvalues ---    0.24999   0.25000   0.25000   0.25000   0.25000
     Eigenvalues ---    0.34746   0.34746   0.34760   0.35000   0.35009
     Eigenvalues ---    0.35013   0.36254   0.36259   0.36272   0.36473
     Eigenvalues ---    0.36474   0.36541   0.36544   0.36566   0.36648
     Eigenvalues ---    0.36885   0.39705   0.42333   0.42671   0.43030
     Eigenvalues ---    0.43453   0.43714   0.44536   0.44688   0.46639
     Eigenvalues ---    0.46665   0.47291   0.47921   0.48383   0.49096
     Eigenvalues ---    0.49714   0.50141
 RFO step:  Lambda=-1.65684608D-02 EMin= 8.89663334D-03
 Linear search not attempted -- first point.
 Iteration  1 RMS(Cart)=  0.05720998 RMS(Int)=  0.00186899
 Iteration  2 RMS(Cart)=  0.00293750 RMS(Int)=  0.00015540
 Iteration  3 RMS(Cart)=  0.00000941 RMS(Int)=  0.00015531
 Iteration  4 RMS(Cart)=  0.00000001 RMS(Int)=  0.00015531
 Variable       Old X    -DE/DX   Delta X   Delta X   Delta X     New X
                                 (Linear)    (Quad)   (Total)
    R1        2.65819   0.00042   0.00000   0.00090   0.00090   2.65909
    R2        2.06089   0.00871   0.00000   0.02392   0.02392   2.08480
    R3        2.06066   0.00443   0.00000   0.01216   0.01216   2.07281
    R4        2.06090   0.00865   0.00000   0.02377   0.02377   2.08466
    R5        2.65640  -0.03591   0.00000  -0.07747  -0.07747   2.57892
    R6        2.63774   0.00241   0.00000   0.00465   0.00468   2.64241
    R7        2.63852   0.00259   0.00000   0.00525   0.00527   2.64379
    R8        2.59612   0.01336   0.00000   0.02553   0.02553   2.62165
    R9        2.03243   0.01198   0.00000   0.03135   0.03135   2.06379
   R10        2.62999   0.00993   0.00000   0.02054   0.02052   2.65052
   R11        2.03346   0.01128   0.00000   0.02957   0.02957   2.06303
   R12        2.59847   0.01878   0.00000   0.03655   0.03655   2.63501
   R13        2.03080   0.01099   0.00000   0.02869   0.02869   2.05949
   R14        2.63052   0.00462   0.00000   0.00987   0.00985   2.64037
   R15        2.03348   0.01151   0.00000   0.03018   0.03018   2.06366
   R16        2.71956  -0.01611   0.00000  -0.03895  -0.03895   2.68062
   R17        2.76020  -0.00752   0.00000  -0.01952  -0.01952   2.74068
   R18        2.68501  -0.02186   0.00000  -0.04970  -0.04970   2.63531
   R19        2.05653   0.01076   0.00000   0.02934   0.02934   2.08588
   R20        2.05661   0.00509   0.00000   0.01387   0.01387   2.07048
   R21        2.05675   0.00982   0.00000   0.02678   0.02678   2.08354
   R22        2.63635   0.01339   0.00000   0.02768   0.02767   2.66402
   R23        2.63711   0.01063   0.00000   0.02193   0.02192   2.65903
   R24        2.60095   0.01466   0.00000   0.02855   0.02855   2.62950
   R25        2.03239   0.01076   0.00000   0.02818   0.02818   2.06057
   R26        2.60969   0.01484   0.00000   0.02955   0.02955   2.63925
   R27        2.03679   0.01039   0.00000   0.02739   0.02739   2.06418
   R28        2.61012   0.01181   0.00000   0.02351   0.02352   2.63364
   R29        2.03658   0.01047   0.00000   0.02761   0.02761   2.06419
   R30        2.60220   0.01682   0.00000   0.03273   0.03273   2.63494
   R31        2.03686   0.01037   0.00000   0.02734   0.02734   2.06420
   R32        2.03205   0.01107   0.00000   0.02896   0.02896   2.06101
    A1        1.91869   0.00661   0.00000   0.03889   0.03850   1.95719
    A2        1.89458  -0.00738   0.00000  -0.04467  -0.04441   1.85017
    A3        1.91871   0.00666   0.00000   0.03918   0.03879   1.95750
    A4        1.90077  -0.00089   0.00000  -0.00793  -0.00768   1.89309
    A5        1.92991  -0.00430   0.00000  -0.01888  -0.01974   1.91016
    A6        1.90063  -0.00091   0.00000  -0.00809  -0.00783   1.89280
    A7        2.00324   0.01712   0.00000   0.06423   0.06423   2.06747
    A8        2.05017  -0.00912   0.00000  -0.03398  -0.03400   2.01616
    A9        2.17484   0.00216   0.00000   0.00835   0.00833   2.18317
   A10        2.05818   0.00696   0.00000   0.02563   0.02567   2.08385
   A11        2.11524  -0.00307   0.00000  -0.01362  -0.01363   2.10161
   A12        2.06221   0.00158   0.00000   0.00709   0.00706   2.06927
   A13        2.10574   0.00148   0.00000   0.00651   0.00649   2.11223
   A14        2.10564   0.00034   0.00000   0.00189   0.00184   2.10749
   A15        2.10406  -0.00142   0.00000  -0.00800  -0.00799   2.09607
   A16        2.07346   0.00108   0.00000   0.00615   0.00617   2.07963
   A17        2.10956  -0.00452   0.00000  -0.01844  -0.01844   2.09112
   A18        2.08969   0.00487   0.00000   0.02401   0.02398   2.11368
   A19        2.08393  -0.00035   0.00000  -0.00559  -0.00561   2.07831
   A20        2.10999   0.00057   0.00000   0.00417   0.00413   2.11412
   A21        2.10066  -0.00195   0.00000  -0.01145  -0.01145   2.08921
   A22        2.07243   0.00138   0.00000   0.00740   0.00741   2.07984
   A23        2.06776  -0.00029   0.00000   0.00037   0.00027   2.06803
   A24        2.10646   0.00118   0.00000   0.00369   0.00367   2.11013
   A25        2.10896  -0.00090   0.00000  -0.00411  -0.00412   2.10484
   A26        2.05854   0.00393   0.00000   0.01473   0.01471   2.07325
   A27        2.13030   0.00008   0.00000   0.00028   0.00026   2.13056
   A28        2.09432  -0.00402   0.00000  -0.01509  -0.01511   2.07921
   A29        1.92255   0.00498   0.00000   0.02912   0.02897   1.95151
   A30        1.92689  -0.00472   0.00000  -0.02904  -0.02885   1.89803
   A31        1.92406   0.00380   0.00000   0.02292   0.02274   1.94680
   A32        1.88726  -0.00079   0.00000  -0.00722  -0.00701   1.88025
   A33        1.90828  -0.00351   0.00000  -0.01544  -0.01590   1.89238
   A34        1.89413   0.00006   0.00000  -0.00141  -0.00126   1.89287
   A35        2.10020   0.00555   0.00000   0.02106   0.02104   2.12123
   A36        2.12225  -0.00663   0.00000  -0.02464  -0.02465   2.09760
   A37        2.06066   0.00108   0.00000   0.00341   0.00337   2.06402
   A38        2.11189  -0.00182   0.00000  -0.00783  -0.00784   2.10405
   A39        2.07632   0.00244   0.00000   0.01256   0.01257   2.08889
   A40        2.09490  -0.00062   0.00000  -0.00474  -0.00473   2.09016
   A41        2.09580   0.00319   0.00000   0.01412   0.01412   2.10991
   A42        2.09385  -0.00258   0.00000  -0.01260  -0.01261   2.08124
   A43        2.09354  -0.00062   0.00000  -0.00153  -0.00153   2.09201
   A44        2.09115  -0.00418   0.00000  -0.01684  -0.01683   2.07431
   A45        2.09596   0.00223   0.00000   0.00920   0.00919   2.10515
   A46        2.09607   0.00195   0.00000   0.00764   0.00763   2.10370
   A47        2.09838   0.00269   0.00000   0.01165   0.01165   2.11004
   A48        2.09190  -0.00038   0.00000  -0.00038  -0.00039   2.09151
   A49        2.09290  -0.00230   0.00000  -0.01126  -0.01127   2.08163
   A50        2.10848  -0.00097   0.00000  -0.00454  -0.00455   2.10393
   A51        2.08561   0.00197   0.00000   0.01067   0.01068   2.09628
   A52        2.08908  -0.00100   0.00000  -0.00613  -0.00612   2.08296
    D1        1.06303   0.00163   0.00000   0.01310   0.01397   1.07699
    D2        3.14048  -0.00002   0.00000  -0.00061  -0.00061   3.13988
    D3       -1.06540  -0.00167   0.00000  -0.01435  -0.01521  -1.08062
    D4       -3.14069  -0.00004   0.00000  -0.00128  -0.00130   3.14119
    D5        0.00097  -0.00010   0.00000  -0.00304  -0.00302  -0.00205
    D6       -3.14033  -0.00028   0.00000  -0.00714  -0.00704   3.13582
    D7        0.00278   0.00016   0.00000   0.00419   0.00424   0.00703
    D8        0.00120  -0.00023   0.00000  -0.00550  -0.00543  -0.00422
    D9       -3.13887   0.00022   0.00000   0.00582   0.00585  -3.13302
   D10        3.14043  -0.00033   0.00000  -0.00822  -0.00817   3.13226
   D11        0.00111   0.00012   0.00000   0.00306   0.00317   0.00429
   D12       -0.00109  -0.00039   0.00000  -0.00998  -0.00995  -0.01104
   D13       -3.14041   0.00006   0.00000   0.00131   0.00140  -3.13901
   D14        0.00152   0.00054   0.00000   0.01374   0.01375   0.01527
   D15       -3.13291   0.00030   0.00000   0.00782   0.00782  -3.12509
   D16        3.14155   0.00008   0.00000   0.00214   0.00219  -3.13944
   D17        0.00713  -0.00015   0.00000  -0.00378  -0.00374   0.00339
   D18       -0.00428  -0.00023   0.00000  -0.00639  -0.00645  -0.01073
   D19        3.14042   0.00038   0.00000   0.01089   0.01088  -3.13188
   D20        3.13027  -0.00000   0.00000  -0.00062  -0.00063   3.12964
   D21       -0.00822   0.00060   0.00000   0.01666   0.01670   0.00848
   D22       -0.00174   0.00070   0.00000   0.01739   0.01736   0.01562
   D23       -3.12766   0.00032   0.00000   0.00829   0.00827  -3.11940
   D24        3.13759   0.00026   0.00000   0.00618   0.00628  -3.13932
   D25        0.01166  -0.00012   0.00000  -0.00292  -0.00281   0.00885
   D26        0.00440  -0.00039   0.00000  -0.00906  -0.00913  -0.00473
   D27       -3.14031  -0.00099   0.00000  -0.02636  -0.02639   3.11649
   D28        3.13057  -0.00005   0.00000  -0.00028  -0.00025   3.13032
   D29       -0.01414  -0.00065   0.00000  -0.01757  -0.01751  -0.03165
   D30        2.15367  -0.00127   0.00000  -0.04241  -0.04246   2.11121
   D31       -0.98020  -0.00092   0.00000  -0.03052  -0.03047  -1.01067
   D32       -0.98474  -0.00064   0.00000  -0.02473  -0.02478  -1.00952
   D33        2.16458  -0.00030   0.00000  -0.01284  -0.01279   2.15179
   D34       -1.97922   0.00089   0.00000   0.01436   0.01462  -1.96460
   D35        0.10390   0.00008   0.00000   0.00556   0.00554   0.10944
   D36        2.19652  -0.00042   0.00000  -0.00006  -0.00030   2.19622
   D37        1.15481   0.00057   0.00000   0.00280   0.00306   1.15787
   D38       -3.04525  -0.00024   0.00000  -0.00601  -0.00603  -3.05128
   D39       -0.95263  -0.00075   0.00000  -0.01162  -0.01186  -0.96450
   D40       -0.21551  -0.00093   0.00000  -0.02981  -0.02975  -0.24526
   D41        2.94011  -0.00042   0.00000  -0.01566  -0.01562   2.92449
   D42        2.93396  -0.00061   0.00000  -0.01781  -0.01785   2.91611
   D43       -0.19361  -0.00010   0.00000  -0.00366  -0.00372  -0.19733
   D44       -3.13379   0.00018   0.00000   0.00416   0.00437  -3.12942
   D45       -0.00580   0.00015   0.00000   0.00388   0.00404  -0.00177
   D46       -0.00573  -0.00037   0.00000  -0.00973  -0.00973  -0.01546
   D47        3.12225  -0.00040   0.00000  -0.01001  -0.01006   3.11219
   D48        3.13432  -0.00024   0.00000  -0.00760  -0.00741   3.12691
   D49       -0.01426  -0.00022   0.00000  -0.00688  -0.00672  -0.02098
   D50        0.00644   0.00021   0.00000   0.00610   0.00612   0.01256
   D51        3.14105   0.00024   0.00000   0.00682   0.00681  -3.13532
   D52        0.00148   0.00022   0.00000   0.00574   0.00575   0.00723
   D53        3.14101  -0.00000   0.00000   0.00007   0.00006   3.14107
   D54       -3.12636   0.00023   0.00000   0.00589   0.00595  -3.12042
   D55        0.01317   0.00000   0.00000   0.00022   0.00026   0.01343
   D56        0.00222   0.00007   0.00000   0.00204   0.00200   0.00422
   D57       -3.14128  -0.00009   0.00000  -0.00220  -0.00222   3.13968
   D58       -3.13732   0.00030   0.00000   0.00773   0.00774  -3.12958
   D59        0.00237   0.00014   0.00000   0.00349   0.00351   0.00588
   D60       -0.00150  -0.00022   0.00000  -0.00563  -0.00564  -0.00715
   D61        3.14029  -0.00012   0.00000  -0.00337  -0.00332   3.13697
   D62       -3.14118  -0.00006   0.00000  -0.00140  -0.00142   3.14058
   D63        0.00061   0.00004   0.00000   0.00087   0.00090   0.00151
   D64       -0.00292   0.00008   0.00000   0.00149   0.00155  -0.00137
   D65       -3.13751   0.00005   0.00000   0.00070   0.00080  -3.13672
   D66        3.13847  -0.00002   0.00000  -0.00078  -0.00076   3.13771
   D67        0.00388  -0.00006   0.00000  -0.00157  -0.00151   0.00237
         Item               Value     Threshold  Converged?
 Maximum Force            0.035905     0.000450     NO 
 RMS     Force            0.006472     0.000300     NO 
 Maximum Displacement     0.281786     0.001800     NO 
 RMS     Displacement     0.058804     0.001200     NO 
 Predicted change in Energy=-8.748557D-03
 GradGradGradGradGradGradGradGradGradGradGradGradGradGradGradGradGradGrad

                          Input orientation:                          
 ---------------------------------------------------------------------
 Center     Atomic      Atomic             Coordinates (Angstroms)
 Number     Number       Type             X           Y           Z
 ---------------------------------------------------------------------
      1          6           0        5.269621   -0.304870   -0.674706
      2          8           0        4.297510   -0.764624    0.232839
      3          6           0        3.031770   -0.263029    0.139418
      4          6           0        2.115706   -0.762349    1.070421
      5          6           0        0.801860   -0.316868    1.071405
      6          6           0        2.610571    0.687778   -0.796455
      7          6           0        1.283723    1.116474   -0.800069
      8          6           0        0.363678    0.626208    0.130199
      9          7           0       -0.975944    1.092668    0.135630
     10          6           0       -1.220427    2.512568    0.301464
     11          6           0       -2.061991    0.226961    0.009901
     12          6           0       -1.896671   -1.106155   -0.417698
     13          6           0       -2.996554   -1.948173   -0.549803
     14          6           0       -4.286675   -1.491547   -0.271136
     15          6           0       -4.458583   -0.170704    0.138879
     16          6           0       -3.365472    0.683508    0.279027
     17          1           0        5.446964    0.779873   -0.579846
     18          1           0        6.196527   -0.832216   -0.417976
     19          1           0        5.009603   -0.544467   -1.719665
     20          1           0        2.461126   -1.498005    1.799941
     21          1           0        0.094880   -0.698754    1.810441
     22          1           0        3.300408    1.093825   -1.536041
     23          1           0        0.951880    1.843147   -1.544633
     24          1           0       -1.713402    2.734223    1.263865
     25          1           0       -0.259654    3.039093    0.289647
     26          1           0       -1.847902    2.913057   -0.511877
     27          1           0       -0.899773   -1.476099   -0.659206
     28          1           0       -2.843949   -2.977105   -0.883220
     29          1           0       -5.147136   -2.155885   -0.378059
     30          1           0       -5.460999    0.204557    0.356866
     31          1           0       -3.528645    1.711129    0.605935
 ---------------------------------------------------------------------
                    Distance matrix (angstroms):
                    1          2          3          4          5
     1  C    0.000000
     2  O    1.407129   0.000000
     3  C    2.381707   1.364707   0.000000
     4  C    3.633447   2.337053   1.398306   0.000000
     5  C    4.796868   3.622602   2.417436   1.387316   0.000000
     6  C    2.840901   2.452485   1.399035   2.415157   2.787410
     7  C    4.233594   3.699776   2.416884   2.778651   2.406050
     8  C    5.057970   4.173725   2.812390   2.425224   1.402593
     9  N    6.451112   5.591806   4.230803   3.724677   2.454191
    10  C    7.142240   6.418125   5.080489   4.737737   3.562044
    11  C    7.382688   6.440202   5.118912   4.422283   3.102287
    12  C    7.215529   6.237605   5.030980   4.293235   3.181583
    13  C    8.428861   7.430793   6.297255   5.492404   4.440430
    14  C    9.638146   8.629637   7.432189   6.581943   5.392168
    15  C    9.763088   8.776715   7.490921   6.666265   5.344457
    16  C    8.743645   7.798750   6.468394   5.723645   4.358356
    17  H    1.103230   2.089778   2.727297   4.024812   5.050392
    18  H    1.096886   2.008580   3.263488   4.344342   5.620167
    19  H    1.103157   2.089933   2.728960   4.025753   5.054402
    20  H    3.928753   2.523086   2.146657   1.092111   2.163103
    21  H    5.754046   4.489462   3.406977   2.153001   1.091710
    22  H    2.564380   2.752632   2.172644   3.412117   3.877058
    23  H    4.900371   4.599252   3.405576   3.870608   3.395855
    24  H    7.858548   7.031075   5.724033   5.188980   3.958881
    25  H    6.533372   5.936264   4.664766   4.550044   3.605611
    26  H    7.812856   7.200419   5.858575   5.632270   4.467710
    27  H    6.279605   5.321061   4.191225   3.548825   2.689681
    28  H    8.544843   7.559173   6.552562   5.772351   4.918267
    29  H   10.584096   9.566093   8.411016   7.535842   6.393238
    30  H   10.792121   9.807303   8.508410   7.671410   6.325018
    31  H    9.116676   8.216889   6.866875   6.180011   4.804447
                    6          7          8          9         10
     6  C    0.000000
     7  C    1.394389   0.000000
     8  C    2.431256   1.397226   0.000000
     9  N    3.727708   2.445852   1.418521   0.000000
    10  C    4.383130   3.071355   2.469225   1.450306   0.000000
    11  C    4.763969   3.555431   2.461248   1.394545   2.453006
    12  C    4.865890   3.898871   2.900078   2.447188   3.750953
    13  C    6.200720   5.270244   4.287307   3.714754   4.876217
    14  C    7.252408   6.173400   5.125596   4.219545   5.075695
    15  C    7.182255   5.959239   4.887673   3.704712   4.208567
    16  C    6.072048   4.792382   3.732559   2.428542   2.819075
    17  H    2.846142   4.182628   5.134936   6.470200   6.945001
    18  H    3.913145   5.298965   6.037352   7.446878   8.168009
    19  H    2.850631   4.181693   5.135863   6.476812   7.227980
    20  H    3.397242   3.870637   3.420469   4.614647   5.646588
    21  H    3.879056   3.394578   2.156615   2.675976   3.784128
    22  H    1.089834   2.146902   3.408725   4.591478   5.082048
    23  H    2.155436   1.092039   2.152204   2.665147   2.928330
    24  H    5.208609   3.982423   3.169099   2.124021   1.103799
    25  H    3.866069   2.695544   2.497194   2.079751   1.095652
    26  H    4.991076   3.621856   3.245463   2.119762   1.102561
    27  H    4.125981   3.392482   2.576657   2.690005   4.115236
    28  H    6.571963   5.813947   4.929479   4.592445   5.846008
    29  H    8.273059   7.227889   6.194146   5.311856   6.138017
    30  H    8.167858   6.903722   5.844317   4.577489   4.828296
    31  H    6.379963   5.048698   4.068607   2.668326   2.462292
                   11         12         13         14         15
    11  C    0.000000
    12  C    1.409741   0.000000
    13  C    2.432671   1.391470   0.000000
    14  C    2.825149   2.425309   1.396629   0.000000
    15  C    2.432781   2.783566   2.402334   1.393661   0.000000
    16  C    1.407098   2.417787   2.783667   2.425316   1.394350
    17  H    7.552346   7.583691   8.873338   9.999918   9.976975
    18  H    8.337149   8.097833   9.261505  10.504941  10.690138
    19  H    7.320788   7.050335   8.212035   9.456001   9.656108
[...]
    17  H   -0.000946   0.000320   0.000002   0.000002  -0.000001   0.000001
    18  H    0.000273  -0.000052   0.000000   0.000000   0.000000   0.000000
    19  H   -0.000433  -0.000082  -0.000003  -0.000001   0.000002  -0.000005
    20  H   -0.007528   0.016511  -0.000178  -0.000006  -0.000016  -0.000089
    21  H    0.013934  -0.050178  -0.004301  -0.000051   0.002269   0.000520
    22  H   -0.016808   0.010978  -0.000387   0.000031  -0.000040   0.000007
    23  H    0.420581  -0.043628   0.005512  -0.001159   0.001684  -0.000284
    24  H    0.004839  -0.005916  -0.053688   0.408701  -0.001929   0.000483
    25  H   -0.006005  -0.004370  -0.029159   0.407057   0.007859  -0.000444
    26  H   -0.001987   0.014312  -0.044420   0.412730  -0.010638   0.000022
    27  H   -0.000867   0.001340  -0.006527  -0.000484  -0.044472   0.431116
    28  H   -0.000019   0.000155  -0.000160   0.000019   0.013212  -0.055497
    29  H    0.000001  -0.000003   0.000024  -0.000001  -0.003604   0.012190
    30  H    0.000000   0.000026  -0.000111  -0.000012   0.013394  -0.002807
    31  H    0.000008  -0.000556  -0.004878   0.004355  -0.054691   0.003361
              13         14         15         16         17         18
     1  C   -0.000000   0.000000  -0.000000   0.000000   0.412346   0.401413
     2  O    0.000001  -0.000000   0.000000  -0.000000  -0.041610  -0.030404
     3  C   -0.000029   0.000003  -0.000004   0.000119  -0.017211   0.006868
     4  C   -0.000077  -0.000002   0.000075  -0.001023   0.000632  -0.000419
     5  C    0.002006  -0.000015   0.000349  -0.000801  -0.000336   0.000111
     6  C   -0.000181   0.000012  -0.000021   0.000101   0.013040  -0.002520
     7  C    0.000453   0.000090  -0.000141   0.001438  -0.000946   0.000273
     8  C   -0.001758  -0.000066  -0.000159   0.008299   0.000320  -0.000052
     9  N    0.003855   0.000319   0.002232  -0.091899   0.000002   0.000000
    10  C   -0.000163   0.000230  -0.002038  -0.011326   0.000002   0.000000
    11  C   -0.014516  -0.068775  -0.006749   0.391415  -0.000001   0.000000
    12  C    0.470460  -0.002669  -0.056433   0.025035   0.000001   0.000000
    13  C    4.912764   0.456448  -0.000271  -0.072254   0.000000   0.000000
    14  C    0.456448   4.947881   0.476903   0.011372  -0.000000  -0.000000
    15  C   -0.000271   0.476903   4.859867   0.459219   0.000000  -0.000000
    16  C   -0.072254   0.011372   0.459219   5.192018  -0.000000   0.000000
    17  H    0.000000  -0.000000   0.000000  -0.000000   0.587311  -0.019758
    18  H    0.000000  -0.000000  -0.000000   0.000000  -0.019758   0.522634
    19  H   -0.000000   0.000000  -0.000000   0.000000  -0.055924  -0.019597
    20  H   -0.000013  -0.000000   0.000000  -0.000001   0.000098  -0.000202
    21  H    0.000028  -0.000010  -0.000023   0.000833  -0.000002   0.000000
    22  H    0.000000  -0.000000   0.000000  -0.000003   0.000889  -0.000359
    23  H   -0.000021   0.000007  -0.000009   0.000023  -0.000045   0.000001
    24  H   -0.000217   0.000147  -0.001269   0.007207  -0.000000   0.000000
    25  H    0.000051  -0.000016   0.000104   0.000476   0.000002  -0.000000
    26  H    0.000048  -0.000265   0.001872  -0.000483  -0.000000  -0.000000
    27  H   -0.041728   0.007438  -0.001918   0.007321  -0.000001  -0.000000
    28  H    0.439406  -0.057550   0.010781  -0.003255   0.000000   0.000000
    29  H   -0.060104   0.447024  -0.059766   0.013005  -0.000000   0.000000
    30  H    0.010200  -0.055425   0.436683  -0.055778   0.000000  -0.000000
    31  H   -0.000439   0.005278  -0.020368   0.426567  -0.000000   0.000000
              19         20         21         22         23         24
     1  C    0.413602  -0.000159   0.000019   0.009498  -0.000118   0.000000
     2  O   -0.041507   0.008552  -0.000105  -0.006100  -0.000069   0.000000
     3  C   -0.016251  -0.079486   0.013897  -0.069174   0.006980   0.000107
     4  C    0.000576   0.453650  -0.057711   0.003981  -0.002088  -0.001392
     5  C    0.000014  -0.060471   0.446203  -0.001470   0.009462  -0.000068
     6  C    0.011107   0.020977  -0.005573   0.428076  -0.035231   0.000476
     7  C   -0.000433  -0.007528   0.013934  -0.016808   0.420581   0.004839
     8  C   -0.000082   0.016511  -0.050178   0.010978  -0.043628  -0.005916
     9  N   -0.000003  -0.000178  -0.004301  -0.000387   0.005512  -0.053688
    10  C   -0.000001  -0.000006  -0.000051   0.000031  -0.001159   0.408701
    11  C    0.000002  -0.000016   0.002269  -0.000040   0.001684  -0.001929
    12  C   -0.000005  -0.000089   0.000520   0.000007  -0.000284   0.000483
    13  C   -0.000000  -0.000013   0.000028   0.000000  -0.000021  -0.000217
    14  C    0.000000  -0.000000  -0.000010  -0.000000   0.000007   0.000147
    15  C   -0.000000   0.000000  -0.000023   0.000000  -0.000009  -0.001269
    16  C    0.000000  -0.000001   0.000833  -0.000003   0.000023   0.007207
    17  H   -0.055924   0.000098  -0.000002   0.000889  -0.000045  -0.000000
    18  H   -0.019597  -0.000202   0.000000  -0.000359   0.000001   0.000000
    19  H    0.585068   0.000135  -0.000000   0.000722   0.000013   0.000000
    20  H    0.000135   0.531547  -0.008371  -0.000000   0.000027   0.000001
    21  H   -0.000000  -0.008371   0.511378  -0.000002  -0.000151   0.000479
    22  H    0.000722  -0.000000  -0.000002   0.511987  -0.005344  -0.000010
    23  H    0.000013   0.000027  -0.000151  -0.005344   0.515639   0.000416
    24  H    0.000000   0.000001   0.000479  -0.000010   0.000416   0.588930
    25  H   -0.000000   0.000006  -0.000162   0.000038  -0.001288  -0.024397
    26  H    0.000000  -0.000000  -0.000034   0.000009  -0.000724  -0.050518
    27  H    0.000009   0.000010  -0.000158  -0.000006   0.000061   0.000042
    28  H   -0.000000   0.000000  -0.000001   0.000000  -0.000000  -0.000001
    29  H    0.000000   0.000000   0.000001  -0.000000   0.000000   0.000001
    30  H   -0.000000  -0.000000  -0.000001  -0.000000  -0.000000  -0.000006
    31  H    0.000000   0.000000  -0.000003  -0.000000   0.000008   0.001770
              25         26         27         28         29         30
     1  C   -0.000002  -0.000000  -0.000001  -0.000000   0.000000  -0.000000
     2  O   -0.000001   0.000000  -0.000026   0.000000  -0.000000   0.000000
     3  C   -0.000309  -0.000050   0.000411  -0.000004   0.000000  -0.000000
     4  C    0.000672   0.000239  -0.000335   0.000006  -0.000000  -0.000000
     5  C    0.000260  -0.000072  -0.000622  -0.000036   0.000001  -0.000002
     6  C   -0.000965  -0.000500   0.000471   0.000002  -0.000000   0.000000
     7  C   -0.006005  -0.001987  -0.000867  -0.000019   0.000001   0.000000
     8  C   -0.004370   0.014312   0.001340   0.000155  -0.000003   0.000026
     9  N   -0.029159  -0.044420  -0.006527  -0.000160   0.000024  -0.000111
    10  C    0.407057   0.412730  -0.000484   0.000019  -0.000001  -0.000012
    11  C    0.007859  -0.010638  -0.044472   0.013212  -0.003604   0.013394
    12  C   -0.000444   0.000022   0.431116  -0.055497   0.012190  -0.002807
    13  C    0.000051   0.000048  -0.041728   0.439406  -0.060104   0.010200
    14  C   -0.000016  -0.000265   0.007438  -0.057550   0.447024  -0.055425
    15  C    0.000104   0.001872  -0.001918   0.010781  -0.059766   0.436683
    16  C    0.000476  -0.000483   0.007321  -0.003255   0.013005  -0.055778
    17  H    0.000002  -0.000000  -0.000001   0.000000  -0.000000   0.000000
    18  H   -0.000000  -0.000000  -0.000000   0.000000   0.000000  -0.000000
    19  H   -0.000000   0.000000   0.000009  -0.000000   0.000000  -0.000000
    20  H    0.000006  -0.000000   0.000010   0.000000   0.000000  -0.000000
    21  H   -0.000162  -0.000034  -0.000158  -0.000001   0.000001  -0.000001
    22  H    0.000038   0.000009  -0.000006   0.000000  -0.000000  -0.000000
    23  H   -0.001288  -0.000724   0.000061  -0.000000   0.000000  -0.000000
    24  H   -0.024397  -0.050518   0.000042  -0.000001   0.000001  -0.000006
    25  H    0.517025  -0.014569  -0.000012  -0.000000  -0.000000  -0.000000
    26  H   -0.014569   0.567040  -0.000003  -0.000000  -0.000001  -0.000018
    27  H   -0.000012  -0.000003   0.508776  -0.007177  -0.000108   0.000030
    28  H   -0.000000  -0.000000  -0.007177   0.553842  -0.007008  -0.000184
    29  H   -0.000000  -0.000001  -0.000108  -0.007008   0.554552  -0.007077
    30  H   -0.000000  -0.000018   0.000030  -0.000184  -0.007077   0.555830
    31  H    0.000491  -0.006354  -0.000157   0.000040  -0.000155  -0.006850
              31
     1  C    0.000000
     2  O    0.000000
     3  C    0.000000
     4  C   -0.000011
     5  C    0.000048
     6  C    0.000011
     7  C    0.000008
     8  C   -0.000556
     9  N   -0.004878
    10  C    0.004355
    11  C   -0.054691
    12  C    0.003361
    13  C   -0.000439
    14  C    0.005278
    15  C   -0.020368
    16  C    0.426567
    17  H   -0.000000
    18  H    0.000000
    19  H    0.000000
    20  H    0.000000
    21  H   -0.000003
    22  H   -0.000000
    23  H    0.000008
    24  H    0.001770
    25  H    0.000491
    26  H   -0.006354
    27  H   -0.000157
    28  H    0.000040
    29  H   -0.000155
    30  H   -0.006850
    31  H    0.524642
 Mulliken charges:
               1
     1  C   -0.209134
     2  O   -0.284025
     3  C    0.346890
     4  C   -0.149575
     5  C   -0.252833
     6  C   -0.199452
     7  C   -0.261604
     8  C    0.133799
     9  N   -0.059264
    10  C   -0.308835
    11  C    0.239078
    12  C   -0.247322
    13  C   -0.103949
    14  C   -0.168359
    15  C   -0.098917
    16  C   -0.307624
    17  H    0.121190
    18  H    0.142009
    19  H    0.122556
    20  H    0.125007
    21  H    0.137278
    22  H    0.133488
    23  H    0.129745
    24  H    0.125811
    25  H    0.147659
    26  H    0.134363
    27  H    0.147573
    28  H    0.113429
    29  H    0.111027
    30  H    0.112109
    31  H    0.127883
 Sum of Mulliken charges =  -0.00000
 Mulliken charges with hydrogens summed into heavy atoms:
               1
     1  C    0.176621
     2  O   -0.284025
     3  C    0.346890
     4  C   -0.024567
     5  C   -0.115555
     6  C   -0.065965
     7  C   -0.131859
     8  C    0.133799
     9  N   -0.059264
    10  C    0.098999
    11  C    0.239078
    12  C   -0.099749
    13  C    0.009480
    14  C   -0.057332
    15  C    0.013192
    16  C   -0.179741
 Electronic spatial extent (au):  <R**2>=           4711.3057
 Charge=              0.0000 electrons
 Dipole moment (field-independent basis, Debye):
    X=              2.2794    Y=              1.2075    Z=             -0.6756  Tot=              2.6665
 Quadrupole moment (field-independent basis, Debye-Ang):
   XX=            -84.3922   YY=            -90.3594   ZZ=            -95.1946
   XY=             -1.9584   XZ=             -7.1902   YZ=             -0.1342
 Traceless Quadrupole moment (field-independent basis, Debye-Ang):
   XX=              5.5898   YY=             -0.3773   ZZ=             -5.2125
   XY=             -1.9584   XZ=             -7.1902   YZ=             -0.1342
 Octapole moment (field-independent basis, Debye-Ang**2):
  XXX=             85.5357  YYY=              3.3178  ZZZ=              4.5984  XYY=             -6.7011
  XXY=             -1.0929  XXZ=            -19.8405  XZZ=             23.5170  YZZ=              1.5151
  YYZ=             -4.1951  XYZ=             -5.6189
 Hexadecapole moment (field-independent basis, Debye-Ang**3):
 XXXX=          -4534.5323 YYYY=           -855.1982 ZZZZ=           -363.4327 XXXY=            -55.2096
 XXXZ=           -154.0490 YYYX=            -12.4145 YYYZ=              9.4248 ZZZX=             -4.9115
 ZZZY=            -19.1895 XXYY=           -976.7704 XXZZ=           -963.2924 YYZZ=           -211.7510
 XXYZ=             20.0842 YYXZ=              5.0337 ZZXY=            -19.9438
 N-N= 1.019407434783D+03 E-N=-3.602183594430D+03  KE= 6.688040545410D+02
 Breneman (CHELPG) radii used.
 Read replacement radii for each type of atom:
 Atom Element Radius
    1     6    1.50
    2     8    1.70
    3     6    1.50
    4     6    1.50
    5     6    1.50
    6     6    1.50
    7     6    1.50
    8     6    1.50
    9     7    1.70
   10     6    1.50
   11     6    1.50
   12     6    1.50
   13     6    1.50
   14     6    1.50
   15     6    1.50
   16     6    1.50
   17     1    1.45
   18     1    1.45
   19     1    1.45
   20     1    1.45
   21     1    1.45
   22     1    1.45
   23     1    1.45
   24     1    1.45
   25     1    1.45
   26     1    1.45
   27     1    1.45
   28     1    1.45
   29     1    1.45
   30     1    1.45
   31     1    1.45
 Generate Potential Derived Charges using the Breneman model, NDens= 1.
 Grid spacing= 0.300 Box extension= 2.800
 NStep X,Y,Z=   59     40     34   Total possible points=       80240
 Number of Points to Fit=   19096

 **********************************************************************

            Electrostatic Properties Using The SCF Density.

 **********************************************************************

       Atomic Center    1 is at   5.225528 -0.568268 -0.510172
       Atomic Center    2 is at   4.243867 -0.786790  0.464685
       Atomic Center    3 is at   3.001124 -0.299611  0.264559
       Atomic Center    4 is at   2.064536 -0.558834  1.277134
       Atomic Center    5 is at   0.765352 -0.091070  1.165810
       Atomic Center    6 is at   2.607112  0.426914 -0.863177
       Atomic Center    7 is at   1.288774  0.875794 -0.971312
       Atomic Center    8 is at   0.357251  0.633026  0.035262
       Atomic Center    9 is at  -0.969421  1.134006 -0.074781
       Atomic Center   10 is at  -1.174543  2.542788  0.177291
       Atomic Center   11 is at  -2.053543  0.263138 -0.090549
       Atomic Center   12 is at  -1.883827 -1.095399 -0.432367
       Atomic Center   13 is at  -2.970583 -1.959219 -0.470805
       Atomic Center   14 is at  -4.259919 -1.509547 -0.179415
       Atomic Center   15 is at  -4.437080 -0.170247  0.153926
       Atomic Center   16 is at  -3.356332  0.708982  0.203813
       Atomic Center   17 is at   5.418886  0.508017 -0.664211
       Atomic Center   18 is at   6.143914 -1.043548 -0.144678
       Atomic Center   19 is at   4.950903 -1.022326 -1.478566
       Atomic Center   20 is at   2.390052 -1.125883  2.150843
       Atomic Center   21 is at   0.040805 -0.293027  1.957817
       Atomic Center   22 is at   3.307545  0.640697 -1.670518
       Atomic Center   23 is at   0.974497  1.426527 -1.860625
       Atomic Center   24 is at  -1.520410  2.747698  1.209065
       Atomic Center   25 is at  -0.225333  3.072663  0.029798
       Atomic Center   26 is at  -1.913334  2.967424 -0.521315
       Atomic Center   27 is at  -0.888469 -1.468744 -0.676580
       Atomic Center   28 is at  -2.805182 -3.005015 -0.741272
       Atomic Center   29 is at  -5.109823 -2.193433 -0.213272
       Atomic Center   30 is at  -5.435463  0.207203  0.388495
       Atomic Center   31 is at  -3.536673  1.747336  0.481019
   19096 points will be used for fitting atomic charges
 Fitting point charges to electrostatic potential
 Charges from ESP fit, RMS=   0.00371 RRMS=   0.32268:
 ESP charges:
               1
     1  C    0.139507
     2  O   -0.365005
     3  C    0.407051
     4  C   -0.321494
     5  C   -0.047501
     6  C   -0.270517
     7  C   -0.157486
     8  C    0.247518
     9  N   -0.406870
    10  C    0.078968
    11  C    0.369813
    12  C   -0.238681
    13  C   -0.046484
    14  C   -0.186835
    15  C   -0.054739
    16  C   -0.257489
    17  H    0.006379
    18  H    0.053576
    19  H    0.011992
    20  H    0.151657
    21  H    0.085258
    22  H    0.137739
    23  H    0.124792
    24  H    0.011614
    25  H    0.018933
    26  H    0.028449
    27  H    0.079164
    28  H    0.094160
    29  H    0.100261
    30  H    0.089687
    31  H    0.116583
 Sum of ESP charges =   0.00000
 ESP charges with hydrogens summed into heavy atoms:
               1
     1  C    0.211454
     2  O   -0.365005
     3  C    0.407051
     4  C   -0.169837
     5  C    0.037757
     6  C   -0.132779
     7  C   -0.032694
     8  C    0.247518
     9  N   -0.406870
    10  C    0.137964
    11  C    0.369813
    12  C   -0.159516
    13  C    0.047677
    14  C   -0.086575
    15  C    0.034948
    16  C   -0.140906
 Charge=   0.00000 Dipole=     2.1996     1.2225    -0.7117 Tot=     2.6151
 -----------------------------------------------------------------

              Electrostatic Properties (Atomic Units)

 -----------------------------------------------------------------
    Center     Electric         -------- Electric Field --------
               Potential          X             Y             Z
 -----------------------------------------------------------------
    1 Atom    -14.709114
    2 Atom    -22.320629
    3 Atom    -14.703085
    4 Atom    -14.769087
    5 Atom    -14.765658
    6 Atom    -14.764446
    7 Atom    -14.764424
    8 Atom    -14.735001
    9 Atom    -18.365352
   10 Atom    -14.738920
   11 Atom    -14.732315
   12 Atom    -14.784734
   13 Atom    -14.779232
   14 Atom    -14.788456
   15 Atom    -14.778559
   16 Atom    -14.782773
   17 Atom     -1.101527
   18 Atom     -1.100012
   19 Atom     -1.101605
   20 Atom     -1.101823
   21 Atom     -1.102200
   22 Atom     -1.093976
   23 Atom     -1.100157
   24 Atom     -1.117855
   25 Atom     -1.107671
   26 Atom     -1.113909
   27 Atom     -1.118038
   28 Atom     -1.118661
   29 Atom     -1.121582
   30 Atom     -1.117763
   31 Atom     -1.114138
 -----------------------------------------------------------------
 Unable to Open any file for archive entry.
 1\1\GINC-NOTCH445\SP\RwB97XD\def2TZVP\C14H15N1O1\U1366379\17-Feb-2026\
 0\\#N Guess=Read Geom=Check Integral(Ultrafine) Density Pop=(ChelpG,Re
 adRadii) NMR wB97XD def2TZVP\\prod_5e_2\\0,1\C,0,5.230540111,-0.378917
 0981,-0.6527146019\O,0,4.2657718501,-0.7181091052,0.3043269623\C,0,3.0
 122913176,-0.2354913526,0.1713989748\C,0,2.0937858451,-0.6183261169,1.
 1610883845\C,0,0.7853866303,-0.1655074007,1.115018\C,0,2.5909466108,0.
 5995303864,-0.8678702489\C,0,1.2637659136,1.0328814519,-0.9125678249\C
 ,0,0.3499615488,0.6671380036,0.0728535956\N,0,-0.9864743414,1.15233342
 9,0.0319108929\C,0,-1.2124488648,2.5222368646,0.4351242177\C,0,-2.0555
 663537,0.2681669126,-0.0643803983\C,0,-1.8670417152,-1.0428881353,-0.5
 510612288\C,0,-2.9391885749,-1.9176829265,-0.6691107696\C,0,-4.2321005
 725,-1.5255363932,-0.3168325851\C,0,-4.4278503053,-0.2328402649,0.1594
 524713\C,0,-3.3618223997,0.6559433335,0.2905959005\H,0,5.4032961187,0.
 711044186,-0.6932491842\H,0,6.1617236255,-0.8733149552,-0.3504281592\H
 ,0,4.9509742782,-0.7323187663,-1.6608439587\H,0,2.4405449117,-1.269032
 6493,1.9655838085\H,0,0.0749681598,-0.464006096,1.8891192807\H,0,3.276
 8511232,0.9109713076,-1.6556828743\H,0,0.9283174068,1.6692371304,-1.73
 44443369\H,0,-1.5481035928,2.6097119414,1.486719488\H,0,-0.2745304578,
 3.0822865393,0.3342518159\H,0,-1.9676172997,3.0050723316,-0.2057879813
 \H,0,-0.8687272898,-1.3696208659,-0.8449633146\H,0,-2.7594136816,-2.92
 55034677,-1.0514436391\H,0,-5.0704865909,-2.2175519762,-0.4138163945\H
 ,0,-5.4293864183,0.0989426593,0.4442384355\H,0,-3.5563169925,1.6553710
 925,0.6790052721\\Version=ES64L-G16RevC.01\State=1-A\HF=-672.4928682\R
 MSD=1.277e-09\Dipole=0.8848901,0.5171799,-0.2237349\Quadrupole=4.06185
 18,-0.331163,-3.7306888,-0.7933705,-5.564341,0.1907358\PG=C01 [X(C14H1
 5N1O1)]\\@
 The archive entry for this job was punched.


 SCIENCE AND PEACE WILL TRIUMPH OVER IGNORANCE AND WAR

                          -- PASTEUR
 Job cpu time:       0 days  0 hours 47 minutes  7.5 seconds.
 Elapsed time:       0 days  0 hours  6 minutes  4.7 seconds.
 File lengths (MBytes):  RWF=    209 Int=      0 D2E=      0 Chk=     32 Scr=      2
 Normal termination of Gaussian 16 at Tue Feb 17 16:18:10 2026.
