 Entering Gaussian System, Link 0=g16
 Input=prod_5l_19.com
 Output=prod_5l_19.log
 Initial command:
 /uufs/chpc.utah.edu/sys/installdir/gaussian16/C01/AVX/g16/l1.exe "/scratch/general/vast/u1366379/GAUSSSCRDIR/11028693-notchpeak.peaks/Gau-1520485.inp" -scrdir="/scratch/general/vast/u1366379/GAUSSSCRDIR/11028693-notchpeak.peaks/"
 Entering Link 1 = /uufs/chpc.utah.edu/sys/installdir/gaussian16/C01/AVX/g16/l1.exe PID=   1520517.
  
 Copyright (c) 1988-2019, Gaussian, Inc.  All Rights Reserved.
  
 This is part of the Gaussian(R) 16 program.  It is based on
 the Gaussian(R) 09 system (copyright 2009, Gaussian, Inc.),
 the Gaussian(R) 03 system (copyright 2003, Gaussian, Inc.),
 the Gaussian(R) 98 system (copyright 1998, Gaussian, Inc.),
 the Gaussian(R) 94 system (copyright 1995, Gaussian, Inc.),
 the Gaussian 92(TM) system (copyright 1992, Gaussian, Inc.),
 the Gaussian 90(TM) system (copyright 1990, Gaussian, Inc.),
 the Gaussian 88(TM) system (copyright 1988, Gaussian, Inc.),
 the Gaussian 86(TM) system (copyright 1986, Carnegie Mellon
 University), and the Gaussian 82(TM) system (copyright 1983,
 Carnegie Mellon University). Gaussian is a federally registered
 trademark of Gaussian, Inc.
  
 This software contains proprietary and confidential information,
 including trade secrets, belonging to Gaussian, Inc.
  
 This software is provided under written license and may be
 used, copied, transmitted, or stored only in accord with that
 written license.
  
 The following legend is applicable only to US Government
 contracts under FAR:
  
                    RESTRICTED RIGHTS LEGEND
  
 Use, reproduction and disclosure by the US Government is
 subject to restrictions as set forth in subparagraphs (a)
 and (c) of the Commercial Computer Software - Restricted
 Rights clause in FAR 52.227-19.
  
 Gaussian, Inc.
 340 Quinnipiac St., Bldg. 40, Wallingford CT 06492
  
  
 ---------------------------------------------------------------
 Warning -- This program may not be used in any manner that
 competes with the business of Gaussian, Inc. or will provide
 assistance to any competitor of Gaussian, Inc.  The licensee
 of this program is prohibited from giving any competitor of
 Gaussian, Inc. access to this program.  By using this program,
 the user acknowledges that Gaussian, Inc. is engaged in the
 business of creating and licensing software in the field of
 computational chemistry and represents and warrants to the
 licensee that it is not a competitor of Gaussian, Inc. and that
 it will not use this program in any manner prohibited above.
 ---------------------------------------------------------------
  

 Cite this work as:
 Gaussian 16, Revision C.01,
 M. J. Frisch, G. W. Trucks, H. B. Schlegel, G. E. Scuseria, 
 M. A. Robb, J. R. Cheeseman, G. Scalmani, V. Barone, 
 G. A. Petersson, H. Nakatsuji, X. Li, M. Caricato, A. V. Marenich, 
 J. Bloino, B. G. Janesko, R. Gomperts, B. Mennucci, H. P. Hratchian, 
 J. V. Ortiz, A. F. Izmaylov, J. L. Sonnenberg, D. Williams-Young, 
 F. Ding, F. Lipparini, F. Egidi, J. Goings, B. Peng, A. Petrone, 
 T. Henderson, D. Ranasinghe, V. G. Zakrzewski, J. Gao, N. Rega, 
 G. Zheng, W. Liang, M. Hada, M. Ehara, K. Toyota, R. Fukuda, 
 J. Hasegawa, M. Ishida, T. Nakajima, Y. Honda, O. Kitao, H. Nakai, 
 T. Vreven, K. Throssell, J. A. Montgomery, Jr., J. E. Peralta, 
 F. Ogliaro, M. J. Bearpark, J. J. Heyd, E. N. Brothers, K. N. Kudin, 
 V. N. Staroverov, T. A. Keith, R. Kobayashi, J. Normand, 
 K. Raghavachari, A. P. Rendell, J. C. Burant, S. S. Iyengar, 
 J. Tomasi, M. Cossi, J. M. Millam, M. Klene, C. Adamo, R. Cammi, 
 J. W. Ochterski, R. L. Martin, K. Morokuma, O. Farkas, 
 J. B. Foresman, and D. J. Fox, Gaussian, Inc., Wallingford CT, 2019.
 
 ******************************************
 Gaussian 16:  ES64L-G16RevC.01  3-Jul-2019
                17-Feb-2026 
 ******************************************
 %NProcShared=8
 Will use up to    8 processors via shared memory.
 %Mem=8GB
 %chk=prod_5l_19.chk
 ------------------------------------------------------
 #N OPT FREQ=NORAMAN Integral(Ultrafine) wB97XD def2SVP
 ------------------------------------------------------
 1/18=20,19=15,26=4,38=1/1,3;
 2/9=110,12=2,17=6,18=5,40=1/2;
 3/5=43,7=101,11=2,25=1,30=1,71=1,74=-58,75=-5/1,2,3;
 4//1;
 5/5=2,38=5/2;
 6/7=2,8=2,9=2,10=2,28=1/1;
 7//1,2,3,16;
 1/18=20,19=15,26=4/3(2);
 2/9=110/2;
 99//99;
 2/9=110/2;
 3/5=43,7=101,11=2,25=1,30=1,71=1,74=-58,75=-5/1,2,3;
 4/5=5,16=3,69=1/1;
 5/5=2,38=5/2;
 7//1,2,3,16;
 1/18=20,19=15,26=4/3(-5);
 2/9=110/2;
 6/7=2,8=2,9=2,10=2,19=2,28=1/1;
 99/9=1/99;
 ----------
 prod_5l_19
 ----------
 Symbolic Z-matrix:
 Charge =  0 Multiplicity = 1
 O                    -0.11628   2.3081    1.23406 
 S                     0.03437   1.28106   0.14912 
 N                     0.90995  -0.00824   0.84869 
 C                     2.17232  -0.35898   0.36667 
 C                     2.97448  -1.2164    1.12965 
 C                     4.21849  -1.60387   0.69001 
 C                     4.69947  -1.1501   -0.52191 
 C                     3.92802  -0.30548  -1.29422 
 C                     2.68422   0.08339  -0.85895 
 C                    -1.52878   0.40674   0.01614 
 C                    -2.65848   0.93761   0.59035 
 C                    -3.86186   0.26989   0.48691 
 C                    -3.94387  -0.93382  -0.19804 
 C                    -5.23772  -1.66277  -0.28957 
 C                    -2.79049  -1.45885  -0.76374 
 C                    -1.58886  -0.78808  -0.65945 
 O                     0.40783   1.65787  -1.25452 
 H                     0.87218   0.21828   1.82051 
 H                     2.59472  -1.57366   2.07063 
 H                     4.81964  -2.26449   1.29282 
 H                     5.67494  -1.45408  -0.86403 
 H                     4.30269   0.05235  -2.23921 
 H                     2.0888    0.74688  -1.45757 
 H                    -2.58669   1.87426   1.11889 
 H                    -4.74811   0.68074   0.93892 
 H                    -6.06841  -0.96952  -0.42489 
 H                    -5.24306  -2.3537   -1.13301 
 H                    -5.4226   -2.23802   0.61801 
 H                    -2.84005  -2.39795  -1.28727 
 H                    -0.69196  -1.18975  -1.10121 
 

 GradGradGradGradGradGradGradGradGradGradGradGradGradGradGradGradGradGrad
 Berny optimization.
 Initialization pass.
                           ----------------------------
                           !    Initial Parameters    !
                           ! (Angstroms and Degrees)  !
 --------------------------                            --------------------------
 ! Name  Definition              Value          Derivative Info.                !
 --------------------------------------------------------------------------------
 ! R1    R(1,2)                  1.5015         estimate D2E/DX2                !
 ! R2    R(2,3)                  1.7083         estimate D2E/DX2                !
 ! R3    R(2,10)                 1.796          estimate D2E/DX2                !
 ! R4    R(2,17)                 1.5006         estimate D2E/DX2                !
 ! R5    R(3,4)                  1.396          estimate D2E/DX2                !
 ! R6    R(3,18)                 0.9986         estimate D2E/DX2                !
 ! R7    R(4,5)                  1.4003         estimate D2E/DX2                !
 ! R8    R(4,9)                  1.4            estimate D2E/DX2                !
 ! R9    R(5,6)                  1.3751         estimate D2E/DX2                !
 ! R10   R(5,19)                 1.0758         estimate D2E/DX2                !
 ! R11   R(6,7)                  1.3806         estimate D2E/DX2                !
 ! R12   R(6,20)                 1.0776         estimate D2E/DX2                !
 ! R13   R(7,8)                  1.3802         estimate D2E/DX2                !
 ! R14   R(7,21)                 1.0775         estimate D2E/DX2                !
 ! R15   R(8,9)                  1.3739         estimate D2E/DX2                !
 ! R16   R(8,22)                 1.0777         estimate D2E/DX2                !
 ! R17   R(9,23)                 1.0738         estimate D2E/DX2                !
 ! R18   R(10,11)                1.374          estimate D2E/DX2                !
 ! R19   R(10,16)                1.3739         estimate D2E/DX2                !
 ! R20   R(11,12)                1.3801         estimate D2E/DX2                !
 ! R21   R(11,24)                1.0779         estimate D2E/DX2                !
 ! R22   R(12,13)                1.3874         estimate D2E/DX2                !
 ! R23   R(12,25)                1.0764         estimate D2E/DX2                !
 ! R24   R(13,14)                1.4879         estimate D2E/DX2                !
 ! R25   R(13,15)                1.3878         estimate D2E/DX2                !
 ! R26   R(14,26)                1.0904         estimate D2E/DX2                !
 ! R27   R(14,27)                1.0903         estimate D2E/DX2                !
 ! R28   R(14,28)                1.0903         estimate D2E/DX2                !
 ! R29   R(15,16)                1.3801         estimate D2E/DX2                !
 ! R30   R(15,29)                1.0763         estimate D2E/DX2                !
 ! R31   R(16,30)                1.0775         estimate D2E/DX2                !
 ! A1    A(1,2,3)              105.7688         estimate D2E/DX2                !
 ! A2    A(1,2,10)             107.407          estimate D2E/DX2                !
 ! A3    A(1,2,17)             121.9445         estimate D2E/DX2                !
 ! A4    A(3,2,10)              96.2578         estimate D2E/DX2                !
 ! A5    A(3,2,17)             116.4246         estimate D2E/DX2                !
 ! A6    A(10,2,17)            105.6406         estimate D2E/DX2                !
 ! A7    A(2,3,4)              120.7762         estimate D2E/DX2                !
 ! A8    A(2,3,18)             102.002          estimate D2E/DX2                !
 ! A9    A(4,3,18)             115.2909         estimate D2E/DX2                !
 ! A10   A(3,4,5)              118.9281         estimate D2E/DX2                !
 ! A11   A(3,4,9)              123.6097         estimate D2E/DX2                !
 ! A12   A(5,4,9)              117.4545         estimate D2E/DX2                !
 ! A13   A(4,5,6)              121.1024         estimate D2E/DX2                !
 ! A14   A(4,5,19)             118.5372         estimate D2E/DX2                !
 ! A15   A(6,5,19)             120.3595         estimate D2E/DX2                !
 ! A16   A(5,6,7)              120.2126         estimate D2E/DX2                !
 ! A17   A(5,6,20)             119.9055         estimate D2E/DX2                !
 ! A18   A(7,6,20)             119.8819         estimate D2E/DX2                !
 ! A19   A(6,7,8)              119.8419         estimate D2E/DX2                !
 ! A20   A(6,7,21)             120.0927         estimate D2E/DX2                !
 ! A21   A(8,7,21)             120.0653         estimate D2E/DX2                !
 ! A22   A(7,8,9)              120.1274         estimate D2E/DX2                !
 ! A23   A(7,8,22)             119.9686         estimate D2E/DX2                !
 ! A24   A(9,8,22)             119.9038         estimate D2E/DX2                !
 ! A25   A(4,9,8)              121.2609         estimate D2E/DX2                !
 ! A26   A(4,9,23)             118.7205         estimate D2E/DX2                !
 ! A27   A(8,9,23)             120.0157         estimate D2E/DX2                !
 ! A28   A(2,10,11)            119.7745         estimate D2E/DX2                !
 ! A29   A(2,10,16)            119.8567         estimate D2E/DX2                !
 ! A30   A(11,10,16)           120.3689         estimate D2E/DX2                !
 ! A31   A(10,11,12)           119.9125         estimate D2E/DX2                !
 ! A32   A(10,11,24)           119.0729         estimate D2E/DX2                !
 ! A33   A(12,11,24)           121.0145         estimate D2E/DX2                !
 ! A34   A(11,12,13)           120.5519         estimate D2E/DX2                !
 ! A35   A(11,12,25)           120.1188         estimate D2E/DX2                !
 ! A36   A(13,12,25)           119.3294         estimate D2E/DX2                !
 ! A37   A(12,13,14)           120.4537         estimate D2E/DX2                !
 ! A38   A(12,13,15)           118.7088         estimate D2E/DX2                !
 ! A39   A(14,13,15)           120.8162         estimate D2E/DX2                !
 ! A40   A(13,14,26)           111.016          estimate D2E/DX2                !
 ! A41   A(13,14,27)           111.242          estimate D2E/DX2                !
 ! A42   A(13,14,28)           110.7768         estimate D2E/DX2                !
 ! A43   A(26,14,27)           107.6473         estimate D2E/DX2                !
 ! A44   A(26,14,28)           108.0327         estimate D2E/DX2                !
 ! A45   A(27,14,28)           107.9841         estimate D2E/DX2                !
 ! A46   A(13,15,16)           120.5928         estimate D2E/DX2                !
 ! A47   A(13,15,29)           119.3469         estimate D2E/DX2                !
 ! A48   A(16,15,29)           120.0603         estimate D2E/DX2                !
 ! A49   A(10,16,15)           119.8613         estimate D2E/DX2                !
 ! A50   A(10,16,30)           119.3017         estimate D2E/DX2                !
 ! A51   A(15,16,30)           120.837          estimate D2E/DX2                !
 ! D1    D(1,2,3,4)           -116.815          estimate D2E/DX2                !
 ! D2    D(1,2,3,18)            12.6021         estimate D2E/DX2                !
 ! D3    D(10,2,3,4)           133.0834         estimate D2E/DX2                !
 ! D4    D(10,2,3,18)          -97.4994         estimate D2E/DX2                !
 ! D5    D(17,2,3,4)            22.1457         estimate D2E/DX2                !
 ! D6    D(17,2,3,18)          151.5628         estimate D2E/DX2                !
 ! D7    D(1,2,10,11)           15.7075         estimate D2E/DX2                !
 ! D8    D(1,2,10,16)         -164.3352         estimate D2E/DX2                !
 ! D9    D(3,2,10,11)          124.4239         estimate D2E/DX2                !
 ! D10   D(3,2,10,16)          -55.6188         estimate D2E/DX2                !
 ! D11   D(17,2,10,11)        -115.8666         estimate D2E/DX2                !
 ! D12   D(17,2,10,16)          64.0907         estimate D2E/DX2                !
 ! D13   D(2,3,4,5)            166.5578         estimate D2E/DX2                !
 ! D14   D(2,3,4,9)            -14.4787         estimate D2E/DX2                !
 ! D15   D(18,3,4,5)            43.2533         estimate D2E/DX2                !
 ! D16   D(18,3,4,9)          -137.7833         estimate D2E/DX2                !
 ! D17   D(3,4,5,6)            179.1999         estimate D2E/DX2                !
 ! D18   D(3,4,5,19)            -0.4585         estimate D2E/DX2                !
 ! D19   D(9,4,5,6)              0.1727         estimate D2E/DX2                !
 ! D20   D(9,4,5,19)          -179.4856         estimate D2E/DX2                !
 ! D21   D(3,4,9,8)           -179.1899         estimate D2E/DX2                !
 ! D22   D(3,4,9,23)             1.4259         estimate D2E/DX2                !
 ! D23   D(5,4,9,8)             -0.2123         estimate D2E/DX2                !
 ! D24   D(5,4,9,23)          -179.5965         estimate D2E/DX2                !
 ! D25   D(4,5,6,7)             -0.0517         estimate D2E/DX2                !
 ! D26   D(4,5,6,20)          -179.9978         estimate D2E/DX2                !
 ! D27   D(19,5,6,7)           179.6005         estimate D2E/DX2                !
 ! D28   D(19,5,6,20)           -0.3456         estimate D2E/DX2                !
 ! D29   D(5,6,7,8)             -0.0372         estimate D2E/DX2                !
 ! D30   D(5,6,7,21)           179.9338         estimate D2E/DX2                !
 ! D31   D(20,6,7,8)           179.9089         estimate D2E/DX2                !
 ! D32   D(20,6,7,21)           -0.1201         estimate D2E/DX2                !
 ! D33   D(6,7,8,9)             -0.0017         estimate D2E/DX2                !
 ! D34   D(6,7,8,22)           179.8151         estimate D2E/DX2                !
 ! D35   D(21,7,8,9)          -179.9727         estimate D2E/DX2                !
 ! D36   D(21,7,8,22)           -0.1559         estimate D2E/DX2                !
 ! D37   D(7,8,9,4)              0.1304         estimate D2E/DX2                !
 ! D38   D(7,8,9,23)           179.5067         estimate D2E/DX2                !
 ! D39   D(22,8,9,4)          -179.6865         estimate D2E/DX2                !
 ! D40   D(22,8,9,23)           -0.3102         estimate D2E/DX2                !
 ! D41   D(2,10,11,12)         179.8309         estimate D2E/DX2                !
 ! D42   D(2,10,11,24)          -0.2895         estimate D2E/DX2                !
 ! D43   D(16,10,11,12)         -0.1262         estimate D2E/DX2                !
 ! D44   D(16,10,11,24)        179.7534         estimate D2E/DX2                !
 ! D45   D(2,10,16,15)        -179.8847         estimate D2E/DX2                !
 ! D46   D(2,10,16,30)           0.182          estimate D2E/DX2                !
 ! D47   D(11,10,16,15)          0.0723         estimate D2E/DX2                !
 ! D48   D(11,10,16,30)       -179.8609         estimate D2E/DX2                !
 ! D49   D(10,11,12,13)         -0.2559         estimate D2E/DX2                !
 ! D50   D(10,11,12,25)        179.7496         estimate D2E/DX2                !
 ! D51   D(24,11,12,13)        179.8669         estimate D2E/DX2                !
 ! D52   D(24,11,12,25)         -0.1276         estimate D2E/DX2                !
 ! D53   D(11,12,13,14)        179.0128         estimate D2E/DX2                !
 ! D54   D(11,12,13,15)          0.678          estimate D2E/DX2                !
 ! D55   D(25,12,13,14)         -0.9927         estimate D2E/DX2                !
 ! D56   D(25,12,13,15)       -179.3275         estimate D2E/DX2                !
 ! D57   D(12,13,14,26)         38.8056         estimate D2E/DX2                !
 ! D58   D(12,13,14,27)        158.6584         estimate D2E/DX2                !
 ! D59   D(12,13,14,28)        -81.2238         estimate D2E/DX2                !
 ! D60   D(15,13,14,26)       -142.895          estimate D2E/DX2                !
 ! D61   D(15,13,14,27)        -23.0422         estimate D2E/DX2                !
 ! D62   D(15,13,14,28)         97.0756         estimate D2E/DX2                !
 ! D63   D(12,13,15,16)         -0.7324         estimate D2E/DX2                !
 ! D64   D(12,13,15,29)        179.2708         estimate D2E/DX2                !
 ! D65   D(14,13,15,16)       -179.061          estimate D2E/DX2                !
 ! D66   D(14,13,15,29)          0.9423         estimate D2E/DX2                !
 ! D67   D(13,15,16,10)          0.3643         estimate D2E/DX2                !
 ! D68   D(13,15,16,30)       -179.7035         estimate D2E/DX2                !
 ! D69   D(29,15,16,10)       -179.639          estimate D2E/DX2                !
 ! D70   D(29,15,16,30)          0.2932         estimate D2E/DX2                !
 --------------------------------------------------------------------------------
 Trust Radius=3.00D-01 FncErr=1.00D-07 GrdErr=1.00D-06 EigMax=2.50D+02 EigMin=1.00D-04
 Number of steps in this run=    162 maximum allowed number of steps=    180.
 GradGradGradGradGradGradGradGradGradGradGradGradGradGradGradGradGradGrad

                          Input orientation:                          
 ---------------------------------------------------------------------
 Center     Atomic      Atomic             Coordinates (Angstroms)
 Number     Number       Type             X           Y           Z
 ---------------------------------------------------------------------
      1          8           0       -0.116280    2.308100    1.234060
      2         16           0        0.034370    1.281060    0.149120
      3          7           0        0.909950   -0.008240    0.848690
      4          6           0        2.172320   -0.358980    0.366670
      5          6           0        2.974480   -1.216400    1.129650
      6          6           0        4.218490   -1.603870    0.690010
      7          6           0        4.699470   -1.150100   -0.521910
      8          6           0        3.928020   -0.305480   -1.294220
      9          6           0        2.684220    0.083390   -0.858950
     10          6           0       -1.528780    0.406740    0.016140
     11          6           0       -2.658480    0.937610    0.590350
     12          6           0       -3.861860    0.269890    0.486910
     13          6           0       -3.943870   -0.933820   -0.198040
     14          6           0       -5.237720   -1.662770   -0.289570
     15          6           0       -2.790490   -1.458850   -0.763740
     16          6           0       -1.588860   -0.788080   -0.659450
     17          8           0        0.407830    1.657870   -1.254520
     18          1           0        0.872180    0.218280    1.820510
     19          1           0        2.594720   -1.573660    2.070630
     20          1           0        4.819640   -2.264490    1.292820
     21          1           0        5.674940   -1.454080   -0.864030
     22          1           0        4.302690    0.052350   -2.239210
     23          1           0        2.088800    0.746880   -1.457570
     24          1           0       -2.586690    1.874260    1.118890
     25          1           0       -4.748110    0.680740    0.938920
     26          1           0       -6.068410   -0.969520   -0.424890
     27          1           0       -5.243060   -2.353700   -1.133010
     28          1           0       -5.422600   -2.238020    0.618010
     29          1           0       -2.840050   -2.397950   -1.287270
     30          1           0       -0.691960   -1.189750   -1.101210
 ---------------------------------------------------------------------
                    Distance matrix (angstroms):
                    1          2          3          4          5
     1  O    0.000000
     2  S    1.501533   0.000000
     3  N    2.562633   1.708313   0.000000
     4  C    3.619858   2.703311   1.396044   0.000000
     5  C    4.688902   3.980326   2.408500   1.400274   0.000000
     6  C    5.864276   5.110992   3.676636   2.416839   1.375128
     7  C    6.183367   5.303205   4.188419   2.793194   2.389066
     8  C    5.438691   4.445318   3.713376   2.417416   2.759377
     9  C    4.144011   3.077714   2.464237   1.399956   2.393373
    10  C    2.663392   1.795984   2.610125   3.795700   4.914655
    11  C    2.958950   2.750288   3.700684   5.006776   6.054820
    12  C    4.329192   4.039452   4.793580   6.068053   7.025505
    13  C    5.216455   4.566465   5.050932   6.169045   7.050261
    14  C    6.657207   6.054215   6.467376   7.552431   8.345877
    15  C    5.033142   4.039833   4.289226   5.207401   6.072774
    16  C    3.916657   2.751364   3.021041   3.922184   4.920204
    17  O    2.624980   1.500554   2.729751   3.131991   4.531378
    18  H    2.385021   2.150575   0.998585   2.034022   2.637283
    19  H    4.808059   4.289175   2.604252   2.134795   1.075777
    20  H    6.728695   6.064469   4.535812   3.390726   2.128317
    21  H    7.217632   6.350078   5.265833   3.870686   3.365076
    22  H    6.056344   5.043055   4.587971   3.390911   3.837067
    23  H    3.813746   2.662233   2.697912   2.134890   3.366393
    24  H    2.510858   2.856973   3.980365   5.310496   6.362304
    25  H    4.918258   4.884289   5.700568   7.021456   7.954490
    26  H    6.994481   6.529818   7.158462   8.301142   9.178856
    27  H    7.322518   6.535029   6.876616   7.824053   8.598898
    28  H    7.014539   6.510169   6.717613   7.827948   8.474458
    29  H    5.993574   4.884733   4.933106   5.658336   6.406740
    30  H    4.244979   2.862828   2.786430   3.323996   4.291879
                    6          7          8          9         10
     6  C    0.000000
     7  C    1.380579   0.000000
     8  C    2.389008   1.380210   0.000000
     9  C    2.756829   2.386698   1.373943   0.000000
    10  C    6.125991   6.442387   5.656940   4.315056   0.000000
    11  C    7.332242   7.728847   6.962676   5.601304   1.373959
    12  C    8.297245   8.736731   8.011598   6.685603   2.384033
    13  C    8.237823   8.652109   7.972645   6.738182   2.770493
    14  C    9.506995   9.953118   9.319997   8.132060   4.258235
    15  C    7.159624   7.500221   6.837401   5.688587   2.383391
    16  C    6.017630   6.300244   5.574209   4.365601   1.373909
    17  O    5.379710   5.180694   4.030888   2.795964   2.632558
    18  H    3.974425   4.691220   4.394773   3.237467   3.009298
    19  H    2.131585   3.366101   3.835125   3.366937   5.014595
    20  H    1.077581   2.132968   3.365335   3.834406   7.004842
    21  H    2.135117   1.077493   2.134496   3.362774   7.492058
    22  H    3.366078   2.133645   1.077695   2.127328   6.262447
    23  H    3.830627   3.359999   2.125294   1.073820   3.921020
    24  H    7.654528   8.057736   7.281196   5.907754   2.118690
    25  H    9.256420   9.733590   9.013034   7.669986   3.360161
    26  H   10.366567  10.769831  10.056107   8.826413   4.764120
    27  H    9.664708  10.033743   9.398399   8.297969   4.768275
    28  H    9.662192  10.243988   9.737835   8.561010   4.745402
    29  H    7.373140   7.680317   7.084155   6.071084   3.359255
    30  H    5.243328   5.422608   4.707802   3.616375   2.120735
                   11         12         13         14         15
    11  C    0.000000
    12  C    1.380099   0.000000
    13  C    2.403339   1.387372   0.000000
    14  C    3.766791   2.496214   1.487882   0.000000
    15  C    2.755723   2.387572   1.387789   2.501071   0.000000
    16  C    2.384134   2.756804   2.404207   3.770421   1.380117
    17  O    3.650284   4.815529   5.174002   6.620424   4.492667
    18  H    3.807399   4.918566   5.347543   6.732137   4.786049
    19  H    6.007813   6.898860   6.950498   8.180807   6.086651
    20  H    8.165120   9.079703   8.988462  10.198849   7.924177
    21  H    8.790978   9.785074   9.655864  10.929762   8.466025
    22  H    7.566240   8.610397   8.552465   9.887475   7.400942
    23  H    5.173686   6.278445   6.387822   7.800547   5.399455
    24  H    1.077878   2.144635   3.385492   4.639213   3.833465
    25  H    2.134019   1.076360   2.132202   2.690900   3.362911
    26  H    4.036766   2.690052   2.136915   1.090391   3.331520
    27  H    4.525787   3.378621   2.139655   1.090323   2.636706
    28  H    4.210196   2.956807   2.133897   1.090319   3.073165
    29  H    3.832021   3.362913   2.132725   2.699021   1.076313
    30  H    3.354733   3.834180   3.384691   4.641814   2.142459
                   16         17         18         19         20
    16  C    0.000000
    17  O    3.213028   0.000000
    18  H    3.635888   3.426930   0.000000
    19  H    5.056957   5.126587   2.498150   0.000000
    20  H    6.860030   6.429457   4.693085   2.456116   0.000000
    21  H    7.297136   6.130185   5.750656   4.256088   2.457703
    22  H    6.157299   4.326343   5.317637   4.912819   4.255611
    23  H    4.064269   1.922704   3.536296   4.253123   4.908206
    24  H    3.353537   3.827146   3.898503   6.296108   8.486061
    25  H    3.833155   5.687678   5.707778   7.764035  10.017059
    26  H    4.489355   7.037979   7.390838   9.035620  11.098518
    27  H    4.003574   6.931091   7.261854   8.503092  10.351355
    28  H    4.293226   7.257978   6.863211   8.174894  10.264480
    29  H    2.133381   5.196102   5.503054   6.441403   8.083658
    30  H    1.077460   3.056466   3.600768   4.583691   6.104439
                   21         22         23         24         25
    21  H    0.000000
    22  H    2.458357   0.000000
    23  H    4.249343   2.448396   0.000000
    24  H    9.124930   7.877801   5.456129   0.000000
    25  H   10.791110   9.613135   7.245059   2.475604   0.000000
    26  H   11.761544  10.578076   8.399555   4.753180   2.515259
    27  H   10.958302   9.906266   7.967127   5.477500   3.707519
    28  H   11.223475  10.391861   8.344986   5.020370   3.012819
    29  H    8.577592   7.611103   5.849147   4.909743   4.251464
    30  H    6.376797   5.271090   3.407368   4.231667   4.910521
                   26         27         28         29         30
    26  H    0.000000
    27  H    1.760281   0.000000
    28  H    1.764597   1.763998   0.000000
    29  H    3.634064   2.408363   3.213290   0.000000
    30  H    5.423295   4.697691   5.141356   2.471570   0.000000
 Stoichiometry    C13H13NO2S
 Framework group  C1[X(C13H13NO2S)]
 Deg. of freedom    84
 Full point group                 C1      NOp   1
 Largest Abelian subgroup         C1      NOp   1
 Largest concise Abelian subgroup C1      NOp   1
                         Standard orientation:                         
 ---------------------------------------------------------------------
 Center     Atomic      Atomic             Coordinates (Angstroms)
 Number     Number       Type             X           Y           Z
 ---------------------------------------------------------------------
      1          8           0        0.125553    2.526656   -0.810805
      2         16           0       -0.044735    1.329477    0.079345
      3          7           0       -0.931611    0.192383   -0.836515
      4          6           0       -2.201290   -0.219703   -0.427807
      5          6           0       -3.009021   -0.921471   -1.331055
      6          6           0       -4.260521   -1.362640   -0.970367
      7          6           0       -4.743675   -1.119065    0.299764
      8          6           0       -3.966868   -0.431110    1.209857
      9          6           0       -2.715589    0.010685    0.853714
     10          6           0        1.506630    0.424694    0.065573
     11          6           0        2.646466    1.031886   -0.403314
     12          6           0        3.840833    0.340447   -0.411937
     13          6           0        3.903583   -0.964598    0.054666
     14          6           0        5.187733   -1.715476    0.024096
     15          6           0        2.740196   -1.564253    0.516082
     16          6           0        1.547622   -0.869687    0.524403
     17          8           0       -0.422564    1.462663    1.525433
     18          1           0       -0.884788    0.583110   -1.754290
     19          1           0       -2.627635   -1.115537   -2.318060
     20          1           0       -4.865869   -1.900972   -1.680954
     21          1           0       -5.725002   -1.464697    0.579988
     22          1           0       -4.343184   -0.237244    2.200931
     23          1           0       -2.115908    0.552643    1.560646
     24          1           0        2.589635    2.046725   -0.762051
     25          1           0        4.734975    0.811524   -0.782270
     26          1           0        6.026015   -1.067167    0.280869
     27          1           0        5.179119   -2.541927    0.735228
     28          1           0        5.371356   -2.127420   -0.968567
     29          1           0        2.774802   -2.580344    0.869367
     30          1           0        0.643010   -1.329808    0.886185
 ---------------------------------------------------------------------
 Rotational constants (GHZ):           0.9506486           0.2263882           0.2057432
 Standard basis: def2SVP (5D, 7F)
 There are   324 symmetry adapted cartesian basis functions of A   symmetry.
 There are   307 symmetry adapted basis functions of A   symmetry.
   307 basis functions,   528 primitive gaussians,   324 cartesian basis functions
    65 alpha electrons       65 beta electrons
       nuclear repulsion energy      1296.8807042106 Hartrees.
 NAtoms=   30 NActive=   30 NUniq=   30 SFac= 1.00D+00 NAtFMM=   60 NAOKFM=F Big=F
 Integral buffers will be    131072 words long.
 Raffenetti 2 integral format.
 Two-electron integral symmetry is turned on.
 Nuclear repulsion after empirical dispersion term =     1296.8623865537 Hartrees.
 One-electron integrals computed using PRISM.
   1 Symmetry operations used in ECPInt.
 ECPInt:  NShTT=   10296 NPrTT=   38220 LenC2=    9258 LenP2D=   24284.
 LDataN:  DoStor=T MaxTD1= 4 Len=   56
 NBasis=   307 RedAO= T EigKep=  2.44D-04  NBF=   307
 NBsUse=   307 1.00D-06 EigRej= -1.00D+00 NBFU=   307
 ExpMin= 1.22D-01 ExpMax= 9.18D+03 ExpMxC= 1.38D+03 IAcc=3 IRadAn=         5 AccDes= 0.00D+00
 Harris functional with IExCor= 4639 and IRadAn=       5 diagonalized for initial guess.
 HarFok:  IExCor= 4639 AccDes= 0.00D+00 IRadAn=         5 IDoV= 1 UseB2=F ITyADJ=14
 ICtDFT=  3500011 ScaDFX=  1.000000  1.000000  1.000000  1.000000
 FoFCou: FMM=F IPFlag=           0 FMFlag=      100000 FMFlg1=           0
         NFxFlg=           0 DoJE=T BraDBF=F KetDBF=T FulRan=T
         wScrn=  0.000000 ICntrl=       500 IOpCl=  0 I1Cent=   200000004 NGrid=           0
         NMat0=    1 NMatS0=      1 NMatT0=    0 NMatD0=    1 NMtDS0=    0 NMtDT0=    0
 Petite list used in FoFCou.
 Requested convergence on RMS density matrix=1.00D-08 within 128 cycles.
 Requested convergence on MAX density matrix=1.00D-06.
 Requested convergence on             energy=1.00D-06.
 No special actions if energy rises.
 Integral accuracy reduced to 1.0D-05 until final iterations.
 Initial convergence to 1.0D-05 achieved.  Increase integral accuracy.
 SCF Done:  E(RwB97XD) =  -1105.63818968     A.U. after   15 cycles
            NFock= 15  Conv=0.79D-08     -V/T= 2.0070

 **********************************************************************

            Population analysis using the SCF Density.

 **********************************************************************

 Orbital symmetries:
       Occupied  (A) (A) (A) (A) (A) (A) (A) (A) (A) (A) (A) (A)
                 (A) (A) (A) (A) (A) (A) (A) (A) (A) (A) (A) (A)
                 (A) (A) (A) (A) (A) (A) (A) (A) (A) (A) (A) (A)
                 (A) (A) (A) (A) (A) (A) (A) (A) (A) (A) (A) (A)
                 (A) (A) (A) (A) (A) (A) (A) (A) (A) (A) (A) (A)
                 (A) (A) (A) (A) (A)
       Virtual   (A) (A) (A) (A) (A) (A) (A) (A) (A) (A) (A) (A)
                 (A) (A) (A) (A) (A) (A) (A) (A) (A) (A) (A) (A)
                 (A) (A) (A) (A) (A) (A) (A) (A) (A) (A) (A) (A)
                 (A) (A) (A) (A) (A) (A) (A) (A) (A) (A) (A) (A)
                 (A) (A) (A) (A) (A) (A) (A) (A) (A) (A) (A) (A)
                 (A) (A) (A) (A) (A) (A) (A) (A) (A) (A) (A) (A)
                 (A) (A) (A) (A) (A) (A) (A) (A) (A) (A) (A) (A)
                 (A) (A) (A) (A) (A) (A) (A) (A) (A) (A) (A) (A)
                 (A) (A) (A) (A) (A) (A) (A) (A) (A) (A) (A) (A)
                 (A) (A) (A) (A) (A) (A) (A) (A) (A) (A) (A) (A)
                 (A) (A) (A) (A) (A) (A) (A) (A) (A) (A) (A) (A)
                 (A) (A) (A) (A) (A) (A) (A) (A) (A) (A) (A) (A)
                 (A) (A) (A) (A) (A) (A) (A) (A) (A) (A) (A) (A)
                 (A) (A) (A) (A) (A) (A) (A) (A) (A) (A) (A) (A)
                 (A) (A) (A) (A) (A) (A) (A) (A) (A) (A) (A) (A)
                 (A) (A) (A) (A) (A) (A) (A) (A) (A) (A) (A) (A)
                 (A) (A) (A) (A) (A) (A) (A) (A) (A) (A) (A) (A)
                 (A) (A) (A) (A) (A) (A) (A) (A) (A) (A) (A) (A)
                 (A) (A) (A) (A) (A) (A) (A) (A) (A) (A) (A) (A)
                 (A) (A) (A) (A) (A) (A) (A) (A) (A) (A) (A) (A)
                 (A) (A)
 The electronic state is 1-A.
 Alpha  occ. eigenvalues --  -89.25855 -19.26581 -19.25844 -14.49982 -10.35503
 Alpha  occ. eigenvalues --  -10.33330 -10.32543 -10.32319 -10.32097 -10.31470
 Alpha  occ. eigenvalues --  -10.31338 -10.30742 -10.30440 -10.30310 -10.29938
 Alpha  occ. eigenvalues --  -10.29474 -10.29135  -8.27658  -6.23087  -6.22993
 Alpha  occ. eigenvalues --   -6.22843  -1.20586  -1.09218  -1.05549  -0.98628
 Alpha  occ. eigenvalues --   -0.95331  -0.90248  -0.86381  -0.85088  -0.84680
 Alpha  occ. eigenvalues --   -0.81229  -0.75874  -0.72586  -0.71591  -0.70596
 Alpha  occ. eigenvalues --   -0.68144  -0.64217  -0.64005  -0.60479  -0.58930
 Alpha  occ. eigenvalues --   -0.58031  -0.56500  -0.54821  -0.53876  -0.53678
 Alpha  occ. eigenvalues --   -0.52926  -0.52809  -0.52786  -0.51249  -0.49610
 Alpha  occ. eigenvalues --   -0.48525  -0.47556  -0.46385  -0.46064  -0.44235
 Alpha  occ. eigenvalues --   -0.44073  -0.43827  -0.41195  -0.40618  -0.39646
 Alpha  occ. eigenvalues --   -0.38222  -0.35337  -0.34411  -0.33845  -0.30556
 Alpha virt. eigenvalues --    0.02928   0.04457   0.05886   0.06478   0.10020
 Alpha virt. eigenvalues --    0.12898   0.13929   0.14479   0.15325   0.15810
 Alpha virt. eigenvalues --    0.17025   0.17258   0.18700   0.19297   0.20217
 Alpha virt. eigenvalues --    0.20984   0.21455   0.23015   0.23700   0.23968
 Alpha virt. eigenvalues --    0.24483   0.25710   0.29326   0.29535   0.33510
 Alpha virt. eigenvalues --    0.35152   0.36311   0.36930   0.37507   0.38050
 Alpha virt. eigenvalues --    0.38125   0.39511   0.40073   0.41078   0.43656
 Alpha virt. eigenvalues --    0.46383   0.47538   0.47895   0.48106   0.49116
 Alpha virt. eigenvalues --    0.49303   0.51421   0.51948   0.52094   0.54265
 Alpha virt. eigenvalues --    0.54605   0.55196   0.55803   0.56601   0.56977
 Alpha virt. eigenvalues --    0.58095   0.58790   0.59849   0.60292   0.61853
 Alpha virt. eigenvalues --    0.63179   0.63879   0.64016   0.64494   0.65839
 Alpha virt. eigenvalues --    0.67567   0.69190   0.69845   0.70705   0.71181
 Alpha virt. eigenvalues --    0.72337   0.72806   0.73306   0.73515   0.74307
 Alpha virt. eigenvalues --    0.74820   0.75365   0.75966   0.76564   0.77177
 Alpha virt. eigenvalues --    0.77685   0.78047   0.78555   0.78981   0.80153
 Alpha virt. eigenvalues --    0.81279   0.82310   0.82525   0.83067   0.83410
 Alpha virt. eigenvalues --    0.84370   0.85349   0.87155   0.88302   0.90214
 Alpha virt. eigenvalues --    0.90979   0.91803   0.93078   0.95922   0.96806
 Alpha virt. eigenvalues --    0.98967   0.99429   1.00230   1.02923   1.06805
 Alpha virt. eigenvalues --    1.09073   1.10413   1.11114   1.12638   1.13358
 Alpha virt. eigenvalues --    1.13923   1.15119   1.20135   1.21191   1.21631
 Alpha virt. eigenvalues --    1.24223   1.26447   1.27197   1.28517   1.29915
 Alpha virt. eigenvalues --    1.31069   1.31478   1.32169   1.32870   1.33168
 Alpha virt. eigenvalues --    1.34319   1.35104   1.36887   1.37395   1.38093
 Alpha virt. eigenvalues --    1.38317   1.40617   1.42691   1.44901   1.52725
 Alpha virt. eigenvalues --    1.55037   1.55748   1.57830   1.60537   1.61430
 Alpha virt. eigenvalues --    1.62395   1.62872   1.70849   1.75091   1.75975
 Alpha virt. eigenvalues --    1.76801   1.78003   1.78270   1.80362   1.81377
 Alpha virt. eigenvalues --    1.81826   1.82715   1.83639   1.83980   1.84519
 Alpha virt. eigenvalues --    1.84627   1.86210   1.86388   1.87341   1.87930
 Alpha virt. eigenvalues --    1.88024   1.88551   1.90738   1.91731   1.93867
 Alpha virt. eigenvalues --    1.94165   1.95216   1.98177   1.98600   2.02883
 Alpha virt. eigenvalues --    2.04121   2.04630   2.04990   2.06247   2.08098
 Alpha virt. eigenvalues --    2.10430   2.10828   2.13323   2.14242   2.16223
 Alpha virt. eigenvalues --    2.18247   2.19827   2.20820   2.21245   2.23133
 Alpha virt. eigenvalues --    2.24548   2.25644   2.29418   2.30360   2.31887
 Alpha virt. eigenvalues --    2.32732   2.35019   2.36123   2.38296   2.38696
 Alpha virt. eigenvalues --    2.40650   2.43206   2.43445   2.44784   2.45268
 Alpha virt. eigenvalues --    2.45803   2.51583   2.54766   2.56519   2.57557
 Alpha virt. eigenvalues --    2.59934   2.61083   2.68517   2.69336   2.71661
 Alpha virt. eigenvalues --    2.71953   2.72485   2.73035   2.73669   2.74227
 Alpha virt. eigenvalues --    2.74750   2.75570   2.75761   2.78568   2.81321
 Alpha virt. eigenvalues --    2.83039   2.83296   2.84370   2.85337   2.86352
 Alpha virt. eigenvalues --    2.91845   2.94203   2.95070   2.97106   2.99626
 Alpha virt. eigenvalues --    3.00668   3.01001   3.02025   3.02982   3.04687
 Alpha virt. eigenvalues --    3.07141   3.08784   3.22734   3.23780   3.25743
 Alpha virt. eigenvalues --    3.31929   3.33643   3.34373   3.45876   3.46662
 Alpha virt. eigenvalues --    3.69747   3.78724
          Condensed to atoms (all electrons):
               1          2          3          4          5          6
     1  O    8.158218   0.430172  -0.052034   0.002239  -0.000167  -0.000000
     2  S    0.430172  13.937935   0.208001  -0.037935  -0.000387  -0.000128
     3  N   -0.052034   0.208001   6.844965   0.267761  -0.070228   0.006629
     4  C    0.002239  -0.037935   0.267761   5.197225   0.259818   0.109208
     5  C   -0.000167  -0.000387  -0.070228   0.259818   5.138442   0.311558
     6  C   -0.000000  -0.000128   0.006629   0.109208   0.311558   5.006210
     7  C   -0.000000   0.000001  -0.000449  -0.163114   0.085022   0.286621
     8  C   -0.000015  -0.000684   0.007214   0.107768  -0.145042   0.095141
     9  C   -0.000111   0.001147  -0.084772   0.254560   0.076532  -0.144922
    10  C   -0.068765   0.233068  -0.093700   0.007678  -0.000830   0.000001
    11  C    0.004616  -0.022296  -0.000777  -0.000268  -0.000005   0.000000
    12  C    0.001421   0.002424  -0.000007  -0.000012   0.000001  -0.000000
    13  C   -0.000038   0.001001  -0.000066   0.000005  -0.000000  -0.000000
    14  C    0.000000   0.000008  -0.000000  -0.000000   0.000000   0.000000
    15  C    0.000017  -0.001803  -0.000108   0.000022  -0.000001  -0.000000
    16  C    0.003998  -0.042758   0.000381  -0.000456   0.000080  -0.000000
    17  O   -0.027107   0.388354  -0.033844  -0.004363   0.000039   0.000001
    18  H    0.014646  -0.008960   0.325616  -0.003945  -0.012686   0.000270
    19  H   -0.000026  -0.000113  -0.009394  -0.081326   0.451265  -0.059538
    20  H   -0.000000   0.000003  -0.000114   0.015555  -0.069363   0.453897
    21  H    0.000000   0.000000   0.000011  -0.001418   0.014400  -0.070443
    22  H    0.000000   0.000002  -0.000109   0.015281  -0.001960   0.014136
    23  H    0.000357  -0.009495  -0.013368  -0.069766   0.013472  -0.002281
    24  H    0.017023  -0.012218   0.000676  -0.000051   0.000001   0.000000
    25  H   -0.000008  -0.000161   0.000003  -0.000000   0.000000   0.000000
    26  H    0.000000  -0.000000   0.000000  -0.000000  -0.000000  -0.000000
    27  H    0.000000  -0.000000   0.000000  -0.000000   0.000000  -0.000000
    28  H   -0.000000   0.000000  -0.000000   0.000000  -0.000000  -0.000000
    29  H    0.000000  -0.000155   0.000002  -0.000001   0.000000   0.000000
    30  H    0.000175  -0.007350   0.002461   0.000369  -0.000102  -0.000002
               7          8          9         10         11         12
     1  O   -0.000000  -0.000015  -0.000111  -0.068765   0.004616   0.001421
     2  S    0.000001  -0.000684   0.001147   0.233068  -0.022296   0.002424
     3  N   -0.000449   0.007214  -0.084772  -0.093700  -0.000777  -0.000007
     4  C   -0.163114   0.107768   0.254560   0.007678  -0.000268  -0.000012
     5  C    0.085022  -0.145042   0.076532  -0.000830  -0.000005   0.000001
     6  C    0.286621   0.095141  -0.144922   0.000001   0.000000  -0.000000
     7  C    5.107311   0.271278   0.087619   0.000000  -0.000000  -0.000000
     8  C    0.271278   5.051098   0.267703  -0.000075   0.000000   0.000000
     9  C    0.087619   0.267703   5.217880  -0.001366  -0.000040   0.000001
    10  C    0.000000  -0.000075  -0.001366   5.730797   0.272640   0.087085
    11  C   -0.000000   0.000000  -0.000040   0.272640   5.047949   0.271414
    12  C   -0.000000   0.000000   0.000001   0.087085   0.271414   5.114493
    13  C   -0.000000  -0.000000  -0.000001  -0.185166   0.100738   0.279703
    14  C   -0.000000   0.000000  -0.000000   0.000592   0.009037  -0.077477
    15  C   -0.000000   0.000001   0.000005   0.090161  -0.123087   0.051784
    16  C    0.000001   0.000019   0.000027   0.180259   0.050537  -0.121812
    17  O   -0.000034   0.002006  -0.023262  -0.054539  -0.003293  -0.000090
    18  H   -0.000011  -0.000167   0.003705   0.004990   0.000592  -0.000080
    19  H    0.014840  -0.002209   0.016847  -0.000012  -0.000003   0.000000
    20  H   -0.069217   0.013800  -0.001903  -0.000000   0.000000   0.000000
    21  H    0.451580  -0.067721   0.014681   0.000000   0.000000   0.000000
    22  H   -0.074542   0.457877  -0.067382  -0.000000   0.000000  -0.000000
    23  H    0.013751  -0.053194   0.452084   0.000846  -0.000062  -0.000001
    24  H   -0.000000   0.000000   0.000003  -0.069046   0.446535  -0.052348
    25  H    0.000000  -0.000000   0.000000   0.016854  -0.066653   0.461667
    26  H   -0.000000  -0.000000  -0.000000   0.000006   0.000700  -0.007746
    27  H   -0.000000   0.000000  -0.000000  -0.000011  -0.000538   0.008118
    28  H    0.000000  -0.000000   0.000000   0.000127  -0.000073  -0.004384
    29  H    0.000000  -0.000000   0.000001   0.016311  -0.002035   0.014659
    30  H   -0.000011   0.000081   0.000438  -0.080471   0.012144  -0.001369
              13         14         15         16         17         18
     1  O   -0.000038   0.000000   0.000017   0.003998  -0.027107   0.014646
     2  S    0.001001   0.000008  -0.001803  -0.042758   0.388354  -0.008960
     3  N   -0.000066  -0.000000  -0.000108   0.000381  -0.033844   0.325616
     4  C    0.000005  -0.000000   0.000022  -0.000456  -0.004363  -0.003945
     5  C   -0.000000   0.000000  -0.000001   0.000080   0.000039  -0.012686
     6  C   -0.000000   0.000000  -0.000000  -0.000000   0.000001   0.000270
     7  C   -0.000000  -0.000000  -0.000000   0.000001  -0.000034  -0.000011
     8  C   -0.000000   0.000000   0.000001   0.000019   0.002006  -0.000167
     9  C   -0.000001  -0.000000   0.000005   0.000027  -0.023262   0.003705
    10  C   -0.185166   0.000592   0.090161   0.180259  -0.054539   0.004990
    11  C    0.100738   0.009037  -0.123087   0.050537  -0.003293   0.000592
    12  C    0.279703  -0.077477   0.051784  -0.121812  -0.000090  -0.000080
    13  C    5.259294   0.407364   0.302866   0.084524  -0.000022   0.000016
    14  C    0.407364   4.549490  -0.076621   0.010863  -0.000000  -0.000000
    15  C    0.302866  -0.076621   5.017954   0.352827   0.000408  -0.000048
    16  C    0.084524   0.010863   0.352827   5.035417   0.005874  -0.000986
    17  O   -0.000022  -0.000000   0.000408   0.005874   8.161733   0.002283
    18  H    0.000016  -0.000000  -0.000048  -0.000986   0.002283   0.505560
    19  H    0.000000   0.000000   0.000001   0.000022   0.000006   0.002960
    20  H   -0.000000  -0.000000  -0.000000  -0.000000  -0.000000  -0.000024
    21  H    0.000000   0.000000   0.000000   0.000000   0.000000  -0.000001
    22  H    0.000000   0.000000  -0.000000   0.000000   0.000023   0.000012
    23  H    0.000001   0.000000   0.000014   0.000076   0.036621  -0.000670
    24  H    0.013595  -0.000205  -0.001820   0.013801   0.000182  -0.000072
    25  H   -0.078400  -0.012744   0.014365  -0.001960   0.000002  -0.000001
    26  H   -0.018471   0.391903   0.006311  -0.000525  -0.000000  -0.000000
    27  H   -0.018486   0.392504  -0.009893   0.000875   0.000000  -0.000000
    28  H   -0.012535   0.389465  -0.002006  -0.000442   0.000000   0.000000
    29  H   -0.074237  -0.014560   0.459347  -0.066543  -0.000002  -0.000001
    30  H    0.014357  -0.000258  -0.047790   0.450003   0.003234   0.000133
              19         20         21         22         23         24
     1  O   -0.000026  -0.000000   0.000000   0.000000   0.000357   0.017023
     2  S   -0.000113   0.000003   0.000000   0.000002  -0.009495  -0.012218
     3  N   -0.009394  -0.000114   0.000011  -0.000109  -0.013368   0.000676
     4  C   -0.081326   0.015555  -0.001418   0.015281  -0.069766  -0.000051
     5  C    0.451265  -0.069363   0.014400  -0.001960   0.013472   0.000001
     6  C   -0.059538   0.453897  -0.070443   0.014136  -0.002281   0.000000
     7  C    0.014840  -0.069217   0.451580  -0.074542   0.013751  -0.000000
     8  C   -0.002209   0.013800  -0.067721   0.457877  -0.053194   0.000000
     9  C    0.016847  -0.001903   0.014681  -0.067382   0.452084   0.000003
    10  C   -0.000012  -0.000000   0.000000  -0.000000   0.000846  -0.069046
    11  C   -0.000003   0.000000   0.000000   0.000000  -0.000062   0.446535
    12  C    0.000000   0.000000   0.000000  -0.000000  -0.000001  -0.052348
    13  C    0.000000  -0.000000   0.000000   0.000000   0.000001   0.013595
    14  C    0.000000  -0.000000   0.000000   0.000000   0.000000  -0.000205
    15  C    0.000001  -0.000000   0.000000  -0.000000   0.000014  -0.001820
    16  C    0.000022  -0.000000   0.000000   0.000000   0.000076   0.013801
    17  O    0.000006  -0.000000   0.000000   0.000023   0.036621   0.000182
    18  H    0.002960  -0.000024  -0.000001   0.000012  -0.000670  -0.000072
    19  H    0.686930  -0.013146  -0.000232   0.000023  -0.000083  -0.000000
    20  H   -0.013146   0.668331  -0.012370  -0.000258   0.000011   0.000000
    21  H   -0.000232  -0.012370   0.673118  -0.011997  -0.000188  -0.000000
    22  H    0.000023  -0.000258  -0.011997   0.665224  -0.012705  -0.000000
    23  H   -0.000083   0.000011  -0.000188  -0.012705   0.603720  -0.000009
    24  H   -0.000000   0.000000  -0.000000  -0.000000  -0.000009   0.621788
    25  H    0.000000   0.000000  -0.000000  -0.000000  -0.000000  -0.011201
    26  H    0.000000   0.000000   0.000000   0.000000   0.000000  -0.000002
    27  H    0.000000   0.000000   0.000000   0.000000   0.000000   0.000008
    28  H   -0.000000  -0.000000  -0.000000  -0.000000  -0.000000   0.000001
    29  H   -0.000000   0.000000  -0.000000  -0.000000  -0.000001   0.000020
    30  H   -0.000020  -0.000000  -0.000000   0.000000  -0.000279  -0.000207
              25         26         27         28         29         30
     1  O   -0.000008   0.000000   0.000000  -0.000000   0.000000   0.000175
     2  S   -0.000161  -0.000000  -0.000000   0.000000  -0.000155  -0.007350
     3  N    0.000003   0.000000   0.000000  -0.000000   0.000002   0.002461
     4  C   -0.000000  -0.000000  -0.000000   0.000000  -0.000001   0.000369
     5  C    0.000000  -0.000000   0.000000  -0.000000   0.000000  -0.000102
     6  C    0.000000  -0.000000  -0.000000  -0.000000   0.000000  -0.000002
     7  C    0.000000  -0.000000  -0.000000   0.000000   0.000000  -0.000011
     8  C   -0.000000  -0.000000   0.000000  -0.000000  -0.000000   0.000081
     9  C    0.000000  -0.000000  -0.000000   0.000000   0.000001   0.000438
    10  C    0.016854   0.000006  -0.000011   0.000127   0.016311  -0.080471
    11  C   -0.066653   0.000700  -0.000538  -0.000073  -0.002035   0.012144
    12  C    0.461667  -0.007746   0.008118  -0.004384   0.014659  -0.001369
    13  C   -0.078400  -0.018471  -0.018486  -0.012535  -0.074237   0.014357
    14  C   -0.012744   0.391903   0.392504   0.389465  -0.014560  -0.000258
    15  C    0.014365   0.006311  -0.009893  -0.002006   0.459347  -0.047790
    16  C   -0.001960  -0.000525   0.000875  -0.000442  -0.066543   0.450003
    17  O    0.000002  -0.000000   0.000000   0.000000  -0.000002   0.003234
    18  H   -0.000001  -0.000000  -0.000000   0.000000  -0.000001   0.000133
    19  H    0.000000   0.000000   0.000000  -0.000000  -0.000000  -0.000020
    20  H    0.000000   0.000000   0.000000  -0.000000   0.000000  -0.000000
    21  H   -0.000000   0.000000   0.000000  -0.000000  -0.000000  -0.000000
    22  H   -0.000000   0.000000   0.000000  -0.000000  -0.000000   0.000000
    23  H   -0.000000   0.000000   0.000000  -0.000000  -0.000001  -0.000279
    24  H   -0.011201  -0.000002   0.000008   0.000001   0.000020  -0.000207
    25  H    0.666107   0.003826   0.000139   0.000967  -0.000225   0.000024
    26  H    0.003826   0.615961  -0.021925  -0.017199   0.000182   0.000008
    27  H    0.000139  -0.021925   0.622529  -0.017607   0.005008   0.000001
    28  H    0.000967  -0.017199  -0.017607   0.600426   0.000574   0.000006
    29  H   -0.000225   0.000182   0.005008   0.000574   0.666043  -0.012028
    30  H    0.000024   0.000008   0.000001   0.000006  -0.012028   0.644576
 Mulliken charges:
               1
     1  O   -0.484611
     2  S    0.942328
     3  N   -0.304750
     4  C    0.125168
     5  C   -0.049860
     6  C   -0.006358
     7  C   -0.010647
     8  C   -0.004880
     9  C   -0.069474
    10  C   -0.087437
    11  C    0.002226
    12  C   -0.027440
    13  C   -0.076041
    14  C    0.030640
    15  C   -0.032907
    16  C    0.045897
    17  O   -0.454209
    18  H    0.166868
    19  H   -0.006794
    20  H    0.014797
    21  H    0.010578
    22  H    0.016375
    23  H    0.041147
    24  H    0.033544
    25  H    0.007398
    26  H    0.046970
    27  H    0.039278
    28  H    0.062678
    29  H    0.007640
    30  H    0.021878
 Sum of Mulliken charges =  -0.00000
 Mulliken charges with hydrogens summed into heavy atoms:
               1
     1  O   -0.484611
     2  S    0.942328
     3  N   -0.137882
     4  C    0.125168
     5  C   -0.056654
     6  C    0.008439
     7  C   -0.000070
     8  C    0.011495
     9  C   -0.028327
    10  C   -0.087437
    11  C    0.035770
    12  C   -0.020042
    13  C   -0.076041
    14  C    0.179565
    15  C   -0.025267
    16  C    0.067775
    17  O   -0.454209
 Electronic spatial extent (au):  <R**2>=           5371.0967
 Charge=             -0.0000 electrons
 Dipole moment (field-independent basis, Debye):
    X=              2.0012    Y=             -3.5144    Z=             -1.6801  Tot=              4.3793
 Quadrupole moment (field-independent basis, Debye-Ang):
   XX=            -86.6310   YY=           -111.9964   ZZ=           -104.8884
   XY=             -0.0222   XZ=             -0.2100   YZ=             -1.1402
 Traceless Quadrupole moment (field-independent basis, Debye-Ang):
   XX=             14.5409   YY=            -10.8245   ZZ=             -3.7164
   XY=             -0.0222   XZ=             -0.2100   YZ=             -1.1402
 Octapole moment (field-independent basis, Debye-Ang**2):
  XXX=             45.1156  YYY=             -9.5583  ZZZ=            -11.9060  XYY=             17.4706
  XXY=            -21.1250  XXZ=             -1.8410  XZZ=            -15.6505  YZZ=             -2.8809
  YYZ=              4.2531  XYZ=             -9.1206
 Hexadecapole moment (field-independent basis, Debye-Ang**3):
 XXXX=          -5236.7382 YYYY=          -1105.9791 ZZZZ=           -491.0360 XXXY=             56.3551
 XXXZ=            -79.4149 YYYX=            -35.3866 YYYZ=             10.5820 ZZZX=             -3.4239
 ZZZY=              0.0081 XXYY=          -1081.3498 XXZZ=          -1013.2151 YYZZ=           -268.1848
 XXYZ=              7.8065 YYXZ=             18.2796 ZZXY=              6.4952
 N-N= 1.296862386554D+03 E-N=-5.182477613454D+03  KE= 1.097915628393D+03
   1 Symmetry operations used in ECPInt.
 ECPInt:  NShTT=   10296 NPrTT=   38220 LenC2=    9258 LenP2D=   24284.
 LDataN:  DoStor=T MaxTD1= 5 Len=  102
 Calling FoFJK, ICntrl=      2127 FMM=F ISym2X=0 I1Cent= 0 IOpClX= 0 NMat=1 NMatS=1 NMatT=0.
 ***** Axes restored to original set *****
 -------------------------------------------------------------------
 Center     Atomic                   Forces (Hartrees/Bohr)
 Number     Number              X              Y              Z
 -------------------------------------------------------------------
      1        8           0.010753100   -0.031936814   -0.039594534
      2       16          -0.034083021    0.033526421   -0.003484933
      3        7          -0.001963823    0.020666688   -0.027666751
      4        6           0.028389805   -0.009753516   -0.006611902
      5        6          -0.014435590    0.006565899    0.001436084
      6        6           0.003310547   -0.000677480   -0.001175147
      7        6           0.007282665   -0.002037925   -0.003093930
      8        6           0.005013942   -0.005451045    0.002840114
      9        6          -0.012548992    0.002468528    0.002908946
     10        6           0.009035704    0.011595078    0.003259607
     11        6          -0.002109217    0.010284018    0.006135823
     12        6           0.001502412   -0.001582374   -0.002194567
     13        6          -0.004036050   -0.001860218    0.001589215
     14        6          -0.003251409   -0.000856920   -0.003923960
     15        6           0.002302402    0.002752736    0.000185790
     16        6           0.005505352   -0.007092088   -0.007404040
     17        8          -0.007207886   -0.011456492    0.054096206
     18        1           0.001479921   -0.002053829    0.021172810
     19        1          -0.003679619   -0.004912668    0.011575598
     20        1           0.005066296   -0.006364578    0.006564087
     21        1           0.009720435   -0.003177429   -0.003019793
     22        1           0.002378908    0.004068628   -0.009033458
     23        1          -0.000517510    0.004084034   -0.006757936
     24        1           0.000183354    0.008751211    0.005686849
     25        1          -0.009034565    0.005684847    0.005009081
     26        1          -0.005415818    0.003370411    0.000400518
     27        1          -0.000430893   -0.004638489   -0.003840634
     28        1          -0.002035690   -0.004067672    0.006156550
     29        1           0.000633332   -0.009878107   -0.006264656
     30        1           0.008191908   -0.006020857   -0.004951037
 -------------------------------------------------------------------
 Cartesian Forces:  Max     0.054096206 RMS     0.012049099

 GradGradGradGradGradGradGradGradGradGradGradGradGradGradGradGradGradGrad
 Berny optimization.
 FormGI is forming the generalized inverse of G from B-inverse, IUseBI=4.
 Internal  Forces:  Max     0.057961381 RMS     0.010715682
 Search for a local minimum.
 Step number   1 out of a maximum of  162
 All quantities printed in internal units (Hartrees-Bohrs-Radians)
 Mixed Optimization -- RFO/linear search
 Second derivative matrix not updated -- first step.
 ITU=  0
     Eigenvalues ---    0.00423   0.00926   0.01186   0.01608   0.01744
     Eigenvalues ---    0.01744   0.01992   0.02131   0.02240   0.02268
     Eigenvalues ---    0.02270   0.02300   0.02309   0.02339   0.02348
     Eigenvalues ---    0.02348   0.02370   0.02385   0.02387   0.02394
     Eigenvalues ---    0.02397   0.02422   0.02989   0.07311   0.07342
     Eigenvalues ---    0.09920   0.11628   0.12102   0.12963   0.15999
     Eigenvalues ---    0.16000   0.16000   0.16000   0.16000   0.16000
     Eigenvalues ---    0.16000   0.16000   0.16000   0.16000   0.16000
     Eigenvalues ---    0.16000   0.17335   0.22000   0.22000   0.22000
     Eigenvalues ---    0.22977   0.23194   0.23458   0.23997   0.24989
     Eigenvalues ---    0.24996   0.25000   0.25000   0.26436   0.33683
     Eigenvalues ---    0.34767   0.34775   0.34776   0.34908   0.36252
     Eigenvalues ---    0.36274   0.36288   0.36299   0.36303   0.36438
     Eigenvalues ---    0.36444   0.36509   0.36751   0.42546   0.43420
     Eigenvalues ---    0.44026   0.44264   0.46282   0.47064   0.47804
     Eigenvalues ---    0.47938   0.48056   0.49083   0.49244   0.49301
     Eigenvalues ---    0.50050   0.50122   0.76171   0.76493
 RFO step:  Lambda=-4.37898085D-02 EMin= 4.23430861D-03
 Linear search not attempted -- first point.
 Maximum step size (   0.300) exceeded in Quadratic search.
    -- Step size scaled by   0.882
 Iteration  1 RMS(Cart)=  0.17736619 RMS(Int)=  0.00594711
 Iteration  2 RMS(Cart)=  0.01816429 RMS(Int)=  0.00065405
 Iteration  3 RMS(Cart)=  0.00022410 RMS(Int)=  0.00065022
 Iteration  4 RMS(Cart)=  0.00000022 RMS(Int)=  0.00065022
 Variable       Old X    -DE/DX   Delta X   Delta X   Delta X     New X
                                 (Linear)    (Quad)   (Total)
    R1        2.83749  -0.05153   0.00000  -0.05641  -0.05641   2.78108
    R2        3.22824   0.00808   0.00000   0.01814   0.01814   3.24638
    R3        3.39392  -0.00403   0.00000  -0.01153  -0.01153   3.38239
    R4        2.83564  -0.05527   0.00000  -0.06026  -0.06026   2.77537
    R5        2.63814   0.03243   0.00000   0.05645   0.05645   2.69459
    R6        1.88705   0.02008   0.00000   0.03385   0.03385   1.92090
    R7        2.64613   0.00501   0.00000   0.00818   0.00817   2.65431
    R8        2.64553   0.00741   0.00000   0.01279   0.01279   2.65833
    R9        2.59862   0.01569   0.00000   0.02510   0.02509   2.62371
   R10        2.03292   0.01306   0.00000   0.02815   0.02815   2.06108
   R11        2.60892   0.01081   0.00000   0.01812   0.01812   2.62704
   R12        2.03633   0.01040   0.00000   0.02255   0.02255   2.05888
   R13        2.60822   0.01223   0.00000   0.02079   0.02080   2.62902
   R14        2.03617   0.01066   0.00000   0.02310   0.02310   2.05926
   R15        2.59638   0.02002   0.00000   0.03268   0.03268   2.62906
   R16        2.03655   0.01010   0.00000   0.02190   0.02190   2.05845
   R17        2.02923   0.00658   0.00000   0.01410   0.01410   2.04333
   R18        2.59641   0.01682   0.00000   0.02764   0.02764   2.62405
   R19        2.59631   0.01925   0.00000   0.03152   0.03153   2.62784
   R20        2.60801   0.01256   0.00000   0.02073   0.02073   2.62874
   R21        2.03689   0.01041   0.00000   0.02258   0.02258   2.05948
   R22        2.62175   0.01418   0.00000   0.02351   0.02351   2.64526
   R23        2.03402   0.01171   0.00000   0.02530   0.02530   2.05933
   R24        2.81169   0.01279   0.00000   0.02963   0.02963   2.84132
   R25        2.62254   0.01554   0.00000   0.02583   0.02582   2.64836
   R26        2.06054   0.00622   0.00000   0.01401   0.01401   2.07455
   R27        2.06041   0.00591   0.00000   0.01331   0.01331   2.07373
   R28        2.06040   0.00762   0.00000   0.01715   0.01715   2.07755
   R29        2.60804   0.01025   0.00000   0.01688   0.01688   2.62492
   R30        2.03394   0.01164   0.00000   0.02513   0.02513   2.05907
   R31        2.03610   0.01109   0.00000   0.02404   0.02404   2.06015
    A1        1.84601  -0.00434   0.00000  -0.01910  -0.02102   1.82499
    A2        1.87461  -0.00012   0.00000   0.01375   0.01395   1.88856
    A3        2.12833  -0.00196   0.00000  -0.02867  -0.03038   2.09796
    A4        1.68002   0.02058   0.00000   0.07866   0.07841   1.75842
    A5        2.03199  -0.00842   0.00000  -0.03425  -0.03652   1.99548
    A6        1.84378   0.00079   0.00000   0.02254   0.02326   1.86704
    A7        2.10794   0.05796   0.00000   0.19173   0.19024   2.29818
    A8        1.78027  -0.01431   0.00000  -0.02083  -0.02204   1.75823
    A9        2.01221  -0.02068   0.00000  -0.06367  -0.06759   1.94461
   A10        2.07569  -0.02588   0.00000  -0.07694  -0.07695   1.99874
   A11        2.15740   0.02422   0.00000   0.07342   0.07337   2.23077
   A12        2.04997   0.00165   0.00000   0.00329   0.00326   2.05323
   A13        2.11364   0.00283   0.00000   0.00757   0.00756   2.12119
   A14        2.06886  -0.00029   0.00000   0.00108   0.00109   2.06995
   A15        2.10067  -0.00254   0.00000  -0.00865  -0.00864   2.09203
   A16        2.09811   0.00043   0.00000   0.00136   0.00135   2.09946
   A17        2.09275  -0.00128   0.00000  -0.00529  -0.00529   2.08746
   A18        2.09233   0.00085   0.00000   0.00393   0.00393   2.09626
   A19        2.09164  -0.00541   0.00000  -0.01620  -0.01619   2.07545
   A20        2.09601   0.00229   0.00000   0.00632   0.00632   2.10233
   A21        2.09553   0.00312   0.00000   0.00988   0.00987   2.10541
   A22        2.09662   0.00496   0.00000   0.01865   0.01866   2.11528
   A23        2.09385  -0.00111   0.00000  -0.00337  -0.00338   2.09047
   A24        2.09272  -0.00386   0.00000  -0.01528  -0.01529   2.07743
   A25        2.11640  -0.00447   0.00000  -0.01469  -0.01467   2.10173
   A26        2.07206   0.00670   0.00000   0.02666   0.02665   2.09871
   A27        2.09467  -0.00222   0.00000  -0.01193  -0.01194   2.08273
   A28        2.09046  -0.00283   0.00000  -0.00941  -0.00944   2.08102
   A29        2.09189  -0.00062   0.00000  -0.00278  -0.00281   2.08908
   A30        2.10083   0.00344   0.00000   0.01218   0.01218   2.11301
   A31        2.09287  -0.00388   0.00000  -0.01177  -0.01177   2.08110
   A32        2.07821   0.00258   0.00000   0.00867   0.00866   2.08688
   A33        2.11210   0.00130   0.00000   0.00311   0.00310   2.11520
   A34        2.10403   0.00232   0.00000   0.00706   0.00706   2.11108
   A35        2.09647  -0.00248   0.00000  -0.00926  -0.00925   2.08722
   A36        2.08269   0.00016   0.00000   0.00219   0.00220   2.08489
   A37        2.10231   0.00030   0.00000   0.00169   0.00170   2.10401
   A38        2.07186  -0.00050   0.00000  -0.00303  -0.00305   2.06881
   A39        2.10864   0.00021   0.00000   0.00142   0.00142   2.11006
   A40        1.93759   0.00102   0.00000   0.00486   0.00485   1.94244
   A41        1.94154   0.00104   0.00000   0.00531   0.00529   1.94683
   A42        1.93342   0.00027   0.00000  -0.00010  -0.00010   1.93332
   A43        1.87880  -0.00012   0.00000   0.00188   0.00184   1.88064
   A44        1.88553  -0.00131   0.00000  -0.00725  -0.00725   1.87828
   A45        1.88468  -0.00102   0.00000  -0.00526  -0.00526   1.87941
   A46        2.10474   0.00235   0.00000   0.00703   0.00703   2.11177
   A47        2.08300   0.00012   0.00000   0.00211   0.00211   2.08511
   A48        2.09545  -0.00248   0.00000  -0.00914  -0.00914   2.08631
   A49        2.09197  -0.00373   0.00000  -0.01141  -0.01140   2.08058
   A50        2.08221   0.00406   0.00000   0.01522   0.01521   2.09742
   A51        2.10900  -0.00033   0.00000  -0.00381  -0.00381   2.10519
    D1       -2.03881   0.00732   0.00000   0.04146   0.03898  -1.99982
    D2        0.21995   0.00931   0.00000   0.07971   0.08048   0.30043
    D3        2.32274   0.00139   0.00000   0.00425   0.00229   2.32503
    D4       -1.70169   0.00338   0.00000   0.04251   0.04378  -1.65791
    D5        0.38651  -0.00875   0.00000  -0.05647  -0.05689   0.32963
    D6        2.64527  -0.00676   0.00000  -0.01822  -0.01540   2.62987
    D7        0.27415  -0.00187   0.00000  -0.01367  -0.01415   0.26000
    D8       -2.86819  -0.00270   0.00000  -0.02580  -0.02620  -2.89439
    D9        2.17161   0.00103   0.00000  -0.00212  -0.00250   2.16910
   D10       -0.97073   0.00020   0.00000  -0.01425  -0.01456  -0.98529
   D11       -2.02225   0.00010   0.00000  -0.00229  -0.00154  -2.02379
   D12        1.11859  -0.00072   0.00000  -0.01441  -0.01359   1.10500
   D13        2.90698   0.00504   0.00000   0.02406   0.02256   2.92955
   D14       -0.25270   0.00395   0.00000   0.00881   0.00729  -0.24541
   D15        0.75491  -0.00770   0.00000  -0.06284  -0.06132   0.69359
   D16       -2.40477  -0.00879   0.00000  -0.07809  -0.07660  -2.48137
   D17        3.12763  -0.00034   0.00000  -0.00751  -0.00688   3.12075
   D18       -0.00800  -0.00049   0.00000  -0.00914  -0.00860  -0.01660
   D19        0.00301   0.00043   0.00000   0.00600   0.00590   0.00891
   D20       -3.13262   0.00027   0.00000   0.00437   0.00418  -3.12844
   D21       -3.12745   0.00118   0.00000   0.01361   0.01419  -3.11326
   D22        0.02489   0.00085   0.00000   0.00953   0.00994   0.03483
   D23       -0.00370  -0.00016   0.00000  -0.00222  -0.00223  -0.00594
   D24       -3.13455  -0.00049   0.00000  -0.00630  -0.00649  -3.14104
   D25       -0.00090  -0.00035   0.00000  -0.00514  -0.00500  -0.00591
   D26       -3.14155  -0.00021   0.00000  -0.00275  -0.00273   3.13890
   D27        3.13462  -0.00018   0.00000  -0.00345  -0.00322   3.13140
   D28       -0.00603  -0.00004   0.00000  -0.00106  -0.00095  -0.00699
   D29       -0.00065   0.00002   0.00000   0.00040   0.00035  -0.00030
   D30        3.14044   0.00011   0.00000   0.00172   0.00165  -3.14110
   D31        3.14000  -0.00013   0.00000  -0.00200  -0.00193   3.13807
   D32       -0.00210  -0.00003   0.00000  -0.00068  -0.00064  -0.00273
   D33       -0.00003   0.00023   0.00000   0.00331   0.00323   0.00320
   D34        3.13836   0.00015   0.00000   0.00178   0.00180   3.14016
   D35       -3.14112   0.00014   0.00000   0.00199   0.00194  -3.13918
   D36       -0.00272   0.00005   0.00000   0.00046   0.00050  -0.00222
   D37        0.00228  -0.00015   0.00000  -0.00235  -0.00227   0.00001
   D38        3.13298   0.00023   0.00000   0.00202   0.00218   3.13517
   D39       -3.13612  -0.00008   0.00000  -0.00085  -0.00086  -3.13698
   D40       -0.00541   0.00031   0.00000   0.00352   0.00359  -0.00183
   D41        3.13864  -0.00064   0.00000  -0.00904  -0.00905   3.12959
   D42       -0.00505  -0.00073   0.00000  -0.01020  -0.01021  -0.01526
   D43       -0.00220   0.00019   0.00000   0.00315   0.00318   0.00098
   D44        3.13729   0.00010   0.00000   0.00200   0.00202   3.13931
   D45       -3.13958   0.00065   0.00000   0.00918   0.00923  -3.13035
   D46        0.00318   0.00065   0.00000   0.00916   0.00920   0.01238
   D47        0.00126  -0.00018   0.00000  -0.00303  -0.00306  -0.00180
   D48       -3.13917  -0.00019   0.00000  -0.00305  -0.00309   3.14093
   D49       -0.00447   0.00010   0.00000   0.00117   0.00118  -0.00329
   D50        3.13722   0.00006   0.00000   0.00066   0.00066   3.13789
   D51        3.13927   0.00019   0.00000   0.00234   0.00235  -3.14157
   D52       -0.00223   0.00014   0.00000   0.00183   0.00184  -0.00039
   D53        3.12436  -0.00019   0.00000  -0.00237  -0.00238   3.12199
   D54        0.01183  -0.00041   0.00000  -0.00554  -0.00553   0.00630
   D55       -0.01733  -0.00015   0.00000  -0.00187  -0.00186  -0.01919
   D56       -3.12986  -0.00036   0.00000  -0.00503  -0.00502  -3.13488
   D57        0.67729  -0.00079   0.00000  -0.00680  -0.00682   0.67047
   D58        2.76911   0.00043   0.00000   0.00236   0.00238   2.77149
   D59       -1.41762   0.00001   0.00000  -0.00082  -0.00082  -1.41845
   D60       -2.49399  -0.00058   0.00000  -0.00364  -0.00366  -2.49765
   D61       -0.40216   0.00064   0.00000   0.00552   0.00554  -0.39663
   D62        1.69429   0.00022   0.00000   0.00233   0.00234   1.69662
   D63       -0.01278   0.00041   0.00000   0.00565   0.00564  -0.00714
   D64        3.12887   0.00039   0.00000   0.00538   0.00537   3.13424
   D65       -3.12520   0.00019   0.00000   0.00247   0.00247  -3.12274
   D66        0.01645   0.00017   0.00000   0.00220   0.00220   0.01864
   D67        0.00636  -0.00012   0.00000  -0.00141  -0.00141   0.00495
   D68       -3.13642  -0.00011   0.00000  -0.00137  -0.00137  -3.13779
   D69       -3.13529  -0.00010   0.00000  -0.00114  -0.00114  -3.13643
   D70        0.00512  -0.00009   0.00000  -0.00110  -0.00110   0.00402
         Item               Value     Threshold  Converged?
 Maximum Force            0.057961     0.000450     NO 
 RMS     Force            0.010716     0.000300     NO 
 Maximum Displacement     0.719759     0.001800     NO 
 RMS     Displacement     0.189714     0.001200     NO 
 Predicted change in Energy=-2.410120D-02
 GradGradGradGradGradGradGradGradGradGradGradGradGradGradGradGradGradGrad

                          Input orientation:                          
 ---------------------------------------------------------------------
 Center     Atomic      Atomic             Coordinates (Angstroms)
 Number     Number       Type             X           Y           Z
 ---------------------------------------------------------------------
      1          8           0       -0.181490    2.291421    1.237986
      2         16           0       -0.088059    1.355495    0.106102
      3          7           0        0.983523    0.127197    0.648522
      4          6           0        2.283403   -0.259380    0.207945
      5          6           0        2.954637   -1.138767    1.073404
      6          6           0        4.219431   -1.627314    0.774588
      7          6           0        4.853247   -1.257017   -0.405973
      8          6           0        4.199338   -0.392387   -1.277927
      9          6           0        2.933385    0.104857   -0.985257
     10          6           0       -1.623199    0.440292    0.009021
     11          6           0       -2.731080    0.898002    0.709930
     12          6           0       -3.928178    0.194809    0.623045
     13          6           0       -4.029534   -0.960112   -0.161402
     14          6           0       -5.320897   -1.727264   -0.228893
     15          6           0       -2.893882   -1.400313   -0.854647
     16          6           0       -1.693728   -0.705412   -0.775923
     17          8           0        0.198978    1.855798   -1.244558
     18          1           0        0.964473    0.288759    1.651916
     19          1           0        2.459793   -1.441362    1.997058
     20          1           0        4.712347   -2.306001    1.469897
     21          1           0        5.845734   -1.639214   -0.643406
     22          1           0        4.683570   -0.092002   -2.206277
     23          1           0        2.455356    0.779778   -1.681779
     24          1           0       -2.647851    1.797572    1.319496
     25          1           0       -4.800265    0.546964    1.173502
     26          1           0       -6.185884   -1.051399   -0.242200
     27          1           0       -5.371330   -2.353022   -1.128949
     28          1           0       -5.428076   -2.387733    0.643437
     29          1           0       -2.953837   -2.301438   -1.464267
     30          1           0       -0.815025   -1.051399   -1.320601
 ---------------------------------------------------------------------
                    Distance matrix (angstroms):
                    1          2          3          4          5
     1  O    0.000000
     2  S    1.471683   0.000000
     3  N    2.527566   1.717913   0.000000
     4  C    3.693680   2.870893   1.425917   0.000000
     5  C    4.650653   4.051545   2.380857   1.404599   0.000000
     6  C    5.910950   5.281902   3.683110   2.437320   1.388406
     7  C    6.375154   5.612837   4.242967   2.824229   2.409826
     8  C    5.720516   4.832432   3.784526   2.428233   2.763173
     9  C    4.407530   3.447358   2.543953   1.406725   2.405232
    10  C    2.648690   1.789882   2.702220   3.973745   4.958117
    11  C    2.953111   2.749449   3.794231   5.170741   6.050448
    12  C    4.337235   4.044866   4.912232   6.241982   7.025268
    13  C    5.228594   4.579172   5.193164   6.362437   7.094738
    14  C    6.686933   6.082616   6.629826   7.756990   8.398022
    15  C    5.036376   4.048476   4.430245   5.406950   6.163681
    16  C    3.914550   2.757441   3.144829   4.121226   5.021464
    17  O    2.549029   1.468664   2.680919   3.305839   4.683378
    18  H    2.344190   2.152972   1.016496   2.031031   2.516597
    19  H    4.635325   4.229618   2.541318   2.151539   1.090675
    20  H    6.718610   6.189539   4.527609   3.417741   2.146902
    21  H    7.437537   6.688792   5.332015   3.913942   3.399460
    22  H    6.419693   5.496433   4.678490   3.408413   3.852432
    23  H    4.214623   3.161792   2.832394   2.163440   3.394279
    24  H    2.516638   2.867105   4.053053   5.457459   6.330128
    25  H    4.937648   4.898770   5.822715   7.194500   7.936637
    26  H    7.029804   6.564901   7.320032   8.518142   9.235127
    27  H    7.355792   6.572017   7.049471   8.047705   8.697500
    28  H    7.055114   6.543415   6.887198   8.011645   8.486145
    29  H    6.006866   4.904274   5.085760   5.864723   6.534649
    30  H    4.257016   2.890865   2.915700   3.544573   4.466458
                    6          7          8          9         10
     6  C    0.000000
     7  C    1.390168   0.000000
     8  C    2.395468   1.391217   0.000000
     9  C    2.784131   2.424075   1.391239   0.000000
    10  C    6.244791   6.708012   6.020924   4.675849   0.000000
    11  C    7.395336   7.963125   7.324436   5.965643   1.388586
    12  C    8.350247   8.959916   8.367497   7.048104   2.397961
    13  C    8.328664   8.891105   8.323657   7.091906   2.789376
    14  C    9.593478  10.186545   9.670432   8.488929   4.292770
    15  C    7.301037   7.761433   7.176966   6.019936   2.397579
    16  C    6.182186   6.580578   5.922687   4.702183   1.390593
    17  O    5.689733   5.661719   4.588935   3.257301   2.625918
    18  H    3.877601   4.663357   4.417272   3.296228   3.068894
    19  H    2.150660   3.396640   3.853816   3.392534   4.915662
    20  H    1.089513   2.153859   3.387571   3.873594   7.058005
    21  H    2.157710   1.089715   2.160513   3.411807   7.780422
    22  H    3.384991   2.151080   1.089286   2.143080   6.705685
    23  H    3.865202   3.395010   2.139752   1.081282   4.428167
    24  H    7.693265   8.280956   7.643724   6.271153   2.146967
    25  H    9.286631   9.946827   9.374686   8.041457   3.385431
    26  H   10.470726  11.042260  10.457527   9.222262   4.806906
    27  H    9.804733  10.308535   9.770567   8.661992   4.811036
    28  H    9.678317  10.396412  10.017991   8.875792   4.783022
    29  H    7.544712   7.947412   7.405884   6.378016   3.385005
    30  H    5.483360   5.745269   5.057663   3.936998   2.155501
                   11         12         13         14         15
    11  C    0.000000
    12  C    1.391069   0.000000
    13  C    2.428536   1.399811   0.000000
    14  C    3.805334   2.521870   1.503562   0.000000
    15  C    2.785078   2.407853   1.401453   2.527621   0.000000
    16  C    2.419668   2.785728   2.428682   3.807858   1.389048
    17  O    3.650018   4.824960   5.194505   6.658748   4.507779
    18  H    3.862075   5.000543   5.457829   6.863503   4.901298
    19  H    5.837335   6.735810   6.855794   8.097885   6.065949
    20  H    8.139275   9.034926   8.994056  10.192489   8.004905
    21  H    9.046033  10.024814   9.910318  11.174669   8.745431
    22  H    8.028785   9.069152   8.991846  10.328286   7.807455
    23  H    5.712562   6.812042   6.884225   8.298569   5.835348
    24  H    1.089827   2.166363   3.421538   4.686913   3.874777
    25  H    2.149338   1.089748   2.155753   2.722110   3.396995
    26  H    4.079508   2.720095   2.159794   1.097804   3.366617
    27  H    4.574009   3.412274   2.162583   1.097369   2.668454
    28  H    4.251384   2.986576   2.154482   1.099394   3.105060
    29  H    3.874683   3.396684   2.157252   2.731080   1.089613
    30  H    3.405068   3.875889   3.418354   4.685243   2.158819
                   16         17         18         19         20
    16  C    0.000000
    17  O    3.218967   0.000000
    18  H    3.734810   3.380999   0.000000
    19  H    5.048047   5.146904   2.312666   0.000000
    20  H    6.974481   6.712626   4.562069   2.469717   0.000000
    21  H    7.598225   6.668009   5.728202   4.298348   2.489020
    22  H    6.564458   4.983010   5.372366   4.943074   4.291489
    23  H    4.499029   2.537759   3.684746   4.297363   4.954705
    24  H    3.400891   3.831735   3.928855   6.085870   8.428194
    25  H    3.875471   5.705479   5.790315   7.572326   9.935645
    26  H    4.536963   7.086817   7.517400   8.939467  11.103006
    27  H    4.045245   6.982540   7.406390   8.481128  10.413297
    28  H    4.334760   7.296288   7.003237   8.058932  10.174375
    29  H    2.146856   5.222177   5.636743   6.482892   8.208515
[...]
     2  S    0.000025   0.000175  -0.008169   0.307989  -0.039180   0.005742
     3  N    0.000974   0.005943  -0.019554  -0.061449   0.000037  -0.001190
     4  C   -0.112021   0.025709   0.363623   0.045012   0.001024   0.000250
     5  C    0.035570  -0.098009   0.057854  -0.000175  -0.001914   0.000795
     6  C    0.439096   0.022549  -0.090394  -0.001761  -0.000680  -0.000051
     7  C    4.963728   0.413193   0.048680  -0.000158  -0.000059   0.000020
     8  C    0.413193   4.971001   0.385908  -0.000068   0.000171  -0.000008
     9  C    0.048680   0.385908   5.133565   0.003466   0.000327   0.000048
    10  C   -0.000158  -0.000068   0.003466   5.294004   0.368118   0.015623
    11  C   -0.000059   0.000171   0.000327   0.368118   5.106084   0.404484
    12  C    0.000020  -0.000008   0.000048   0.015623   0.404484   5.062905
    13  C    0.000042  -0.000039   0.000219  -0.090528   0.016214   0.432311
    14  C   -0.000001  -0.000001   0.000006  -0.004307   0.013150  -0.073386
    15  C   -0.000195   0.000434  -0.002490   0.049802  -0.046391  -0.014085
    16  C   -0.000705  -0.001268   0.000871   0.316264  -0.069588  -0.050396
    17  O    0.000128  -0.001110  -0.003466  -0.078722   0.006938  -0.000265
    18  H    0.000136  -0.000720   0.004524  -0.000736   0.000145  -0.000166
    19  H    0.010390  -0.003893   0.012038   0.000786   0.000380   0.000310
    20  H   -0.057144   0.010719  -0.003858   0.000005  -0.000001  -0.000003
    21  H    0.443934  -0.056275   0.011297   0.000004  -0.000000   0.000000
    22  H   -0.058354   0.446325  -0.057682  -0.000016   0.000001  -0.000000
    23  H    0.010215  -0.048921   0.434637   0.001828  -0.000172   0.000007
    24  H   -0.000003   0.000007  -0.000018  -0.045626   0.432615  -0.048532
    25  H   -0.000000   0.000000  -0.000002   0.011284  -0.048869   0.443198
    26  H    0.000000  -0.000000   0.000000   0.000065   0.001946  -0.006510
    27  H    0.000000   0.000000  -0.000000   0.000161  -0.000662  -0.004583
    28  H   -0.000000   0.000000   0.000000   0.000055  -0.000639   0.006949
    29  H    0.000008   0.000057  -0.000101   0.010712  -0.003657   0.012778
    30  H    0.000105   0.000350   0.000015  -0.046331   0.008176  -0.002425
              13         14         15         16         17         18
     1  O    0.000166   0.000001  -0.000586   0.008736  -0.043929   0.004370
     2  S   -0.000535   0.000005   0.004867  -0.016546   0.565031  -0.016602
     3  N    0.000226  -0.000004   0.000051   0.006354  -0.050071   0.365623
     4  C   -0.000717   0.000007   0.001885  -0.002552  -0.007685  -0.051471
     5  C   -0.000462   0.000008  -0.000563  -0.014241   0.001074   0.008837
     6  C    0.000056  -0.000016   0.002006   0.001199   0.000101   0.001087
     7  C    0.000042  -0.000001  -0.000195  -0.000705   0.000128   0.000136
     8  C   -0.000039  -0.000001   0.000434  -0.001268  -0.001110  -0.000720
     9  C    0.000219   0.000006  -0.002490   0.000871  -0.003466   0.004524
    10  C   -0.090528  -0.004307   0.049802   0.316264  -0.078722  -0.000736
    11  C    0.016214   0.013150  -0.046391  -0.069588   0.006938   0.000145
    12  C    0.432311  -0.073386  -0.014085  -0.050396  -0.000265  -0.000166
    13  C    4.972681   0.297550   0.412554   0.033030  -0.000113   0.000064
    14  C    0.297550   4.958421  -0.073668   0.013801  -0.000000   0.000000
    15  C    0.412554  -0.073668   5.100217   0.357385   0.002964  -0.000043
    16  C    0.033030   0.013801   0.357385   5.142062   0.018595   0.000707
    17  O   -0.000113  -0.000000   0.002964   0.018595   8.031247   0.002676
    18  H    0.000064   0.000000  -0.000043   0.000707   0.002676   0.429406
    19  H   -0.000009  -0.000000  -0.000258  -0.000269  -0.000017   0.003563
    20  H   -0.000005   0.000000   0.000022   0.000029  -0.000000  -0.000040
    21  H   -0.000001   0.000000  -0.000002  -0.000018   0.000001  -0.000002
    22  H   -0.000000  -0.000000   0.000008  -0.000004  -0.000038   0.000013
    23  H    0.000015   0.000000  -0.000158  -0.000442   0.008972  -0.000050
    24  H    0.008424  -0.000057  -0.002425   0.008280   0.000543   0.000364
    25  H   -0.062063  -0.006796   0.012870  -0.003857   0.000004  -0.000009
    26  H   -0.054900   0.427649   0.007943  -0.000710   0.000000   0.000000
    27  H   -0.017376   0.390170  -0.004878  -0.000731  -0.000000  -0.000000
    28  H   -0.053277   0.427610  -0.006656   0.001934   0.000000  -0.000000
    29  H   -0.063182  -0.006641   0.444513  -0.048550  -0.000011   0.000000
    30  H    0.008916  -0.000031  -0.049469   0.436244   0.008186  -0.000098
              19         20         21         22         23         24
     1  O   -0.000175  -0.000000   0.000000  -0.000000  -0.000133   0.013554
     2  S   -0.000121  -0.000007   0.000003  -0.000003  -0.002920  -0.004414
     3  N    0.002897  -0.000360   0.000008  -0.000119  -0.001404   0.000275
     4  C   -0.080502   0.015211  -0.003964   0.013945  -0.044799  -0.000183
     5  C    0.439952  -0.053930   0.012198  -0.003504   0.011286  -0.000132
     6  C   -0.031467   0.438887  -0.056088   0.010553  -0.004442   0.000006
     7  C    0.010390  -0.057144   0.443934  -0.058354   0.010215  -0.000003
     8  C   -0.003893   0.010719  -0.056275   0.446325  -0.048921   0.000007
     9  C    0.012038  -0.003858   0.011297  -0.057682   0.434637  -0.000018
    10  C    0.000786   0.000005   0.000004  -0.000016   0.001828  -0.045626
    11  C    0.000380  -0.000001  -0.000000   0.000001  -0.000172   0.432615
    12  C    0.000310  -0.000003   0.000000  -0.000000   0.000007  -0.048532
    13  C   -0.000009  -0.000005  -0.000001  -0.000000   0.000015   0.008424
    14  C   -0.000000   0.000000   0.000000  -0.000000   0.000000  -0.000057
    15  C   -0.000258   0.000022  -0.000002   0.000008  -0.000158  -0.002425
    16  C   -0.000269   0.000029  -0.000018  -0.000004  -0.000442   0.008280
    17  O   -0.000017  -0.000000   0.000001  -0.000038   0.008972   0.000543
    18  H    0.003563  -0.000040  -0.000002   0.000013  -0.000050   0.000364
    19  H    0.538598  -0.007507  -0.000098   0.000028   0.000012  -0.000067
    20  H   -0.007507   0.541629  -0.006650  -0.000125   0.000015   0.000000
    21  H   -0.000098  -0.006650   0.538791  -0.006847  -0.000017  -0.000000
    22  H    0.000028  -0.000125  -0.006847   0.534759  -0.006494   0.000000
    23  H    0.000012   0.000015  -0.000017  -0.006494   0.476172  -0.000005
    24  H   -0.000067   0.000000  -0.000000   0.000000  -0.000005   0.477699
    25  H   -0.000003   0.000000   0.000000   0.000000  -0.000000  -0.005563
    26  H    0.000000  -0.000000   0.000000  -0.000000  -0.000000  -0.000019
    27  H    0.000000  -0.000000  -0.000000   0.000000   0.000000   0.000007
    28  H   -0.000000   0.000000  -0.000000   0.000000  -0.000000   0.000003
    29  H   -0.000002  -0.000000  -0.000000   0.000001  -0.000007   0.000031
    30  H   -0.000053   0.000004  -0.000005  -0.000017  -0.000091  -0.000066
              25         26         27         28         29         30
     1  O   -0.000028   0.000000  -0.000000   0.000000   0.000003   0.000384
     2  S   -0.000114   0.000001  -0.000001   0.000001  -0.000100  -0.004118
     3  N    0.000017  -0.000000   0.000000  -0.000000   0.000031   0.000355
     4  C   -0.000007  -0.000001  -0.000000   0.000003   0.000037   0.000128
     5  C   -0.000002   0.000001   0.000000  -0.000002  -0.000080  -0.001668
     6  C    0.000003  -0.000001   0.000000   0.000001   0.000072   0.000168
     7  C   -0.000000   0.000000   0.000000  -0.000000   0.000008   0.000105
     8  C    0.000000  -0.000000   0.000000   0.000000   0.000057   0.000350
     9  C   -0.000002   0.000000  -0.000000   0.000000  -0.000101   0.000015
    10  C    0.011284   0.000065   0.000161   0.000055   0.010712  -0.046331
    11  C   -0.048869   0.001946  -0.000662  -0.000639  -0.003657   0.008176
    12  C    0.443198  -0.006510  -0.004583   0.006949   0.012778  -0.002425
    13  C   -0.062063  -0.054900  -0.017376  -0.053277  -0.063182   0.008916
    14  C   -0.006796   0.427649   0.390170   0.427610  -0.006641  -0.000031
    15  C    0.012870   0.007943  -0.004878  -0.006656   0.444513  -0.049469
    16  C   -0.003857  -0.000710  -0.000731   0.001934  -0.048550   0.436244
    17  O    0.000004   0.000000  -0.000000   0.000000  -0.000011   0.008186
    18  H   -0.000009   0.000000  -0.000000  -0.000000   0.000000  -0.000098
    19  H   -0.000003   0.000000   0.000000  -0.000000  -0.000002  -0.000053
    20  H    0.000000  -0.000000  -0.000000   0.000000  -0.000000   0.000004
    21  H    0.000000   0.000000  -0.000000  -0.000000  -0.000000  -0.000005
    22  H    0.000000  -0.000000   0.000000   0.000000   0.000001  -0.000017
    23  H   -0.000000  -0.000000   0.000000  -0.000000  -0.000007  -0.000091
    24  H   -0.005563  -0.000019   0.000007   0.000003   0.000031  -0.000066
    25  H    0.533415   0.001099   0.000224   0.000057  -0.000049   0.000026
    26  H    0.001099   0.542006  -0.023389  -0.023656   0.000074   0.000002
    27  H    0.000224  -0.023389   0.544765  -0.024255   0.000256   0.000008
    28  H    0.000057  -0.023656  -0.024255   0.540736   0.000876  -0.000022
    29  H   -0.000049   0.000074   0.000256   0.000876   0.533618  -0.005595
    30  H    0.000026   0.000002   0.000008  -0.000022  -0.005595   0.481727
 Mulliken charges:
               1
     1  O   -0.474532
     2  S    0.856457
     3  N   -0.316464
     4  C    0.199937
     5  C   -0.217407
     6  C   -0.096900
     7  C   -0.137602
     8  C   -0.072230
     9  C   -0.270600
    10  C    0.000979
    11  C   -0.174771
    12  C   -0.186581
    13  C    0.160740
    14  C   -0.363469
    15  C   -0.195655
    16  C   -0.135614
    17  O   -0.461032
    18  H    0.248421
    19  H    0.115487
    20  H    0.123108
    21  H    0.123730
    22  H    0.127570
    23  H    0.166897
    24  H    0.165299
    25  H    0.125165
    26  H    0.128399
    27  H    0.140285
    28  H    0.130283
    29  H    0.124908
    30  H    0.165193
 Sum of Mulliken charges =  -0.00000
 Mulliken charges with hydrogens summed into heavy atoms:
               1
     1  O   -0.474532
     2  S    0.856457
     3  N   -0.068043
     4  C    0.199937
     5  C   -0.101920
     6  C    0.026208
     7  C   -0.013872
     8  C    0.055340
     9  C   -0.103703
    10  C    0.000979
    11  C   -0.009473
    12  C   -0.061416
    13  C    0.160740
    14  C    0.035497
    15  C   -0.070747
    16  C    0.029579
    17  O   -0.461032
 Electronic spatial extent (au):  <R**2>=           4366.5671
 Charge=              0.0000 electrons
 Dipole moment (field-independent basis, Debye):
    X=              1.8221    Y=             -5.3822    Z=             -1.7647  Tot=              5.9500
 Quadrupole moment (field-independent basis, Debye-Ang):
   XX=            -96.8180   YY=           -114.0116   ZZ=           -101.0974
   XY=             -0.2827   XZ=             -2.6670   YZ=             -4.5449
 Traceless Quadrupole moment (field-independent basis, Debye-Ang):
   XX=              7.1576   YY=            -10.0360   ZZ=              2.8783
   XY=             -0.2827   XZ=             -2.6670   YZ=             -4.5449
 Octapole moment (field-independent basis, Debye-Ang**2):
  XXX=             41.9512  YYY=            -42.3699  ZZZ=            -11.7707  XYY=             -3.5024
  XXY=            -16.3269  XXZ=              7.5850  XZZ=             -2.8454  YZZ=             -0.3998
  YYZ=             -0.7604  XYZ=              0.8835
 Hexadecapole moment (field-independent basis, Debye-Ang**3):
 XXXX=          -3343.3841 YYYY=          -1978.1696 ZZZZ=           -577.7073 XXXY=            -53.3165
 XXXZ=           -112.7846 YYYX=             18.4093 YYYZ=             17.6602 ZZZX=            -13.6178
 ZZZY=            -24.0112 XXYY=           -821.9324 XXZZ=           -639.4877 YYZZ=           -410.8780
 XXYZ=            -31.6019 YYXZ=             12.7891 ZZXY=              2.1743
 N-N= 1.331933725301D+03 E-N=-5.259239378090D+03  KE= 1.102023915315D+03
 Breneman (CHELPG) radii used.
 Read replacement radii for each type of atom:
 Atom Element Radius
    1     8    1.70
    2    16    2.00
    3     7    1.70
    4     6    1.50
    5     6    1.50
    6     6    1.50
    7     6    1.50
    8     6    1.50
    9     6    1.50
   10     6    1.50
   11     6    1.50
   12     6    1.50
   13     6    1.50
   14     6    1.50
   15     6    1.50
   16     6    1.50
   17     8    1.70
   18     1    1.45
   19     1    1.45
   20     1    1.45
   21     1    1.45
   22     1    1.45
   23     1    1.45
   24     1    1.45
   25     1    1.45
   26     1    1.45
   27     1    1.45
   28     1    1.45
   29     1    1.45
   30     1    1.45
 Generate Potential Derived Charges using the Breneman model, NDens= 1.
 Grid spacing= 0.300 Box extension= 2.800
 NStep X,Y,Z=   49     42     34   Total possible points=       69972
 Number of Points to Fit=   18717

 **********************************************************************

            Electrostatic Properties Using The SCF Density.

 **********************************************************************

       Atomic Center    1 is at   0.244788  3.115718 -0.602882
       Atomic Center    2 is at  -0.211252  1.955925  0.139108
       Atomic Center    3 is at  -1.389730  1.267735 -0.841691
       Atomic Center    4 is at  -1.950898  0.004439 -0.532384
       Atomic Center    5 is at  -1.772322 -1.075449 -1.403439
       Atomic Center    6 is at  -2.334444 -2.314390 -1.105109
       Atomic Center    7 is at  -3.052674 -2.491969  0.076107
       Atomic Center    8 is at  -3.219161 -1.416663  0.949210
       Atomic Center    9 is at  -2.685244 -0.167001  0.646426
       Atomic Center   10 is at   1.098942  0.752241  0.173448
       Atomic Center   11 is at   2.134328  0.847603 -0.754226
       Atomic Center   12 is at   3.122132 -0.132144 -0.768064
       Atomic Center   13 is at   3.088694 -1.207254  0.129534
       Atomic Center   14 is at   4.177539 -2.246612  0.128491
       Atomic Center   15 is at   2.036157 -1.274961  1.051349
       Atomic Center   16 is at   1.042927 -0.301543  1.084577
       Atomic Center   17 is at  -0.759954  2.053042  1.477382
       Atomic Center   18 is at  -1.147190  1.412296 -1.817992
       Atomic Center   19 is at  -1.185515 -0.942163 -2.315847
       Atomic Center   20 is at  -2.197116 -3.148968 -1.795923
       Atomic Center   21 is at  -3.485280 -3.465635  0.314547
       Atomic Center   22 is at  -3.787166 -1.545843  1.873048
       Atomic Center   23 is at  -2.820806  0.683305  1.314747
       Atomic Center   24 is at   2.165374  1.692024 -1.445349
       Atomic Center   25 is at   3.939441 -0.058364 -1.489889
       Atomic Center   26 is at   4.629102 -2.356474 -0.867403
       Atomic Center   27 is at   4.981437 -1.962824  0.826801
       Atomic Center   28 is at   3.796948 -3.227677  0.445877
       Atomic Center   29 is at   1.993647 -2.105342  1.760454
       Atomic Center   30 is at   0.230741 -0.351151  1.811510
   18717 points will be used for fitting atomic charges
 Fitting point charges to electrostatic potential
 Charges from ESP fit, RMS=   0.00358 RRMS=   0.21879:
 ESP charges:
               1
     1  O   -0.485534
     2  S    0.935407
     3  N   -0.647433
     4  C    0.411329
     5  C   -0.269309
     6  C   -0.056486
     7  C   -0.145980
     8  C   -0.055918
     9  C   -0.219421
    10  C   -0.065721
    11  C   -0.067627
    12  C   -0.212136
    13  C    0.239453
    14  C   -0.271724
    15  C   -0.230868
    16  C   -0.035958
    17  O   -0.469888
    18  H    0.354846
    19  H    0.111085
    20  H    0.105216
    21  H    0.104705
    22  H    0.097223
    23  H    0.160388
    24  H    0.112654
    25  H    0.126858
    26  H    0.077341
    27  H    0.090139
    28  H    0.078770
    29  H    0.129018
    30  H    0.099569
 Sum of ESP charges =  -0.00000
 ESP charges with hydrogens summed into heavy atoms:
               1
     1  O   -0.485534
     2  S    0.935407
     3  N   -0.292587
     4  C    0.411329
     5  C   -0.158224
     6  C    0.048731
     7  C   -0.041275
     8  C    0.041305
     9  C   -0.059033
    10  C   -0.065721
    11  C    0.045027
    12  C   -0.085278
    13  C    0.239453
    14  C   -0.025473
    15  C   -0.101850
    16  C    0.063612
    17  O   -0.469888
 Charge=  -0.00000 Dipole=     1.7025    -5.2558    -1.7354 Tot=     5.7908
 -----------------------------------------------------------------

              Electrostatic Properties (Atomic Units)

 -----------------------------------------------------------------
    Center     Electric         -------- Electric Field --------
               Potential          X             Y             Z
 -----------------------------------------------------------------
    1 Atom    -22.373238
    2 Atom    -59.026798
    3 Atom    -18.345601
    4 Atom    -14.712676
    5 Atom    -14.755803
    6 Atom    -14.756712
    7 Atom    -14.761227
    8 Atom    -14.758980
    9 Atom    -14.763165
   10 Atom    -14.732023
   11 Atom    -14.744873
   12 Atom    -14.752124
   13 Atom    -14.736846
   14 Atom    -14.755044
   15 Atom    -14.752982
   16 Atom    -14.745692
   17 Atom    -22.373376
   18 Atom     -1.001974
   19 Atom     -1.087787
   20 Atom     -1.096083
   21 Atom     -1.099251
   22 Atom     -1.099706
   23 Atom     -1.101926
   24 Atom     -1.086167
   25 Atom     -1.090247
   26 Atom     -1.100364
   27 Atom     -1.097641
   28 Atom     -1.100254
   29 Atom     -1.091440
   30 Atom     -1.088677
 -----------------------------------------------------------------
 Unable to Open any file for archive entry.
 1\1\GINC-NOTCH454\SP\RwB97XD\def2TZVP\C13H13N1O2S1\U1366379\17-Feb-202
 6\0\\#N Guess=Read Geom=Check Integral(Ultrafine) Density Pop=(ChelpG,
 ReadRadii) NMR wB97XD def2TZVP\\prod_5l_19\\0,1\O,0,-0.4680200099,3.18
 42099365,0.9010416386\S,0,0.0088908904,2.1411991095,0.013164823\N,0,1.
 3038363389,1.4522530216,0.8334403915\C,0,1.9256368641,0.2721049336,0.3
 568776386\C,0,1.8894471799,-0.8985777538,1.1217145635\C,0,2.511354485,
 -2.055565633,0.6584998616\C,0,3.147477411,-2.0608095771,-0.581653076\C
 ,0,3.1718036913,-0.8953962992,-1.348159562\C,0,2.5775502372,0.27394985
 24,-0.8813679768\C,0,-1.2137167721,0.849975413,-0.0547695231\C,0,-2.17
 90531345,0.774264011,0.9472736751\C,0,-3.0927821237,-0.2748212655,0.92
 79943754\C,0,-3.0539980558,-1.2508726362,-0.0762380314\C,0,-4.06508797
 33,-2.3655818384,-0.1073848472\C,0,-2.0730653594,-1.1469836407,-1.0707
 92077\C,0,-1.1549880162,-0.1018595556,-1.0717833048\O,0,0.445360556,2.
 4109610726,-1.3426394685\H,0,1.1274363012,1.4812635415,1.8339043889\H,
 0,1.3665013815,-0.9008301053,2.0814643992\H,0,2.4854155102,-2.96199250
 13,1.2670391061\H,0,3.6268116535,-2.9703780034,-0.9490088153\H,0,3.674
 8872536,-0.8893871456,-2.3175218054\H,0,2.6023699147,1.1936386649,-1.4
 658397388\H,0,-2.2153351786,1.5418779484,1.7225886803\H,0,-3.855493234
 6,-0.3350441231,1.7084510324\H,0,-4.4303025436,-2.6069373753,0.9006579
 577\H,0,-4.9378413004,-2.0769611182,-0.715188188\H,0,-3.6430313961,-3.
 2787220503,-0.5502351849\H,0,-2.02772935,-1.8980243426,-1.8632901704\H
 ,0,-0.3994352202,-0.0175425406,-1.8544507622\\Version=ES64L-G16RevC.01
 \State=1-A\HF=-1106.6304771\RMSD=3.937e-09\Dipole=-0.5134307,-2.224086
 3,0.5193026\Quadrupole=4.874637,-7.8907212,3.0160842,1.5691674,-2.2791
 664,2.1122294\PG=C01 [X(C13H13N1O2S1)]\\@
 The archive entry for this job was punched.


 EVERYTHING'S GOT A MORAL, IF ONLY YOU CAN FIND IT.

                                    -- LEWIS CARROL, ALICE IN WONDERLAND
 Job cpu time:       0 days  1 hours  4 minutes 41.3 seconds.
 Elapsed time:       0 days  0 hours  8 minutes 20.7 seconds.
 File lengths (MBytes):  RWF=    226 Int=      0 D2E=      0 Chk=     34 Scr=      2
 Normal termination of Gaussian 16 at Tue Feb 17 17:34:00 2026.
