 Entering Gaussian System, Link 0=g16
 Input=prod_5l_44.com
 Output=prod_5l_44.log
 Initial command:
 /uufs/chpc.utah.edu/sys/installdir/gaussian16/C01/AVX/g16/l1.exe "/scratch/general/vast/u1366379/GAUSSSCRDIR/11028721-notchpeak.peaks/Gau-994332.inp" -scrdir="/scratch/general/vast/u1366379/GAUSSSCRDIR/11028721-notchpeak.peaks/"
 Entering Link 1 = /uufs/chpc.utah.edu/sys/installdir/gaussian16/C01/AVX/g16/l1.exe PID=    994350.
  
 Copyright (c) 1988-2019, Gaussian, Inc.  All Rights Reserved.
  
 This is part of the Gaussian(R) 16 program.  It is based on
 the Gaussian(R) 09 system (copyright 2009, Gaussian, Inc.),
 the Gaussian(R) 03 system (copyright 2003, Gaussian, Inc.),
 the Gaussian(R) 98 system (copyright 1998, Gaussian, Inc.),
 the Gaussian(R) 94 system (copyright 1995, Gaussian, Inc.),
 the Gaussian 92(TM) system (copyright 1992, Gaussian, Inc.),
 the Gaussian 90(TM) system (copyright 1990, Gaussian, Inc.),
 the Gaussian 88(TM) system (copyright 1988, Gaussian, Inc.),
 the Gaussian 86(TM) system (copyright 1986, Carnegie Mellon
 University), and the Gaussian 82(TM) system (copyright 1983,
 Carnegie Mellon University). Gaussian is a federally registered
 trademark of Gaussian, Inc.
  
 This software contains proprietary and confidential information,
 including trade secrets, belonging to Gaussian, Inc.
  
 This software is provided under written license and may be
 used, copied, transmitted, or stored only in accord with that
 written license.
  
 The following legend is applicable only to US Government
 contracts under FAR:
  
                    RESTRICTED RIGHTS LEGEND
  
 Use, reproduction and disclosure by the US Government is
 subject to restrictions as set forth in subparagraphs (a)
 and (c) of the Commercial Computer Software - Restricted
 Rights clause in FAR 52.227-19.
  
 Gaussian, Inc.
 340 Quinnipiac St., Bldg. 40, Wallingford CT 06492
  
  
 ---------------------------------------------------------------
 Warning -- This program may not be used in any manner that
 competes with the business of Gaussian, Inc. or will provide
 assistance to any competitor of Gaussian, Inc.  The licensee
 of this program is prohibited from giving any competitor of
 Gaussian, Inc. access to this program.  By using this program,
 the user acknowledges that Gaussian, Inc. is engaged in the
 business of creating and licensing software in the field of
 computational chemistry and represents and warrants to the
 licensee that it is not a competitor of Gaussian, Inc. and that
 it will not use this program in any manner prohibited above.
 ---------------------------------------------------------------
  

 Cite this work as:
 Gaussian 16, Revision C.01,
 M. J. Frisch, G. W. Trucks, H. B. Schlegel, G. E. Scuseria, 
 M. A. Robb, J. R. Cheeseman, G. Scalmani, V. Barone, 
 G. A. Petersson, H. Nakatsuji, X. Li, M. Caricato, A. V. Marenich, 
 J. Bloino, B. G. Janesko, R. Gomperts, B. Mennucci, H. P. Hratchian, 
 J. V. Ortiz, A. F. Izmaylov, J. L. Sonnenberg, D. Williams-Young, 
 F. Ding, F. Lipparini, F. Egidi, J. Goings, B. Peng, A. Petrone, 
 T. Henderson, D. Ranasinghe, V. G. Zakrzewski, J. Gao, N. Rega, 
 G. Zheng, W. Liang, M. Hada, M. Ehara, K. Toyota, R. Fukuda, 
 J. Hasegawa, M. Ishida, T. Nakajima, Y. Honda, O. Kitao, H. Nakai, 
 T. Vreven, K. Throssell, J. A. Montgomery, Jr., J. E. Peralta, 
 F. Ogliaro, M. J. Bearpark, J. J. Heyd, E. N. Brothers, K. N. Kudin, 
 V. N. Staroverov, T. A. Keith, R. Kobayashi, J. Normand, 
 K. Raghavachari, A. P. Rendell, J. C. Burant, S. S. Iyengar, 
 J. Tomasi, M. Cossi, J. M. Millam, M. Klene, C. Adamo, R. Cammi, 
 J. W. Ochterski, R. L. Martin, K. Morokuma, O. Farkas, 
 J. B. Foresman, and D. J. Fox, Gaussian, Inc., Wallingford CT, 2019.
 
 ******************************************
 Gaussian 16:  ES64L-G16RevC.01  3-Jul-2019
                17-Feb-2026 
 ******************************************
 %NProcShared=8
 Will use up to    8 processors via shared memory.
 %Mem=8GB
 %chk=prod_5l_44.chk
 ------------------------------------------------------
 #N OPT FREQ=NORAMAN Integral(Ultrafine) wB97XD def2SVP
 ------------------------------------------------------
 1/18=20,19=15,26=4,38=1/1,3;
 2/9=110,12=2,17=6,18=5,40=1/2;
 3/5=43,7=101,11=2,25=1,30=1,71=1,74=-58,75=-5/1,2,3;
 4//1;
 5/5=2,38=5/2;
 6/7=2,8=2,9=2,10=2,28=1/1;
 7//1,2,3,16;
 1/18=20,19=15,26=4/3(2);
 2/9=110/2;
 99//99;
 2/9=110/2;
 3/5=43,7=101,11=2,25=1,30=1,71=1,74=-58,75=-5/1,2,3;
 4/5=5,16=3,69=1/1;
 5/5=2,38=5/2;
 7//1,2,3,16;
 1/18=20,19=15,26=4/3(-5);
 2/9=110/2;
 6/7=2,8=2,9=2,10=2,19=2,28=1/1;
 99/9=1/99;
 ----------
 prod_5l_44
 ----------
 Symbolic Z-matrix:
 Charge =  0 Multiplicity = 1
 O                     0.37103   1.22982   1.68077 
 S                     0.01986   1.29237   0.22251 
 N                     0.98282   0.40067  -0.86513 
 C                     2.19641  -0.15393  -0.44959 
 C                     2.58117  -0.27622   0.89123 
 C                     3.7813   -0.84754   1.23955 
 C                     4.6354   -1.3167    0.26212 
 C                     4.28132  -1.21053  -1.06794 
 C                     3.08135  -0.63933  -1.42082 
 C                    -1.51703   0.37191   0.06646 
 C                    -1.77997  -0.38541  -1.05007 
 C                    -2.97129  -1.07429  -1.15332 
 C                    -3.9148   -1.00766  -0.13844 
 C                    -5.19063  -1.76672  -0.23789 
 C                    -3.62813  -0.24974   0.98767 
 C                    -2.43594   0.43896   1.08588 
 O                    -0.16993   2.60462  -0.48382 
 H                     1.06093   1.08647  -1.58791 
 H                     1.9263    0.10274   1.65305 
 H                     4.0582   -0.92475   2.27818 
 H                     5.57714  -1.76267   0.53651 
 H                     4.94742  -1.57656  -1.83183 
 H                     2.7997   -0.56102  -2.45611 
 H                    -1.04617  -0.43724  -1.83587 
 H                    -3.17673  -1.67042  -2.02562 
 H                    -5.07488  -2.7726    0.16655 
 H                    -5.98773  -1.27025   0.31622 
 H                    -5.51516  -1.85533  -1.27507 
 H                    -4.3463   -0.20178   1.78794 
 H                    -2.20841   1.0303    1.95806 
 

 GradGradGradGradGradGradGradGradGradGradGradGradGradGradGradGradGradGrad
 Berny optimization.
 Initialization pass.
                           ----------------------------
                           !    Initial Parameters    !
                           ! (Angstroms and Degrees)  !
 --------------------------                            --------------------------
 ! Name  Definition              Value          Derivative Info.                !
 --------------------------------------------------------------------------------
 ! R1    R(1,2)                  1.5013         estimate D2E/DX2                !
 ! R2    R(2,3)                  1.7045         estimate D2E/DX2                !
 ! R3    R(2,10)                 1.7982         estimate D2E/DX2                !
 ! R4    R(2,17)                 1.5023         estimate D2E/DX2                !
 ! R5    R(3,4)                  1.3975         estimate D2E/DX2                !
 ! R6    R(3,18)                 0.9994         estimate D2E/DX2                !
 ! R7    R(4,5)                  1.4003         estimate D2E/DX2                !
 ! R8    R(4,9)                  1.4007         estimate D2E/DX2                !
 ! R9    R(5,6)                  1.3741         estimate D2E/DX2                !
 ! R10   R(5,19)                 1.0737         estimate D2E/DX2                !
 ! R11   R(6,7)                  1.3802         estimate D2E/DX2                !
 ! R12   R(6,20)                 1.0777         estimate D2E/DX2                !
 ! R13   R(7,8)                  1.3805         estimate D2E/DX2                !
 ! R14   R(7,21)                 1.0775         estimate D2E/DX2                !
 ! R15   R(8,9)                  1.375          estimate D2E/DX2                !
 ! R16   R(8,22)                 1.0776         estimate D2E/DX2                !
 ! R17   R(9,23)                 1.0758         estimate D2E/DX2                !
 ! R18   R(10,11)                1.3745         estimate D2E/DX2                !
 ! R19   R(10,16)                1.3741         estimate D2E/DX2                !
 ! R20   R(11,12)                1.38           estimate D2E/DX2                !
 ! R21   R(11,24)                1.0764         estimate D2E/DX2                !
 ! R22   R(12,13)                1.3873         estimate D2E/DX2                !
 ! R23   R(12,25)                1.0763         estimate D2E/DX2                !
 ! R24   R(13,14)                1.4879         estimate D2E/DX2                !
 ! R25   R(13,15)                1.3874         estimate D2E/DX2                !
 ! R26   R(14,26)                1.0903         estimate D2E/DX2                !
 ! R27   R(14,27)                1.0904         estimate D2E/DX2                !
 ! R28   R(14,28)                1.0904         estimate D2E/DX2                !
 ! R29   R(15,16)                1.3803         estimate D2E/DX2                !
 ! R30   R(15,29)                1.0763         estimate D2E/DX2                !
 ! R31   R(16,30)                1.078          estimate D2E/DX2                !
 ! A1    A(1,2,3)              117.7666         estimate D2E/DX2                !
 ! A2    A(1,2,10)             105.2416         estimate D2E/DX2                !
 ! A3    A(1,2,17)             121.5099         estimate D2E/DX2                !
 ! A4    A(3,2,10)              99.1888         estimate D2E/DX2                !
 ! A5    A(3,2,17)             103.1982         estimate D2E/DX2                !
 ! A6    A(10,2,17)            107.358          estimate D2E/DX2                !
 ! A7    A(2,3,4)              120.5618         estimate D2E/DX2                !
 ! A8    A(2,3,18)              98.4326         estimate D2E/DX2                !
 ! A9    A(4,3,18)             114.8021         estimate D2E/DX2                !
 ! A10   A(3,4,5)              123.9164         estimate D2E/DX2                !
 ! A11   A(3,4,9)              118.684          estimate D2E/DX2                !
 ! A12   A(5,4,9)              117.392          estimate D2E/DX2                !
 ! A13   A(4,5,6)              121.2676         estimate D2E/DX2                !
 ! A14   A(4,5,19)             118.7497         estimate D2E/DX2                !
 ! A15   A(6,5,19)             119.9737         estimate D2E/DX2                !
 ! A16   A(5,6,7)              120.1525         estimate D2E/DX2                !
 ! A17   A(5,6,20)             119.902          estimate D2E/DX2                !
 ! A18   A(7,6,20)             119.9447         estimate D2E/DX2                !
 ! A19   A(6,7,8)              119.8315         estimate D2E/DX2                !
 ! A20   A(6,7,21)             120.0789         estimate D2E/DX2                !
 ! A21   A(8,7,21)             120.0895         estimate D2E/DX2                !
 ! A22   A(7,8,9)              120.2017         estimate D2E/DX2                !
 ! A23   A(7,8,22)             119.8896         estimate D2E/DX2                !
 ! A24   A(9,8,22)             119.9087         estimate D2E/DX2                !
 ! A25   A(4,9,8)              121.1546         estimate D2E/DX2                !
 ! A26   A(4,9,23)             118.4671         estimate D2E/DX2                !
 ! A27   A(8,9,23)             120.3775         estimate D2E/DX2                !
 ! A28   A(2,10,11)            121.0651         estimate D2E/DX2                !
 ! A29   A(2,10,16)            118.8289         estimate D2E/DX2                !
 ! A30   A(11,10,16)           120.1058         estimate D2E/DX2                !
 ! A31   A(10,11,12)           120.0626         estimate D2E/DX2                !
 ! A32   A(10,11,24)           119.2831         estimate D2E/DX2                !
 ! A33   A(12,11,24)           120.6536         estimate D2E/DX2                !
 ! A34   A(11,12,13)           120.5571         estimate D2E/DX2                !
 ! A35   A(11,12,25)           120.1245         estimate D2E/DX2                !
 ! A36   A(13,12,25)           119.3184         estimate D2E/DX2                !
 ! A37   A(12,13,14)           120.6487         estimate D2E/DX2                !
 ! A38   A(12,13,15)           118.6528         estimate D2E/DX2                !
 ! A39   A(14,13,15)           120.6731         estimate D2E/DX2                !
 ! A40   A(13,14,26)           110.7831         estimate D2E/DX2                !
 ! A41   A(13,14,27)           111.1368         estimate D2E/DX2                !
 ! A42   A(13,14,28)           111.1156         estimate D2E/DX2                !
 ! A43   A(26,14,27)           108.0092         estimate D2E/DX2                !
 ! A44   A(26,14,28)           108.0273         estimate D2E/DX2                !
 ! A45   A(27,14,28)           107.627          estimate D2E/DX2                !
 ! A46   A(13,15,16)           120.5838         estimate D2E/DX2                !
 ! A47   A(13,15,29)           119.3392         estimate D2E/DX2                !
 ! A48   A(16,15,29)           120.077          estimate D2E/DX2                !
 ! A49   A(10,16,15)           120.0309         estimate D2E/DX2                !
 ! A50   A(10,16,30)           119.068          estimate D2E/DX2                !
 ! A51   A(15,16,30)           120.9005         estimate D2E/DX2                !
 ! D1    D(1,2,3,4)            -11.9658         estimate D2E/DX2                !
 ! D2    D(1,2,3,18)          -137.4181         estimate D2E/DX2                !
 ! D3    D(10,2,3,4)          -124.6797         estimate D2E/DX2                !
 ! D4    D(10,2,3,18)          109.868          estimate D2E/DX2                !
 ! D5    D(17,2,3,4)           124.9336         estimate D2E/DX2                !
 ! D6    D(17,2,3,18)           -0.5187         estimate D2E/DX2                !
 ! D7    D(1,2,10,11)         -144.7817         estimate D2E/DX2                !
 ! D8    D(1,2,10,16)           35.4048         estimate D2E/DX2                !
 ! D9    D(3,2,10,11)          -22.5592         estimate D2E/DX2                !
 ! D10   D(3,2,10,16)          157.6273         estimate D2E/DX2                !
 ! D11   D(17,2,10,11)          84.4717         estimate D2E/DX2                !
 ! D12   D(17,2,10,16)         -95.3418         estimate D2E/DX2                !
 ! D13   D(2,3,4,5)             13.8507         estimate D2E/DX2                !
 ! D14   D(2,3,4,9)           -167.1842         estimate D2E/DX2                !
 ! D15   D(18,3,4,5)           131.2689         estimate D2E/DX2                !
 ! D16   D(18,3,4,9)           -49.7659         estimate D2E/DX2                !
 ! D17   D(3,4,5,6)            179.1141         estimate D2E/DX2                !
 ! D18   D(3,4,5,19)            -1.9816         estimate D2E/DX2                !
 ! D19   D(9,4,5,6)              0.1366         estimate D2E/DX2                !
 ! D20   D(9,4,5,19)           179.0409         estimate D2E/DX2                !
 ! D21   D(3,4,9,8)           -179.1609         estimate D2E/DX2                !
 ! D22   D(3,4,9,23)             0.5058         estimate D2E/DX2                !
 ! D23   D(5,4,9,8)             -0.1281         estimate D2E/DX2                !
 ! D24   D(5,4,9,23)           179.5386         estimate D2E/DX2                !
 ! D25   D(4,5,6,7)             -0.0811         estimate D2E/DX2                !
 ! D26   D(4,5,6,20)           179.6067         estimate D2E/DX2                !
 ! D27   D(19,5,6,7)          -178.9722         estimate D2E/DX2                !
 ! D28   D(19,5,6,20)            0.7156         estimate D2E/DX2                !
 ! D29   D(5,6,7,8)              0.012          estimate D2E/DX2                !
 ! D30   D(5,6,7,21)           179.8738         estimate D2E/DX2                !
 ! D31   D(20,6,7,8)          -179.6757         estimate D2E/DX2                !
 ! D32   D(20,6,7,21)            0.1862         estimate D2E/DX2                !
 ! D33   D(6,7,8,9)             -0.0037         estimate D2E/DX2                !
 ! D34   D(6,7,8,22)          -179.9969         estimate D2E/DX2                !
 ! D35   D(21,7,8,9)          -179.8656         estimate D2E/DX2                !
 ! D36   D(21,7,8,22)            0.1413         estimate D2E/DX2                !
 ! D37   D(7,8,9,4)              0.0643         estimate D2E/DX2                !
 ! D38   D(7,8,9,23)          -179.5961         estimate D2E/DX2                !
 ! D39   D(22,8,9,4)          -179.9426         estimate D2E/DX2                !
 ! D40   D(22,8,9,23)            0.3971         estimate D2E/DX2                !
 ! D41   D(2,10,11,12)        -179.4358         estimate D2E/DX2                !
 ! D42   D(2,10,11,24)           0.8593         estimate D2E/DX2                !
 ! D43   D(16,10,11,12)          0.3753         estimate D2E/DX2                !
 ! D44   D(16,10,11,24)       -179.3296         estimate D2E/DX2                !
 ! D45   D(2,10,16,15)         179.5211         estimate D2E/DX2                !
 ! D46   D(2,10,16,30)          -0.7706         estimate D2E/DX2                !
 ! D47   D(11,10,16,15)         -0.2942         estimate D2E/DX2                !
 ! D48   D(11,10,16,30)        179.4141         estimate D2E/DX2                !
 ! D49   D(10,11,12,13)          0.2028         estimate D2E/DX2                !
 ! D50   D(10,11,12,25)       -179.7822         estimate D2E/DX2                !
 ! D51   D(24,11,12,13)        179.9035         estimate D2E/DX2                !
 ! D52   D(24,11,12,25)         -0.0815         estimate D2E/DX2                !
 ! D53   D(11,12,13,14)       -179.0237         estimate D2E/DX2                !
 ! D54   D(11,12,13,15)         -0.8442         estimate D2E/DX2                !
 ! D55   D(25,12,13,14)          0.9614         estimate D2E/DX2                !
 ! D56   D(25,12,13,15)        179.141          estimate D2E/DX2                !
 ! D57   D(12,13,14,26)         88.1452         estimate D2E/DX2                !
 ! D58   D(12,13,14,27)       -151.7709         estimate D2E/DX2                !
 ! D59   D(12,13,14,28)        -31.9474         estimate D2E/DX2                !
 ! D60   D(15,13,14,26)        -89.9973         estimate D2E/DX2                !
 ! D61   D(15,13,14,27)         30.0866         estimate D2E/DX2                !
 ! D62   D(15,13,14,28)        149.91           estimate D2E/DX2                !
 ! D63   D(12,13,15,16)          0.9257         estimate D2E/DX2                !
 ! D64   D(12,13,15,29)       -179.1278         estimate D2E/DX2                !
 ! D65   D(14,13,15,16)        179.1048         estimate D2E/DX2                !
 ! D66   D(14,13,15,29)         -0.9487         estimate D2E/DX2                !
 ! D67   D(13,15,16,10)         -0.3659         estimate D2E/DX2                !
 ! D68   D(13,15,16,30)        179.9313         estimate D2E/DX2                !
 ! D69   D(29,15,16,10)        179.688          estimate D2E/DX2                !
 ! D70   D(29,15,16,30)         -0.0148         estimate D2E/DX2                !
 --------------------------------------------------------------------------------
 Trust Radius=3.00D-01 FncErr=1.00D-07 GrdErr=1.00D-06 EigMax=2.50D+02 EigMin=1.00D-04
 Number of steps in this run=    162 maximum allowed number of steps=    180.
 GradGradGradGradGradGradGradGradGradGradGradGradGradGradGradGradGradGrad

                          Input orientation:                          
 ---------------------------------------------------------------------
 Center     Atomic      Atomic             Coordinates (Angstroms)
 Number     Number       Type             X           Y           Z
 ---------------------------------------------------------------------
      1          8           0        0.371030    1.229820    1.680770
      2         16           0        0.019860    1.292370    0.222510
      3          7           0        0.982820    0.400670   -0.865130
      4          6           0        2.196410   -0.153930   -0.449590
      5          6           0        2.581170   -0.276220    0.891230
      6          6           0        3.781300   -0.847540    1.239550
      7          6           0        4.635400   -1.316700    0.262120
      8          6           0        4.281320   -1.210530   -1.067940
      9          6           0        3.081350   -0.639330   -1.420820
     10          6           0       -1.517030    0.371910    0.066460
     11          6           0       -1.779970   -0.385410   -1.050070
     12          6           0       -2.971290   -1.074290   -1.153320
     13          6           0       -3.914800   -1.007660   -0.138440
     14          6           0       -5.190630   -1.766720   -0.237890
     15          6           0       -3.628130   -0.249740    0.987670
     16          6           0       -2.435940    0.438960    1.085880
     17          8           0       -0.169930    2.604620   -0.483820
     18          1           0        1.060930    1.086470   -1.587910
     19          1           0        1.926300    0.102740    1.653050
     20          1           0        4.058200   -0.924750    2.278180
     21          1           0        5.577140   -1.762670    0.536510
     22          1           0        4.947420   -1.576560   -1.831830
     23          1           0        2.799700   -0.561020   -2.456110
     24          1           0       -1.046170   -0.437240   -1.835870
     25          1           0       -3.176730   -1.670420   -2.025620
     26          1           0       -5.074880   -2.772600    0.166550
     27          1           0       -5.987730   -1.270250    0.316220
     28          1           0       -5.515160   -1.855330   -1.275070
     29          1           0       -4.346300   -0.201780    1.787940
     30          1           0       -2.208410    1.030300    1.958060
 ---------------------------------------------------------------------
                    Distance matrix (angstroms):
                    1          2          3          4          5
     1  O    0.000000
     2  S    1.501251   0.000000
     3  N    2.746522   1.704518   0.000000
     4  C    3.128132   2.698309   1.397518   0.000000
     5  C    2.788593   3.077007   2.469353   1.400283   0.000000
     6  C    4.017467   4.445449   3.717418   2.417884   1.374062
     7  C    5.165480   5.302077   4.190632   2.794143   2.387098
     8  C    5.366664   5.107819   3.676574   2.417770   2.757135
     9  C    4.523209   3.975515   2.407119   1.400721   2.393241
    10  C    2.628075   1.798229   2.667946   3.785822   4.230315
    11  C    3.833178   2.770161   2.878391   4.028121   4.774946
    12  C    4.950969   4.054746   4.230076   5.295982   5.970504
    13  C    5.165673   4.571867   5.147636   6.178394   6.617617
    14  C    6.602467   6.059637   6.572860   7.564011   7.993584
    15  C    4.320042   4.033783   5.011662   6.000014   6.210105
    16  C    2.976312   2.739465   3.936474   4.916081   5.071564
    17  O    2.620718   1.502306   2.516272   3.634602   4.214090
    18  H    3.343767   2.098533   0.999417   2.030684   3.211571
    19  H    1.920922   2.663865   2.705577   2.135400   1.073702
    20  H    4.312110   5.044759   4.592940   3.391335   2.127402
    21  H    6.112930   6.349427   5.268056   3.871663   3.363212
    22  H    6.415409   6.060686   4.534534   3.391536   3.834720
    23  H    5.120481   4.282239   2.599446   2.134433   3.366534
    24  H    4.141775   2.892214   2.400256   3.537847   4.540991
    25  H    5.893668   4.904121   4.789364   5.801228   6.603425
    26  H    6.926050   6.517936   6.915905   7.752981   8.085306
    27  H    6.967509   6.531994   7.264718   8.295347   8.645506
    28  H    7.273402   6.541193   6.890670   7.940056   8.528599
    29  H    4.930940   4.873029   5.983414   6.914903   6.985662
    30  H    2.601962   2.836547   4.307062   5.157676   5.077913
                    6          7          8          9         10
     6  C    0.000000
     7  C    1.380206   0.000000
     8  C    2.388785   1.380472   0.000000
     9  C    2.758777   2.388763   1.375035   0.000000
    10  C    5.561969   6.382952   6.116522   4.937581   0.000000
    11  C    6.031886   6.614085   6.117220   4.882045   1.374522
    12  C    7.167616   7.741057   7.254392   6.074142   2.386259
    13  C    7.820131   8.565155   8.251152   7.122238   2.773896
    14  C    9.139105   9.849030   9.524504   8.431843   4.261655
    15  C    7.437773   8.363657   8.228490   7.139309   2.385754
    16  C    6.350809   7.332447   7.244401   6.155221   1.374085
    17  O    5.522647   6.246949   5.891536   4.687430   2.665048
    18  H    4.374396   4.687715   3.989673   2.662405   3.145380
    19  H    2.124862   3.359869   3.830742   3.366524   3.800821
    20  H    1.077677   2.133374   3.365705   3.836444   6.136467
    21  H    2.134659   1.077522   2.135010   3.364818   7.423249
    22  H    3.365216   2.132958   1.077588   2.128273   7.013498
    23  H    3.834519   3.365950   2.131684   1.075772   5.086047
    24  H    5.738556   6.120069   5.437816   4.153255   2.120210
    25  H    7.729984   8.147898   7.533337   6.371224   3.361921
    26  H    9.126287   9.819283   9.565694   8.578734   4.749343
    27  H    9.821668  10.623369  10.362087   9.255462   4.769301
    28  H    9.683136  10.280416   9.819862   8.683311   4.769208
    29  H    8.171635   9.178350   9.143821   8.102936   3.361158
    30  H    6.318162   7.431175   7.502972   6.495079   2.118876
                   11         12         13         14         15
    11  C    0.000000
    12  C    1.380022   0.000000
    13  C    2.403282   1.387311   0.000000
    14  C    3.768323   2.498588   1.487886   0.000000
    15  C    2.754358   2.386453   1.387352   2.498926   0.000000
    16  C    2.381631   2.755094   2.403892   3.769046   1.380315
    17  O    3.442840   4.672283   5.214586   6.661571   4.719301
    18  H    3.244444   4.595275   5.589654   7.003231   5.514196
    19  H    4.613197   5.766065   6.209740   7.597449   5.605236
    20  H    6.741837   7.823764   8.331606   9.621870   7.823089
    21  H    7.651219   8.740998   9.545812  10.795582   9.339673
    22  H    6.876610   7.963581   9.040473  10.264349   9.124149
    23  H    4.793867   5.938437   7.117274   8.379713   7.298871
    24  H    1.076397   2.139578   3.381669   4.636551   3.830673
    25  H    2.133984   1.076329   2.132005   2.694633   3.361846
    26  H    4.246796   3.008555   2.133968   1.090305   3.021944
    27  H    4.511644   3.361080   2.138389   1.090362   2.657066
    28  H    4.020315   2.663855   2.138136   1.090373   3.355413
    29  H    3.830675   3.361984   2.132270   2.695537   1.076337
    30  H    3.352110   3.833011   3.385315   4.641029   2.143773
                   16         17         18         19         20
    16  C    0.000000
    17  O    3.505545   0.000000
    18  H    4.449328   2.244729   0.000000
    19  H    4.411787   3.901256   3.495771   0.000000
    20  H    6.742043   6.161346   5.289167   2.447758   0.000000
    21  H    8.328171   7.289932   5.746905   4.249123   2.458191
    22  H    8.190809   6.744380   4.717630   4.908320   4.255320
    23  H    6.399811   4.767589   2.547806   4.253070   4.912191
    24  H    3.351986   3.442201   2.612096   4.615162   6.574014
    25  H    3.831408   5.449217   5.074426   6.535872   8.451209
    26  H    4.257146   7.307257   7.457796   7.713221   9.554406
    27  H    4.016091   7.035729   7.672252   8.142732  10.241551
    28  H    4.507710   7.006334   7.210896   8.233058  10.253818
    29  H    2.133755   5.520765   6.503390   6.281436   8.449772
    30  H    1.078031   3.549178   4.823447   4.248438   6.572298
                   21         22         23         24         25
    21  H    0.000000
    22  H    2.457686   0.000000
    23  H    4.256044   2.456369   0.000000
    24  H    7.159133   6.100917   3.897529   0.000000
    25  H    9.121582   8.127003   6.093751   2.469013   0.000000
    26  H   10.706183  10.289341   8.589438   5.068934   3.102158
    27  H   11.577445  11.148338   9.241631   5.453844   3.680499
    28  H   11.239641  10.481091   8.497470   4.722007   2.462879
    29  H   10.123098  10.068068   8.319034   4.906964   4.250651
    30  H    8.392632   8.506755   6.862825   4.230648   4.909301
                   26         27         28         29         30
    26  H    0.000000
    27  H    1.764299   0.000000
    28  H    1.764511   1.760070   0.000000
    29  H    3.125516   2.449874   3.671851   0.000000
    30  H    5.088045   4.719261   5.451109   2.473365   0.000000
 Stoichiometry    C13H13NO2S
 Framework group  C1[X(C13H13NO2S)]
 Deg. of freedom    84
 Full point group                 C1      NOp   1
 Largest Abelian subgroup         C1      NOp   1
 Largest concise Abelian subgroup C1      NOp   1
                         Standard orientation:                         
 ---------------------------------------------------------------------
 Center     Atomic      Atomic             Coordinates (Angstroms)
 Number     Number       Type             X           Y           Z
 ---------------------------------------------------------------------
      1          8           0        0.398468    1.891962    0.943457
      2         16           0        0.058986    1.295118   -0.391565
      3          7           0        1.020551    0.004049   -0.951847
      4          6           0        2.224990   -0.312311   -0.317577
      5          6           0        2.598306    0.178210    0.939729
      6          6           0        3.789615   -0.183194    1.521293
      7          6           0        4.646005   -1.046574    0.868502
      8          6           0        4.303113   -1.546855   -0.371599
      9          6           0        3.111997   -1.187607   -0.957182
     10          6           0       -1.486414    0.412083   -0.135410
     11          6           0       -1.748994   -0.764362   -0.795969
     12          6           0       -2.946782   -1.418900   -0.592638
     13          6           0       -3.897150   -0.897798    0.273321
     14          6           0       -5.180218   -1.612814    0.510585
     15          6           0       -3.610909    0.283339    0.942444
     16          6           0       -2.412214    0.935448    0.734701
     17          8           0       -0.111466    2.151529   -1.614032
     18          1           0        1.111417    0.291715   -1.904646
     19          1           0        1.941792    0.862948    1.442679
     20          1           0        4.057839    0.212558    2.487121
     21          1           0        5.580839   -1.327595    1.324752
     22          1           0        4.971009   -2.221038   -0.882075
     23          1           0        2.839010   -1.580846   -1.920574
     24          1           0       -1.009887   -1.168075   -1.466318
     25          1           0       -3.151988   -2.342000   -1.106701
     26          1           0       -5.078256   -2.330615    1.324913
     27          1           0       -5.976131   -0.915491    0.773554
     28          1           0       -5.497848   -2.155775   -0.380042
     29          1           0       -4.334538    0.689996    1.627639
     30          1           0       -2.184970    1.854078    1.251062
 ---------------------------------------------------------------------
 Rotational constants (GHZ):           0.9039182           0.2261527           0.2103960
 Standard basis: def2SVP (5D, 7F)
 There are   324 symmetry adapted cartesian basis functions of A   symmetry.
 There are   307 symmetry adapted basis functions of A   symmetry.
   307 basis functions,   528 primitive gaussians,   324 cartesian basis functions
    65 alpha electrons       65 beta electrons
       nuclear repulsion energy      1296.4145706912 Hartrees.
 NAtoms=   30 NActive=   30 NUniq=   30 SFac= 1.00D+00 NAtFMM=   60 NAOKFM=F Big=F
 Integral buffers will be    131072 words long.
 Raffenetti 2 integral format.
 Two-electron integral symmetry is turned on.
 Nuclear repulsion after empirical dispersion term =     1296.3964470091 Hartrees.
 One-electron integrals computed using PRISM.
   1 Symmetry operations used in ECPInt.
 ECPInt:  NShTT=   10296 NPrTT=   38220 LenC2=    9257 LenP2D=   24264.
 LDataN:  DoStor=T MaxTD1= 4 Len=   56
 NBasis=   307 RedAO= T EigKep=  2.45D-04  NBF=   307
 NBsUse=   307 1.00D-06 EigRej= -1.00D+00 NBFU=   307
 ExpMin= 1.22D-01 ExpMax= 9.18D+03 ExpMxC= 1.38D+03 IAcc=3 IRadAn=         5 AccDes= 0.00D+00
 Harris functional with IExCor= 4639 and IRadAn=       5 diagonalized for initial guess.
 HarFok:  IExCor= 4639 AccDes= 0.00D+00 IRadAn=         5 IDoV= 1 UseB2=F ITyADJ=14
 ICtDFT=  3500011 ScaDFX=  1.000000  1.000000  1.000000  1.000000
 FoFCou: FMM=F IPFlag=           0 FMFlag=      100000 FMFlg1=           0
         NFxFlg=           0 DoJE=T BraDBF=F KetDBF=T FulRan=T
         wScrn=  0.000000 ICntrl=       500 IOpCl=  0 I1Cent=   200000004 NGrid=           0
         NMat0=    1 NMatS0=      1 NMatT0=    0 NMatD0=    1 NMtDS0=    0 NMtDT0=    0
 Petite list used in FoFCou.
 Requested convergence on RMS density matrix=1.00D-08 within 128 cycles.
 Requested convergence on MAX density matrix=1.00D-06.
 Requested convergence on             energy=1.00D-06.
 No special actions if energy rises.
 Integral accuracy reduced to 1.0D-05 until final iterations.
 Initial convergence to 1.0D-05 achieved.  Increase integral accuracy.
 SCF Done:  E(RwB97XD) =  -1105.63524598     A.U. after   15 cycles
            NFock= 15  Conv=0.84D-08     -V/T= 2.0070

 **********************************************************************

            Population analysis using the SCF Density.

 **********************************************************************

 Orbital symmetries:
       Occupied  (A) (A) (A) (A) (A) (A) (A) (A) (A) (A) (A) (A)
                 (A) (A) (A) (A) (A) (A) (A) (A) (A) (A) (A) (A)
                 (A) (A) (A) (A) (A) (A) (A) (A) (A) (A) (A) (A)
                 (A) (A) (A) (A) (A) (A) (A) (A) (A) (A) (A) (A)
                 (A) (A) (A) (A) (A) (A) (A) (A) (A) (A) (A) (A)
                 (A) (A) (A) (A) (A)
       Virtual   (A) (A) (A) (A) (A) (A) (A) (A) (A) (A) (A) (A)
                 (A) (A) (A) (A) (A) (A) (A) (A) (A) (A) (A) (A)
                 (A) (A) (A) (A) (A) (A) (A) (A) (A) (A) (A) (A)
                 (A) (A) (A) (A) (A) (A) (A) (A) (A) (A) (A) (A)
                 (A) (A) (A) (A) (A) (A) (A) (A) (A) (A) (A) (A)
                 (A) (A) (A) (A) (A) (A) (A) (A) (A) (A) (A) (A)
                 (A) (A) (A) (A) (A) (A) (A) (A) (A) (A) (A) (A)
                 (A) (A) (A) (A) (A) (A) (A) (A) (A) (A) (A) (A)
                 (A) (A) (A) (A) (A) (A) (A) (A) (A) (A) (A) (A)
                 (A) (A) (A) (A) (A) (A) (A) (A) (A) (A) (A) (A)
                 (A) (A) (A) (A) (A) (A) (A) (A) (A) (A) (A) (A)
                 (A) (A) (A) (A) (A) (A) (A) (A) (A) (A) (A) (A)
                 (A) (A) (A) (A) (A) (A) (A) (A) (A) (A) (A) (A)
                 (A) (A) (A) (A) (A) (A) (A) (A) (A) (A) (A) (A)
                 (A) (A) (A) (A) (A) (A) (A) (A) (A) (A) (A) (A)
                 (A) (A) (A) (A) (A) (A) (A) (A) (A) (A) (A) (A)
                 (A) (A) (A) (A) (A) (A) (A) (A) (A) (A) (A) (A)
                 (A) (A) (A) (A) (A) (A) (A) (A) (A) (A) (A) (A)
                 (A) (A) (A) (A) (A) (A) (A) (A) (A) (A) (A) (A)
                 (A) (A) (A) (A) (A) (A) (A) (A) (A) (A) (A) (A)
                 (A) (A)
 The electronic state is 1-A.
 Alpha  occ. eigenvalues --  -89.25724 -19.26604 -19.25178 -14.50191 -10.35566
 Alpha  occ. eigenvalues --  -10.33425 -10.32555 -10.32227 -10.32176 -10.31433
 Alpha  occ. eigenvalues --  -10.31389 -10.30740 -10.30569 -10.30384 -10.30008
 Alpha  occ. eigenvalues --  -10.29620 -10.29275  -8.27547  -6.22986  -6.22869
 Alpha  occ. eigenvalues --   -6.22731  -1.20533  -1.09079  -1.05602  -0.98644
 Alpha  occ. eigenvalues --   -0.95420  -0.90256  -0.86423  -0.85114  -0.84717
 Alpha  occ. eigenvalues --   -0.81330  -0.75884  -0.72694  -0.71532  -0.70820
 Alpha  occ. eigenvalues --   -0.68094  -0.64346  -0.63979  -0.60390  -0.58912
 Alpha  occ. eigenvalues --   -0.57745  -0.56599  -0.54978  -0.54256  -0.53458
 Alpha  occ. eigenvalues --   -0.53001  -0.52889  -0.52727  -0.51369  -0.49359
 Alpha  occ. eigenvalues --   -0.48537  -0.47515  -0.46502  -0.46196  -0.44357
 Alpha  occ. eigenvalues --   -0.44146  -0.43516  -0.41241  -0.40597  -0.39046
 Alpha  occ. eigenvalues --   -0.38334  -0.35325  -0.34174  -0.33934  -0.31017
 Alpha virt. eigenvalues --    0.02944   0.04381   0.05841   0.06260   0.10189
 Alpha virt. eigenvalues --    0.12982   0.13444   0.14799   0.15354   0.15777
 Alpha virt. eigenvalues --    0.16973   0.17423   0.18856   0.19401   0.20627
 Alpha virt. eigenvalues --    0.20823   0.21502   0.22981   0.23842   0.23926
 Alpha virt. eigenvalues --    0.25162   0.25547   0.28670   0.29824   0.32841
 Alpha virt. eigenvalues --    0.35804   0.36263   0.36982   0.37227   0.37441
 Alpha virt. eigenvalues --    0.38366   0.39184   0.40161   0.41292   0.43695
 Alpha virt. eigenvalues --    0.46160   0.47343   0.47922   0.48156   0.48889
 Alpha virt. eigenvalues --    0.49300   0.51446   0.52210   0.52722   0.54120
 Alpha virt. eigenvalues --    0.54647   0.55059   0.55147   0.56334   0.57481
 Alpha virt. eigenvalues --    0.57727   0.58372   0.59500   0.60573   0.61357
 Alpha virt. eigenvalues --    0.62192   0.63386   0.64357   0.64392   0.65023
 Alpha virt. eigenvalues --    0.68775   0.69708   0.70446   0.70817   0.71602
 Alpha virt. eigenvalues --    0.72200   0.72572   0.73292   0.73892   0.74091
 Alpha virt. eigenvalues --    0.74277   0.75385   0.76172   0.76619   0.76987
 Alpha virt. eigenvalues --    0.77077   0.77707   0.78127   0.79490   0.80318
 Alpha virt. eigenvalues --    0.81068   0.81751   0.82396   0.82743   0.83567
 Alpha virt. eigenvalues --    0.84491   0.84589   0.87555   0.88369   0.90276
 Alpha virt. eigenvalues --    0.90991   0.92135   0.93083   0.95490   0.96697
 Alpha virt. eigenvalues --    0.99067   1.00554   1.02709   1.04402   1.06118
 Alpha virt. eigenvalues --    1.06954   1.07944   1.10656   1.11908   1.13869
 Alpha virt. eigenvalues --    1.14504   1.16155   1.20684   1.21437   1.22238
 Alpha virt. eigenvalues --    1.24287   1.26452   1.28105   1.28507   1.29380
 Alpha virt. eigenvalues --    1.30279   1.31429   1.31643   1.33205   1.33382
 Alpha virt. eigenvalues --    1.34399   1.36336   1.37588   1.37855   1.38648
 Alpha virt. eigenvalues --    1.39444   1.40350   1.41180   1.44100   1.49192
 Alpha virt. eigenvalues --    1.54669   1.56086   1.59085   1.60892   1.62275
 Alpha virt. eigenvalues --    1.62874   1.64110   1.71048   1.74608   1.75400
 Alpha virt. eigenvalues --    1.76430   1.77209   1.78227   1.80437   1.81072
 Alpha virt. eigenvalues --    1.81754   1.82410   1.82790   1.83714   1.84013
 Alpha virt. eigenvalues --    1.84857   1.85845   1.86319   1.86739   1.87681
 Alpha virt. eigenvalues --    1.87955   1.88342   1.89991   1.90613   1.92770
 Alpha virt. eigenvalues --    1.93305   1.94905   1.97385   2.00647   2.02948
 Alpha virt. eigenvalues --    2.04004   2.04644   2.05776   2.06917   2.08090
 Alpha virt. eigenvalues --    2.10426   2.11066   2.13307   2.13864   2.16878
 Alpha virt. eigenvalues --    2.17218   2.19978   2.21160   2.21533   2.23523
 Alpha virt. eigenvalues --    2.24637   2.25630   2.29293   2.30459   2.31743
 Alpha virt. eigenvalues --    2.32763   2.35537   2.36167   2.37996   2.38705
 Alpha virt. eigenvalues --    2.40614   2.42931   2.43771   2.44650   2.45528
 Alpha virt. eigenvalues --    2.45802   2.51880   2.54672   2.56547   2.56845
 Alpha virt. eigenvalues --    2.59353   2.61461   2.68395   2.70177   2.70884
 Alpha virt. eigenvalues --    2.72561   2.72892   2.73352   2.73832   2.74173
 Alpha virt. eigenvalues --    2.74694   2.75177   2.76123   2.78810   2.82571
 Alpha virt. eigenvalues --    2.82824   2.83061   2.84250   2.86160   2.86404
 Alpha virt. eigenvalues --    2.90571   2.94553   2.95398   2.95988   2.99680
 Alpha virt. eigenvalues --    3.00443   3.01650   3.03031   3.03301   3.05419
 Alpha virt. eigenvalues --    3.06797   3.08785   3.22824   3.23501   3.25728
 Alpha virt. eigenvalues --    3.32404   3.34000   3.34905   3.44741   3.45980
 Alpha virt. eigenvalues --    3.69559   3.78546
          Condensed to atoms (all electrons):
               1          2          3          4          5          6
     1  O    8.165983   0.384201  -0.031211  -0.003861  -0.022207   0.002011
     2  S    0.384201  13.983242   0.207778  -0.041747   0.002365  -0.000785
     3  N   -0.031211   0.207778   6.834460   0.263631  -0.081674   0.007344
     4  C   -0.003861  -0.041747   0.263631   5.201271   0.264597   0.102932
     5  C   -0.022207   0.002365  -0.081674   0.264597   5.198508   0.269320
     6  C    0.002011  -0.000785   0.007344   0.102932   0.269320   5.050304
     7  C   -0.000031   0.000012  -0.000398  -0.161724   0.086294   0.273816
     8  C   -0.000002  -0.000116   0.006398   0.107029  -0.142961   0.093341
     9  C    0.000142  -0.000551  -0.065220   0.256517   0.075132  -0.142705
    10  C   -0.062357   0.211491  -0.073039   0.004901  -0.000926  -0.000010
    11  C    0.002142  -0.029105  -0.023095   0.001213   0.000134  -0.000003
    12  C    0.000002   0.001418   0.000316  -0.000034  -0.000001  -0.000000
    13  C   -0.000041   0.000889  -0.000064   0.000006  -0.000001   0.000000
    14  C    0.000000   0.000010   0.000000  -0.000000  -0.000000  -0.000000
    15  C    0.001143   0.001030  -0.000029  -0.000006   0.000002  -0.000000
    16  C    0.002759  -0.033084   0.007244  -0.000129  -0.000036  -0.000005
    17  O   -0.028288   0.418069  -0.061098   0.002373  -0.000065  -0.000006
    18  H    0.002085  -0.000486   0.310059  -0.002438   0.002104  -0.000283
    19  H    0.037196  -0.009282  -0.013073  -0.066991   0.447519  -0.052009
    20  H    0.000027  -0.000003  -0.000111   0.015111  -0.066787   0.457383
    21  H    0.000000   0.000000   0.000011  -0.001409   0.014622  -0.067485
    22  H   -0.000000   0.000004  -0.000112   0.015612  -0.001961   0.013862
    23  H    0.000009  -0.000199  -0.008393  -0.082089   0.016820  -0.002142
    24  H    0.000173  -0.016221   0.022595  -0.000385   0.000034   0.000005
    25  H    0.000001  -0.000156  -0.000012  -0.000001   0.000000   0.000000
    26  H   -0.000000  -0.000000  -0.000000   0.000000   0.000000  -0.000000
    27  H    0.000000  -0.000000   0.000000  -0.000000   0.000000   0.000000
    28  H    0.000000  -0.000000   0.000000  -0.000000  -0.000000   0.000000
    29  H   -0.000006  -0.000170   0.000001  -0.000000   0.000000   0.000000
    30  H    0.011916  -0.009450   0.000512  -0.000050   0.000019   0.000000
               7          8          9         10         11         12
     1  O   -0.000031  -0.000002   0.000142  -0.062357   0.002142   0.000002
     2  S    0.000012  -0.000116  -0.000551   0.211491  -0.029105   0.001418
     3  N   -0.000398   0.006398  -0.065220  -0.073039  -0.023095   0.000316
     4  C   -0.161724   0.107029   0.256517   0.004901   0.001213  -0.000034
     5  C    0.086294  -0.142961   0.075132  -0.000926   0.000134  -0.000001
     6  C    0.273816   0.093341  -0.142705  -0.000010  -0.000003  -0.000000
     7  C    5.103033   0.286838   0.085015  -0.000002   0.000000   0.000000
     8  C    0.286838   5.007764   0.311377  -0.000001  -0.000003   0.000000
     9  C    0.085015   0.311377   5.136839  -0.000639  -0.000012  -0.000005
    10  C   -0.000002  -0.000001  -0.000639   5.699161   0.244020   0.094191
    11  C    0.000000  -0.000003  -0.000012   0.244020   5.016943   0.331514
    12  C    0.000000   0.000000  -0.000005   0.094191   0.331514   5.045466
    13  C   -0.000000  -0.000000  -0.000000  -0.187991   0.092886   0.293365
    14  C    0.000000   0.000000  -0.000000   0.000585   0.009809  -0.076915
    15  C    0.000000  -0.000000   0.000000   0.098103  -0.122640   0.053524
    16  C    0.000000  -0.000000   0.000001   0.205330   0.055573  -0.126680
    17  O   -0.000000  -0.000000  -0.000210  -0.044944  -0.000372   0.000034
    18  H    0.000014   0.000244  -0.012679  -0.000965   0.004051   0.000241
    19  H    0.013522  -0.002200   0.013322   0.000132  -0.000161  -0.000009
    20  H   -0.074332   0.014095  -0.001941   0.000001   0.000000   0.000000
    21  H    0.451387  -0.070199   0.014345   0.000000   0.000000  -0.000000
    22  H   -0.069283   0.454314  -0.069583  -0.000000  -0.000000  -0.000000
    23  H    0.014821  -0.059522   0.451322   0.000022  -0.000059   0.000000
    24  H    0.000001   0.000014   0.000023  -0.068615   0.447501  -0.059989
    25  H   -0.000000   0.000000   0.000000   0.016718  -0.065775   0.459120
    26  H    0.000000  -0.000000  -0.000000   0.000120  -0.000239  -0.003318
    27  H    0.000000  -0.000000   0.000000  -0.000008  -0.000529   0.007353
    28  H   -0.000000   0.000000   0.000000   0.000005   0.000847  -0.008822
    29  H   -0.000000   0.000000   0.000000   0.016558  -0.001878   0.014404
    30  H    0.000000   0.000000  -0.000000  -0.074828   0.012634  -0.001663
              13         14         15         16         17         18
     1  O   -0.000041   0.000000   0.001143   0.002759  -0.028288   0.002085
     2  S    0.000889   0.000010   0.001030  -0.033084   0.418069  -0.000486
     3  N   -0.000064   0.000000  -0.000029   0.007244  -0.061098   0.310059
     4  C    0.000006  -0.000000  -0.000006  -0.000129   0.002373  -0.002438
     5  C   -0.000001  -0.000000   0.000002  -0.000036  -0.000065   0.002104
     6  C    0.000000  -0.000000  -0.000000  -0.000005  -0.000006  -0.000283
     7  C   -0.000000   0.000000   0.000000   0.000000  -0.000000   0.000014
     8  C   -0.000000   0.000000  -0.000000  -0.000000  -0.000000   0.000244
     9  C   -0.000000  -0.000000   0.000000   0.000001  -0.000210  -0.012679
    10  C   -0.187991   0.000585   0.098103   0.205330  -0.044944  -0.000965
    11  C    0.092886   0.009809  -0.122640   0.055573  -0.000372   0.004051
    12  C    0.293365  -0.076915   0.053524  -0.126680   0.000034   0.000241
    13  C    5.254223   0.407719   0.285185   0.100714  -0.000023   0.000007
    14  C    0.407719   4.549779  -0.076814   0.009850  -0.000000  -0.000000
    15  C    0.285185  -0.076814   5.079265   0.294496  -0.000099   0.000009
    16  C    0.100714   0.009850   0.294496   5.072308  -0.003780  -0.000790
    17  O   -0.000023  -0.000000  -0.000099  -0.003780   8.184932   0.019501
    18  H    0.000007  -0.000000   0.000009  -0.000790   0.019501   0.507019
    19  H    0.000002  -0.000000   0.000003   0.000334   0.000539  -0.000634
    20  H    0.000000   0.000000  -0.000000  -0.000000  -0.000000   0.000011
    21  H    0.000000   0.000000  -0.000000  -0.000000   0.000000  -0.000000
    22  H   -0.000000  -0.000000   0.000000   0.000000  -0.000000  -0.000022
    23  H    0.000000  -0.000000  -0.000000   0.000001  -0.000033   0.002185
    24  H    0.014378  -0.000233  -0.001901   0.013912   0.000738  -0.000908
    25  H   -0.076334  -0.013520   0.014571  -0.002023   0.000001  -0.000006
    26  H   -0.011981   0.389443  -0.003443  -0.000219   0.000000  -0.000000
    27  H   -0.018599   0.392354  -0.008777   0.000801  -0.000000  -0.000000
    28  H   -0.018910   0.392170   0.007325  -0.000569  -0.000000   0.000000
    29  H   -0.075579  -0.013785   0.460297  -0.066928   0.000002  -0.000000
    30  H    0.013953  -0.000225  -0.049985   0.450690   0.000382  -0.000048
              19         20         21         22         23         24
     1  O    0.037196   0.000027   0.000000  -0.000000   0.000009   0.000173
     2  S   -0.009282  -0.000003   0.000000   0.000004  -0.000199  -0.016221
     3  N   -0.013073  -0.000111   0.000011  -0.000112  -0.008393   0.022595
     4  C   -0.066991   0.015111  -0.001409   0.015612  -0.082089  -0.000385
     5  C    0.447519  -0.066787   0.014622  -0.001961   0.016820   0.000034
     6  C   -0.052009   0.457383  -0.067485   0.013862  -0.002142   0.000005
     7  C    0.013522  -0.074332   0.451387  -0.069283   0.014821   0.000001
     8  C   -0.002200   0.014095  -0.070199   0.454314  -0.059522   0.000014
     9  C    0.013322  -0.001941   0.014345  -0.069583   0.451322   0.000023
    10  C    0.000132   0.000001   0.000000  -0.000000   0.000022  -0.068615
    11  C   -0.000161   0.000000   0.000000  -0.000000  -0.000059   0.447501
    12  C   -0.000009   0.000000  -0.000000  -0.000000   0.000000  -0.059989
    13  C    0.000002   0.000000   0.000000  -0.000000   0.000000   0.014378
    14  C   -0.000000   0.000000   0.000000  -0.000000  -0.000000  -0.000233
    15  C    0.000003  -0.000000  -0.000000   0.000000  -0.000000  -0.001901
    16  C    0.000334  -0.000000  -0.000000   0.000000   0.000001   0.013912
    17  O    0.000539  -0.000000   0.000000  -0.000000  -0.000033   0.000738
    18  H   -0.000634   0.000011  -0.000000  -0.000022   0.002185  -0.000908
    19  H    0.603178  -0.012638  -0.000188   0.000011  -0.000091  -0.000014
    20  H   -0.012638   0.664713  -0.011971  -0.000258   0.000025   0.000000
    21  H   -0.000188  -0.011971   0.671982  -0.012338  -0.000232  -0.000000
    22  H    0.000011  -0.000258  -0.012338   0.667604  -0.013211  -0.000000
    23  H   -0.000091   0.000025  -0.000232  -0.013211   0.687423   0.000168
    24  H   -0.000014   0.000000  -0.000000  -0.000000   0.000168   0.647462
    25  H   -0.000000  -0.000000  -0.000000   0.000000  -0.000000  -0.012033
    26  H    0.000000  -0.000000   0.000000   0.000000   0.000000   0.000003
    27  H   -0.000000  -0.000000  -0.000000   0.000000  -0.000000   0.000008
    28  H   -0.000000   0.000000  -0.000000  -0.000000  -0.000000  -0.000003
    29  H   -0.000000   0.000000   0.000000   0.000000   0.000000   0.000026
    30  H    0.000096  -0.000000  -0.000000   0.000000  -0.000000  -0.000216
              25         26         27         28         29         30
     1  O    0.000001  -0.000000   0.000000   0.000000  -0.000006   0.011916
     2  S   -0.000156  -0.000000  -0.000000  -0.000000  -0.000170  -0.009450
     3  N   -0.000012  -0.000000   0.000000   0.000000   0.000001   0.000512
     4  C   -0.000001   0.000000  -0.000000  -0.000000  -0.000000  -0.000050
     5  C    0.000000   0.000000   0.000000  -0.000000   0.000000   0.000019
     6  C    0.000000  -0.000000   0.000000   0.000000   0.000000   0.000000
     7  C   -0.000000   0.000000   0.000000  -0.000000  -0.000000   0.000000
     8  C    0.000000  -0.000000  -0.000000   0.000000   0.000000   0.000000
     9  C    0.000000  -0.000000   0.000000   0.000000   0.000000  -0.000000
    10  C    0.016718   0.000120  -0.000008   0.000005   0.016558  -0.074828
    11  C   -0.065775  -0.000239  -0.000529   0.000847  -0.001878   0.012634
    12  C    0.459120  -0.003318   0.007353  -0.008822   0.014404  -0.001663
    13  C   -0.076334  -0.011981  -0.018599  -0.018910  -0.075579   0.013953
    14  C   -0.013520   0.389443   0.392354   0.392170  -0.013785  -0.000225
    15  C    0.014571  -0.003443  -0.008777   0.007325   0.460297  -0.049985
    16  C   -0.002023  -0.000219   0.000801  -0.000569  -0.066928   0.450690
    17  O    0.000001   0.000000  -0.000000  -0.000000   0.000002   0.000382
    18  H   -0.000006  -0.000000  -0.000000   0.000000  -0.000000  -0.000048
    19  H   -0.000000   0.000000  -0.000000  -0.000000  -0.000000   0.000096
    20  H   -0.000000  -0.000000  -0.000000   0.000000   0.000000  -0.000000
    21  H   -0.000000   0.000000  -0.000000  -0.000000   0.000000  -0.000000
    22  H    0.000000   0.000000   0.000000  -0.000000   0.000000   0.000000
    23  H   -0.000000   0.000000  -0.000000  -0.000000   0.000000  -0.000000
    24  H   -0.012033   0.000003   0.000008  -0.000003   0.000026  -0.000216
    25  H    0.669091   0.000774   0.000144   0.004397  -0.000226   0.000022
    26  H    0.000774   0.598224  -0.017143  -0.017322   0.000734   0.000004
    27  H    0.000144  -0.017143   0.619292  -0.022252   0.004493  -0.000001
    28  H    0.004397  -0.017322  -0.022252   0.620216   0.000161   0.000007
    29  H   -0.000226   0.000734   0.004493   0.000161   0.664902  -0.011354
    30  H    0.000022   0.000004  -0.000001   0.000007  -0.011354   0.626139
 Mulliken charges:
               1
     1  O   -0.461786
     2  S    0.930846
     3  N   -0.302820
     4  C    0.125673
     5  C   -0.060851
     6  C   -0.004886
     7  C   -0.008982
     8  C   -0.006410
     9  C   -0.050493
    10  C   -0.077011
    11  C    0.024603
    12  C   -0.023513
    13  C   -0.073806
    14  C    0.029774
    15  C   -0.031257
    16  C    0.020226
    17  O   -0.487653
    18  H    0.171728
    19  H    0.041436
    20  H    0.016676
    21  H    0.011475
    22  H    0.015363
    23  H   -0.006826
    24  H    0.013478
    25  H    0.005247
    26  H    0.064363
    27  H    0.042865
    28  H    0.042751
    29  H    0.008345
    30  H    0.031445
 Sum of Mulliken charges =  -0.00000
 Mulliken charges with hydrogens summed into heavy atoms:
               1
     1  O   -0.461786
     2  S    0.930846
     3  N   -0.131092
     4  C    0.125673
     5  C   -0.019415
     6  C    0.011791
     7  C    0.002493
     8  C    0.008952
     9  C   -0.057318
    10  C   -0.077011
    11  C    0.038080
    12  C   -0.018266
    13  C   -0.073806
    14  C    0.179753
    15  C   -0.022912
    16  C    0.051671
    17  O   -0.487653
 Electronic spatial extent (au):  <R**2>=           5346.4078
 Charge=             -0.0000 electrons
 Dipole moment (field-independent basis, Debye):
    X=             -1.7080    Y=             -3.8073    Z=             -0.0647  Tot=              4.1733
 Quadrupole moment (field-independent basis, Debye-Ang):
   XX=            -87.0497   YY=           -112.0455   ZZ=           -104.0001
   XY=              0.5478   XZ=             -4.3615   YZ=              7.0297
 Traceless Quadrupole moment (field-independent basis, Debye-Ang):
   XX=             13.9821   YY=            -11.0138   ZZ=             -2.9683
   XY=              0.5478   XZ=             -4.3615   YZ=              7.0297
 Octapole moment (field-independent basis, Debye-Ang**2):
  XXX=            -36.3132  YYY=             -5.9899  ZZZ=             -3.8317  XYY=            -12.3653
  XXY=            -27.4137  XXZ=             23.9228  XZZ=             10.5385  YZZ=             -6.2996
  YYZ=              1.5844  XYZ=             -2.6436
 Hexadecapole moment (field-independent basis, Debye-Ang**3):
 XXXX=          -5205.1590 YYYY=          -1051.8168 ZZZZ=           -603.2300 XXXY=            -30.1629
 XXXZ=            -18.0228 YYYX=             21.9546 YYYZ=             31.4664 ZZZX=             -4.2839
 ZZZY=             22.5189 XXYY=          -1047.8577 XXZZ=           -989.0670 YYZZ=           -289.5630
 XXYZ=             36.1070 YYXZ=            -22.3815 ZZXY=              4.2692
 N-N= 1.296396447009D+03 E-N=-5.181567735446D+03  KE= 1.097949218876D+03
   1 Symmetry operations used in ECPInt.
 ECPInt:  NShTT=   10296 NPrTT=   38220 LenC2=    9257 LenP2D=   24264.
 LDataN:  DoStor=T MaxTD1= 5 Len=  102
 Calling FoFJK, ICntrl=      2127 FMM=F ISym2X=0 I1Cent= 0 IOpClX= 0 NMat=1 NMatS=1 NMatT=0.
 ***** Axes restored to original set *****
 -------------------------------------------------------------------
 Center     Atomic                   Forces (Hartrees/Bohr)
 Number     Number              X              Y              Z
 -------------------------------------------------------------------
      1        8          -0.008112533    0.009100557   -0.053548091
      2       16          -0.035444573    0.033346140    0.014115040
      3        7          -0.007870891    0.012661091    0.029091129
      4        6           0.029498273   -0.016305047    0.006205433
      5        6          -0.013000872    0.003760746   -0.003844861
      6        6           0.005533440   -0.003812752   -0.004246524
      7        6           0.006601984   -0.003121390    0.002721506
      8        6           0.003461002   -0.000932247    0.000850879
      9        6          -0.015201321    0.007296152    0.000436712
     10        6           0.015109003    0.004914617    0.003053897
     11        6           0.002402235   -0.002447115   -0.011537704
     12        6           0.000327398    0.002833214    0.002036749
     13        6          -0.003367485   -0.003534312    0.000565997
     14        6          -0.004670629    0.001324158   -0.001770647
     15        6           0.001893812    0.001554666   -0.002417436
     16        6          -0.001756160    0.005681762    0.011744835
     17        8           0.011955433   -0.042090238    0.027366135
     18        1           0.007837772    0.007034799   -0.021346863
     19        1          -0.001587169    0.000064295    0.007676777
     20        1           0.001392094   -0.000166519    0.010098260
     21        1           0.009354264   -0.004488448    0.002347988
     22        1           0.005738634   -0.003219431   -0.008090102
     23        1          -0.002504785    0.000357815   -0.012847442
     24        1           0.005784678   -0.002495316   -0.007750494
     25        1          -0.001125054   -0.005834302   -0.010140467
     26        1           0.000164058   -0.007228629    0.002668927
     27        1          -0.004638171    0.001571548    0.003740380
     28        1          -0.001883528   -0.001901622   -0.005634521
     29        1          -0.007094205    0.001659709    0.009159646
     30        1           0.001203297    0.004416096    0.009294860
 -------------------------------------------------------------------
 Cartesian Forces:  Max     0.053548091 RMS     0.012251436

 GradGradGradGradGradGradGradGradGradGradGradGradGradGradGradGradGradGrad
 Berny optimization.
 FormGI is forming the generalized inverse of G from B-inverse, IUseBI=4.
 Internal  Forces:  Max     0.059470206 RMS     0.010742209
 Search for a local minimum.
 Step number   1 out of a maximum of  162
 All quantities printed in internal units (Hartrees-Bohrs-Radians)
 Mixed Optimization -- RFO/linear search
 Second derivative matrix not updated -- first step.
 ITU=  0
     Eigenvalues ---    0.00394   0.00926   0.01236   0.01593   0.01725
     Eigenvalues ---    0.01743   0.01982   0.02127   0.02237   0.02268
     Eigenvalues ---    0.02271   0.02301   0.02310   0.02338   0.02348
     Eigenvalues ---    0.02349   0.02371   0.02385   0.02386   0.02391
     Eigenvalues ---    0.02396   0.02418   0.03305   0.07316   0.07337
     Eigenvalues ---    0.09712   0.11729   0.12020   0.12597   0.15997
     Eigenvalues ---    0.16000   0.16000   0.16000   0.16000   0.16000
     Eigenvalues ---    0.16000   0.16000   0.16000   0.16000   0.16000
     Eigenvalues ---    0.16000   0.17895   0.21999   0.22000   0.22000
     Eigenvalues ---    0.22975   0.23412   0.23457   0.23997   0.24987
     Eigenvalues ---    0.24996   0.25000   0.25000   0.26257   0.33682
     Eigenvalues ---    0.34770   0.34771   0.34777   0.35352   0.36233
     Eigenvalues ---    0.36276   0.36287   0.36295   0.36433   0.36441
     Eigenvalues ---    0.36442   0.36510   0.36766   0.42506   0.43382
     Eigenvalues ---    0.44014   0.44285   0.46034   0.47040   0.47791
     Eigenvalues ---    0.47797   0.48083   0.49072   0.49209   0.49308
     Eigenvalues ---    0.49988   0.50117   0.75918   0.76264
 RFO step:  Lambda=-4.49340221D-02 EMin= 3.93722727D-03
 Linear search not attempted -- first point.
 Maximum step size (   0.300) exceeded in Quadratic search.
    -- Step size scaled by   0.884
 Iteration  1 RMS(Cart)=  0.17459753 RMS(Int)=  0.00626057
 Iteration  2 RMS(Cart)=  0.01806779 RMS(Int)=  0.00094015
 Iteration  3 RMS(Cart)=  0.00020211 RMS(Int)=  0.00093755
 Iteration  4 RMS(Cart)=  0.00000017 RMS(Int)=  0.00093755
 Variable       Old X    -DE/DX   Delta X   Delta X   Delta X     New X
                                 (Linear)    (Quad)   (Total)
    R1        2.83695  -0.05429   0.00000  -0.05943  -0.05943   2.77752
    R2        3.22107   0.01121   0.00000   0.02487   0.02487   3.24594
    R3        3.39816  -0.00253   0.00000  -0.00728  -0.00728   3.39088
    R4        2.83895  -0.05114   0.00000  -0.05622  -0.05622   2.78272
    R5        2.64093   0.03398   0.00000   0.05945   0.05945   2.70037
    R6        1.88862   0.02088   0.00000   0.03530   0.03530   1.92392
    R7        2.64615   0.00610   0.00000   0.01041   0.01041   2.65656
    R8        2.64698   0.00407   0.00000   0.00648   0.00647   2.65345
    R9        2.59660   0.01987   0.00000   0.03243   0.03244   2.62904
   R10        2.02900   0.00644   0.00000   0.01379   0.01379   2.04279
   R11        2.60821   0.01206   0.00000   0.02059   0.02059   2.62880
   R12        2.03651   0.01010   0.00000   0.02190   0.02190   2.05842
   R13        2.60871   0.01093   0.00000   0.01840   0.01840   2.62711
   R14        2.03622   0.01063   0.00000   0.02304   0.02304   2.05926
   R15        2.59844   0.01563   0.00000   0.02502   0.02501   2.62345
   R16        2.03635   0.01038   0.00000   0.02249   0.02249   2.05884
   R17        2.03291   0.01305   0.00000   0.02813   0.02813   2.06104
   R18        2.59747   0.01951   0.00000   0.03219   0.03220   2.62967
   R19        2.59664   0.01936   0.00000   0.03184   0.03185   2.62849
   R20        2.60786   0.01166   0.00000   0.01929   0.01929   2.62716
   R21        2.03410   0.00972   0.00000   0.02100   0.02100   2.05509
   R22        2.62164   0.01460   0.00000   0.02411   0.02411   2.64575
   R23        2.03397   0.01166   0.00000   0.02519   0.02519   2.05916
   R24        2.81170   0.01270   0.00000   0.02942   0.02942   2.84111
   R25        2.62172   0.01420   0.00000   0.02338   0.02337   2.64508
   R26        2.06038   0.00768   0.00000   0.01728   0.01728   2.07766
   R27        2.06049   0.00601   0.00000   0.01352   0.01352   2.07401
   R28        2.06051   0.00607   0.00000   0.01368   0.01368   2.07418
   R29        2.60842   0.01084   0.00000   0.01784   0.01784   2.62626
   R30        2.03398   0.01162   0.00000   0.02509   0.02509   2.05907
   R31        2.03718   0.01020   0.00000   0.02213   0.02213   2.05932
    A1        2.05542  -0.00552   0.00000  -0.02171  -0.02316   2.03226
    A2        1.83681  -0.00129   0.00000   0.01041   0.01069   1.84750
    A3        2.12075  -0.00401   0.00000  -0.03649  -0.03756   2.08319
    A4        1.73117   0.01735   0.00000   0.06791   0.06748   1.79865
    A5        1.80115  -0.00420   0.00000  -0.01699  -0.01874   1.78241
    A6        1.87375   0.00327   0.00000   0.02452   0.02454   1.89829
    A7        2.10420   0.05947   0.00000   0.19746   0.19492   2.29912
    A8        1.71797  -0.01028   0.00000   0.00464   0.00205   1.72002
    A9        2.00367  -0.01919   0.00000  -0.05658  -0.06359   1.94008
   A10        2.16275   0.02367   0.00000   0.07178   0.07171   2.23446
   A11        2.07143  -0.02602   0.00000  -0.07716  -0.07717   1.99425
   A12        2.04888   0.00233   0.00000   0.00511   0.00506   2.05394
   A13        2.11652  -0.00449   0.00000  -0.01490  -0.01489   2.10162
   A14        2.07257   0.00665   0.00000   0.02650   0.02648   2.09905
   A15        2.09394  -0.00215   0.00000  -0.01146  -0.01147   2.08246
   A16        2.09706   0.00468   0.00000   0.01775   0.01777   2.11482
   A17        2.09269  -0.00374   0.00000  -0.01491  -0.01492   2.07776
   A18        2.09343  -0.00094   0.00000  -0.00284  -0.00284   2.09059
   A19        2.09145  -0.00529   0.00000  -0.01546  -0.01545   2.07600
   A20        2.09577   0.00303   0.00000   0.00938   0.00937   2.10515
   A21        2.09596   0.00226   0.00000   0.00609   0.00608   2.10204
   A22        2.09792   0.00017   0.00000   0.00073   0.00073   2.09864
   A23        2.09247   0.00098   0.00000   0.00422   0.00422   2.09669
   A24        2.09280  -0.00115   0.00000  -0.00496  -0.00495   2.08785
   A25        2.11455   0.00260   0.00000   0.00675   0.00673   2.12128
   A26        2.06764  -0.00016   0.00000   0.00154   0.00155   2.06919
   A27        2.10098  -0.00243   0.00000  -0.00827  -0.00827   2.09272
   A28        2.11298   0.00560   0.00000   0.01566   0.01562   2.12860
   A29        2.07396  -0.00733   0.00000  -0.02309  -0.02313   2.05082
   A30        2.09624   0.00174   0.00000   0.00739   0.00737   2.10361
   A31        2.09549  -0.00374   0.00000  -0.01105  -0.01103   2.08445
   A32        2.08188   0.00398   0.00000   0.01463   0.01462   2.09650
   A33        2.10580  -0.00024   0.00000  -0.00358  -0.00359   2.10221
   A34        2.10412   0.00305   0.00000   0.00924   0.00924   2.11336
   A35        2.09657  -0.00295   0.00000  -0.01077  -0.01077   2.08580
   A36        2.08250  -0.00010   0.00000   0.00152   0.00152   2.08402
   A37        2.10572   0.00039   0.00000   0.00223   0.00224   2.10796
   A38        2.07088  -0.00083   0.00000  -0.00458  -0.00459   2.06629
   A39        2.10614   0.00045   0.00000   0.00241   0.00241   2.10856
   A40        1.93353   0.00019   0.00000  -0.00054  -0.00054   1.93299
   A41        1.93970   0.00104   0.00000   0.00519   0.00517   1.94487
   A42        1.93933   0.00105   0.00000   0.00517   0.00515   1.94448
   A43        1.88512  -0.00114   0.00000  -0.00615  -0.00615   1.87897
   A44        1.88543  -0.00119   0.00000  -0.00645  -0.00645   1.87898
   A45        1.87844  -0.00007   0.00000   0.00225   0.00221   1.88066
   A46        2.10458   0.00251   0.00000   0.00708   0.00706   2.11165
   A47        2.08286   0.00013   0.00000   0.00242   0.00242   2.08529
   A48        2.09574  -0.00264   0.00000  -0.00949  -0.00949   2.08625
   A49        2.09493  -0.00272   0.00000  -0.00798  -0.00798   2.08696
   A50        2.07813   0.00294   0.00000   0.01080   0.01079   2.08892
   A51        2.11011  -0.00022   0.00000  -0.00282  -0.00282   2.10729
    D1       -0.20884   0.00998   0.00000   0.09164   0.09356  -0.11528
    D2       -2.39840   0.00779   0.00000   0.04285   0.03951  -2.35888
    D3       -2.17607   0.00263   0.00000   0.04441   0.04716  -2.12892
    D4        1.91756   0.00044   0.00000  -0.00438  -0.00689   1.91067
    D5        2.18050  -0.00513   0.00000   0.00177   0.00499   2.18549
    D6       -0.00905  -0.00732   0.00000  -0.04702  -0.04906  -0.05811
    D7       -2.52692  -0.00261   0.00000  -0.02855  -0.02904  -2.55596
    D8        0.61793  -0.00157   0.00000  -0.01352  -0.01406   0.60387
    D9       -0.39373  -0.00178   0.00000  -0.01981  -0.01981  -0.41354
   D10        2.75112  -0.00075   0.00000  -0.00479  -0.00483   2.74628
   D11        1.47431   0.00108   0.00000  -0.00611  -0.00555   1.46876
   D12       -1.66403   0.00211   0.00000   0.00892   0.00943  -1.65460
   D13        0.24174  -0.00494   0.00000  -0.00790  -0.00575   0.23599
   D14       -2.91791  -0.00625   0.00000  -0.02599  -0.02385  -2.94177
   D15        2.29107   0.01222   0.00000   0.11080   0.10867   2.39974
   D16       -0.86858   0.01091   0.00000   0.09271   0.09057  -0.77801
   D17        3.12613  -0.00112   0.00000  -0.01273  -0.01343   3.11270
   D18       -0.03458  -0.00046   0.00000  -0.00420  -0.00466  -0.03925
   D19        0.00238   0.00045   0.00000   0.00594   0.00595   0.00833
   D20        3.12485   0.00110   0.00000   0.01447   0.01473   3.13958
   D21       -3.12695   0.00019   0.00000   0.00537   0.00463  -3.12232
   D22        0.00883   0.00050   0.00000   0.00907   0.00844   0.01727
   D23       -0.00224  -0.00079   0.00000  -0.01076  -0.01066  -0.01289
   D24        3.13354  -0.00048   0.00000  -0.00707  -0.00685   3.12669
   D25       -0.00141   0.00011   0.00000   0.00169   0.00159   0.00018
   D26        3.13473   0.00017   0.00000   0.00194   0.00195   3.13667
   D27       -3.12365  -0.00065   0.00000  -0.00735  -0.00751  -3.13117
   D28        0.01249  -0.00059   0.00000  -0.00711  -0.00716   0.00533
   D29        0.00021  -0.00035   0.00000  -0.00481  -0.00470  -0.00450
   D30        3.13939  -0.00008   0.00000  -0.00118  -0.00111   3.13828
   D31       -3.13593  -0.00040   0.00000  -0.00502  -0.00503  -3.14096
   D32        0.00325  -0.00012   0.00000  -0.00139  -0.00143   0.00182
   D33       -0.00006   0.00002   0.00000   0.00006   0.00010   0.00004
   D34       -3.14154   0.00027   0.00000   0.00390   0.00381  -3.13773
   D35       -3.13925  -0.00026   0.00000  -0.00358  -0.00349   3.14045
   D36        0.00247  -0.00000   0.00000   0.00026   0.00021   0.00268
   D37        0.00112   0.00056   0.00000   0.00792   0.00774   0.00886
   D38       -3.13454   0.00024   0.00000   0.00412   0.00384  -3.13070
   D39       -3.14059   0.00031   0.00000   0.00408   0.00405  -3.13654
   D40        0.00693  -0.00002   0.00000   0.00028   0.00016   0.00709
   D41       -3.13175   0.00102   0.00000   0.01397   0.01414  -3.11761
   D42        0.01500   0.00117   0.00000   0.01589   0.01604   0.03104
   D43        0.00655  -0.00004   0.00000  -0.00131  -0.00134   0.00521
   D44       -3.12989   0.00011   0.00000   0.00062   0.00057  -3.12932
   D45        3.13323  -0.00108   0.00000  -0.01478  -0.01464   3.11860
   D46       -0.01345  -0.00112   0.00000  -0.01538  -0.01527  -0.02872
   D47       -0.00513  -0.00006   0.00000   0.00008   0.00010  -0.00504
   D48        3.13137  -0.00011   0.00000  -0.00052  -0.00054   3.13083
   D49        0.00354  -0.00015   0.00000  -0.00173  -0.00171   0.00183
   D50       -3.13779  -0.00001   0.00000   0.00007   0.00006  -3.13773
   D51        3.13991  -0.00029   0.00000  -0.00363  -0.00357   3.13634
   D52       -0.00142  -0.00015   0.00000  -0.00183  -0.00180  -0.00322
   D53       -3.12455   0.00028   0.00000   0.00369   0.00368  -3.12087
   D54       -0.01473   0.00044   0.00000   0.00596   0.00594  -0.00879
   D55        0.01678   0.00014   0.00000   0.00189   0.00191   0.01869
   D56        3.12660   0.00030   0.00000   0.00416   0.00417   3.13077
   D57        1.53842   0.00005   0.00000   0.00100   0.00100   1.53942
   D58       -2.64890  -0.00057   0.00000  -0.00368  -0.00369  -2.65260
   D59       -0.55759   0.00073   0.00000   0.00606   0.00608  -0.55151
   D60       -1.57075  -0.00009   0.00000  -0.00119  -0.00119  -1.57194
   D61        0.52511  -0.00071   0.00000  -0.00587  -0.00588   0.51923
   D62        2.61642   0.00059   0.00000   0.00388   0.00389   2.62032
   D63        0.01616  -0.00054   0.00000  -0.00717  -0.00719   0.00897
   D64       -3.12637  -0.00031   0.00000  -0.00428  -0.00425  -3.13062
   D65        3.12597  -0.00038   0.00000  -0.00491  -0.00493   3.12104
   D66       -0.01656  -0.00015   0.00000  -0.00201  -0.00199  -0.01855
   D67       -0.00639   0.00034   0.00000   0.00417   0.00420  -0.00218
   D68        3.14039   0.00038   0.00000   0.00475   0.00481  -3.13799
   D69        3.13615   0.00011   0.00000   0.00125   0.00126   3.13740
   D70       -0.00026   0.00015   0.00000   0.00183   0.00186   0.00160
         Item               Value     Threshold  Converged?
 Maximum Force            0.059470     0.000450     NO 
 RMS     Force            0.010742     0.000300     NO 
 Maximum Displacement     0.647441     0.001800     NO 
 RMS     Displacement     0.186779     0.001200     NO 
 Predicted change in Energy=-2.506643D-02
 GradGradGradGradGradGradGradGradGradGradGradGradGradGradGradGradGradGrad

                          Input orientation:                          
 ---------------------------------------------------------------------
 Center     Atomic      Atomic             Coordinates (Angstroms)
 Number     Number       Type             X           Y           Z
 ---------------------------------------------------------------------
      1          8           0        0.130842    1.472491    1.694659
      2         16           0       -0.100719    1.364958    0.247201
      3          7           0        1.055440    0.463038   -0.647367
      4          6           0        2.302245   -0.124388   -0.270038
      5          6           0        2.802239   -0.336903    1.026533
      6          6           0        4.032599   -0.958725    1.213785
      7          6           0        4.796492   -1.384012    0.131767
      8          6           0        4.310199   -1.184080   -1.155177
      9          6           0        3.081002   -0.569085   -1.350502
     10          6           0       -1.600934    0.398228    0.061250
     11          6           0       -1.789521   -0.470370   -1.009456
     12          6           0       -2.984575   -1.172496   -1.117192
     13          6           0       -4.001752   -1.018295   -0.167579
     14          6           0       -5.280836   -1.800909   -0.276343
     15          6           0       -3.784443   -0.145151    0.904618
     16          6           0       -2.593642    0.561742    1.021722
     17          8           0       -0.225245    2.592134   -0.557129
     18          1           0        1.172612    1.102275   -1.431055
     19          1           0        2.237947   -0.009652    1.888531
     20          1           0        4.400811   -1.108012    2.228002
     21          1           0        5.760438   -1.867365    0.288783
     22          1           0        4.890836   -1.512815   -2.016444
     23          1           0        2.700148   -0.424187   -2.362177
     24          1           0       -1.004418   -0.601766   -1.750417
     25          1           0       -3.132156   -1.855718   -1.953124
     26          1           0       -5.188578   -2.770867    0.233028
     27          1           0       -6.120457   -1.262779    0.181916
     28          1           0       -5.541806   -1.998523   -1.324003
     29          1           0       -4.560087   -0.019538    1.659506
     30          1           0       -2.427430    1.237941    1.859974
 ---------------------------------------------------------------------
                    Distance matrix (angstroms):
                    1          2          3          4          5
     1  O    0.000000
     2  S    1.469803   0.000000
     3  N    2.712742   1.717678   0.000000
     4  C    3.335424   2.874009   1.428975   0.000000
     5  C    3.294945   3.454107   2.548167   1.405793   0.000000
     6  C    4.622311   4.839225   3.787977   2.427339   1.391226
     7  C    5.689511   5.617191   4.244303   2.823007   2.423652
     8  C    5.713664   5.283981   3.682977   2.436862   2.784153
     9  C    4.705793   4.051731   2.379617   1.404144   2.404561
    10  C    2.611727   1.794378   2.750030   3.951922   4.567289
    11  C    3.843793   2.792789   3.015985   4.172409   5.024672
    12  C    4.960674   4.076380   4.383769   5.455884   6.227439
    13  C    5.172067   4.590207   5.291477   6.367884   6.941505
    14  C    6.624670   6.093474   6.738806   7.766201   8.317266
    15  C    4.309337   4.035152   5.118888   6.199033   6.590600
    16  C    2.950444   2.731246   4.013901   5.109709   5.470203
    17  O    2.539872   1.472554   2.486232   3.721575   4.500323
    18  H    3.315484   2.122950   1.018097   2.031929   3.281259
    19  H    2.583452   3.170627   2.837700   2.162573   1.081000
    20  H    5.017578   5.504809   4.682676   3.407594   2.143261
    21  H    6.695034   6.693490   5.333307   3.912716   3.411382
    22  H    6.733639   6.190420   4.526437   3.417377   3.873592
    23  H    5.163007   4.225488   2.536297   2.150639   3.391370
    24  H    4.178506   2.945362   2.567789   3.654235   4.719348
    25  H    5.918653   4.940020   4.961612   5.946679   6.811916
    26  H    6.959791   6.556796   7.086678   7.960487   8.390888
    27  H    6.989194   6.568600   7.426954   8.511292   9.010279
    28  H    7.303369   6.586890   7.073951   8.133410   8.826613
    29  H    4.922621   4.878257   6.090048   7.129217   7.396298
    30  H    2.574315   2.833859   4.360920   5.363089   5.524871
                    6          7          8          9         10
     6  C    0.000000
     7  C    1.391103   0.000000
     8  C    2.395794   1.390208   0.000000
     9  C    2.762775   2.409177   1.388271   0.000000
    10  C    5.908160   6.641417   6.238981   4.984904   0.000000
    11  C    6.251270   6.746310   6.143061   4.883447   1.391559
    12  C    7.397289   7.883505   7.294882   6.099981   2.402158
    13  C    8.152454   8.810928   8.372058   7.194894   2.796931
    14  C    9.469415  10.094201   9.650947   8.520067   4.300215
    15  C    7.865343   8.704281   8.416967   7.238758   2.402964
    16  C    6.801159   7.693637   7.446461   6.253622   1.390939
    17  O    5.820135   6.442217   5.931922   4.642630   2.662356
    18  H    4.407088   4.664391   3.892041   2.538087   3.227261
    19  H    2.139345   3.394295   3.864928   3.393383   4.271104
    20  H    1.089267   2.151033   3.385246   3.852016   6.556258
    21  H    2.160251   1.089714   2.157566   3.398848   7.705484
    22  H    3.387916   2.154136   1.089490   2.146999   7.078982
    23  H    3.853396   3.396421   2.150942   1.090656   5.004865
    24  H    5.855378   6.148584   5.379457   4.105077   2.153591
    25  H    7.884645   8.211744   7.515082   6.373532   3.388601
    26  H    9.448590  10.081431   9.729942   8.702952   4.789975
    27  H   10.209884  10.917737  10.516301   9.353949   4.816595
    28  H    9.959456  10.458360   9.887053   8.740527   4.815995
    29  H    8.655344   9.578170   9.378729   8.230941   3.389031
    30  H    6.853822   7.876953   7.768717   6.626864   2.150262
                   11         12         13         14         15
    11  C    0.000000
    12  C    1.390231   0.000000
    13  C    2.429597   1.400068   0.000000
    14  C    3.807502   2.524825   1.503453   0.000000
    15  C    2.783731   2.404774   1.399718   2.524955   0.000000
    16  C    2.416102   2.781252   2.427700   3.806324   1.389755
    17  O    3.468500   4.701066   5.239175   6.703482   4.722004
    18  H    3.380117   4.749242   5.732995   7.169995   5.619949
    19  H    4.983080   6.136882   6.646712   8.026667   6.103738
    20  H    7.014837   8.107923   8.737844  10.024278   8.347264
    21  H    7.787099   8.884530   9.809665  11.055927   9.718540
    22  H    6.835781   7.933888   9.096207  10.323462   9.255462
    23  H    4.689255   5.867370   7.077053   8.363143   7.266341
    24  H    1.087508   2.155859   3.415096   4.679593   3.871207
    25  H    2.147642   1.089658   2.155376   2.726064   3.393848
    26  H    4.288315   3.038999   2.154194   1.099450   3.052378
    27  H    4.561171   3.395524   2.161210   1.097519   2.688559
    28  H    4.063722   2.695277   2.161002   1.097610   3.389700
    29  H    3.873324   3.394348   2.155804   2.727686   1.089614
    30  H    3.399836   3.870935   3.417611   4.684057   2.160355
                   16         17         18         19         20
    16  C    0.000000
    17  O    3.496365   0.000000
    18  H    4.526915   2.222033   0.000000
    19  H    4.941872   4.337956   3.659368   0.000000
    20  H    7.291472   6.545871   5.356803   2.449412   0.000000
    21  H    8.730888   7.512064   5.729289   4.291647   2.487121
    22  H    8.339763   6.719710   4.583293   4.954408   4.291773
    23  H    6.359798   4.573217   2.351689   4.295810   4.942632
    24  H    3.400608   3.497434   2.783022   4.909733   6.730573
    25  H    3.870894   5.493845   5.249125   6.855967   8.647917
    26  H    4.296745   7.349885   7.631196   8.094336   9.934858
    27  H    4.058642   7.082377   7.834795   8.622399  10.719491
    28  H    4.555113   7.065979   7.396609   8.648730  10.595536
    29  H    2.147454   5.524958   6.608620   6.801897   9.044648
[...]
     1  O    0.000128   0.000101   0.001074  -0.078724   0.006940  -0.000266
     2  S    0.000025   0.000734   0.007033   0.307982  -0.039177   0.005745
     3  N    0.000974   0.013251  -0.039571  -0.061467   0.000039  -0.001190
     4  C   -0.112009   0.009894   0.334016   0.045013   0.001025   0.000250
     5  C    0.048671  -0.090381   0.057835   0.003470   0.000327   0.000048
     6  C    0.413204   0.022537  -0.097996  -0.000068   0.000171  -0.000008
     7  C    4.963715   0.439112   0.035555  -0.000158  -0.000059   0.000020
     8  C    0.439112   4.933713   0.408407  -0.001761  -0.000680  -0.000051
     9  C    0.035555   0.408407   5.115177  -0.000179  -0.001915   0.000794
    10  C   -0.000158  -0.001761  -0.000179   5.294001   0.368106   0.015628
    11  C   -0.000059  -0.000680  -0.001915   0.368106   5.106108   0.404474
    12  C    0.000020  -0.000051   0.000794   0.015628   0.404474   5.062842
    13  C    0.000043   0.000056  -0.000461  -0.090525   0.016189   0.432435
    14  C   -0.000001  -0.000016   0.000008  -0.004307   0.013165  -0.073386
    15  C   -0.000195   0.002006  -0.000565   0.049782  -0.046386  -0.014090
    16  C   -0.000703   0.001197  -0.014231   0.316302  -0.069595  -0.050394
    17  O   -0.000003  -0.000001  -0.000525  -0.096280   0.026778   0.002760
    18  H    0.000136   0.001086   0.008837  -0.000736   0.000146  -0.000166
    19  H    0.010215  -0.004442   0.011286   0.001828  -0.000172   0.000007
    20  H   -0.058353   0.010553  -0.003503  -0.000016   0.000001  -0.000000
    21  H    0.443933  -0.056087   0.012197   0.000004  -0.000000   0.000000
    22  H   -0.057144   0.438885  -0.053929   0.000005  -0.000001  -0.000003
    23  H    0.010389  -0.031463   0.439948   0.000786   0.000381   0.000310
    24  H   -0.000003   0.000006  -0.000132  -0.045631   0.432612  -0.048526
    25  H   -0.000000   0.000003  -0.000002   0.011281  -0.048848   0.443167
    26  H   -0.000000   0.000001  -0.000002   0.000056  -0.000641   0.006938
    27  H    0.000000   0.000000   0.000000   0.000161  -0.000663  -0.004588
    28  H    0.000000  -0.000001   0.000001   0.000064   0.001950  -0.006506
    29  H    0.000008   0.000072  -0.000080   0.010715  -0.003657   0.012775
    30  H    0.000105   0.000167  -0.001666  -0.046324   0.008176  -0.002425
              13         14         15         16         17         18
     1  O   -0.000112  -0.000000   0.002964   0.018594  -0.043928   0.002676
     2  S   -0.000536   0.000005   0.004867  -0.016552   0.584234  -0.016602
     3  N    0.000227  -0.000004   0.000050   0.006362  -0.048057   0.365623
     4  C   -0.000718   0.000007   0.001885  -0.002560   0.001635  -0.051471
     5  C    0.000219   0.000006  -0.002491   0.000875  -0.000743   0.004525
     6  C   -0.000039  -0.000001   0.000434  -0.001270  -0.000000  -0.000720
     7  C    0.000043  -0.000001  -0.000195  -0.000703  -0.000003   0.000136
     8  C    0.000056  -0.000016   0.002006   0.001197  -0.000001   0.001086
     9  C   -0.000461   0.000008  -0.000565  -0.014231  -0.000525   0.008837
    10  C   -0.090525  -0.004307   0.049782   0.316302  -0.096280  -0.000736
    11  C    0.016189   0.013165  -0.046386  -0.069595   0.026778   0.000146
    12  C    0.432435  -0.073386  -0.014090  -0.050394   0.002760  -0.000166
    13  C    4.972658   0.297543   0.412460   0.033041   0.000166   0.000064
    14  C    0.297543   4.958421  -0.073662   0.013785   0.000001   0.000000
    15  C    0.412460  -0.073662   5.100231   0.357432  -0.000586  -0.000043
    16  C    0.033041   0.013785   0.357432   5.142000   0.008733   0.000706
    17  O    0.000166   0.000001  -0.000586   0.008733   8.022370   0.004369
    18  H    0.000064   0.000000  -0.000043   0.000706   0.004369   0.429406
    19  H    0.000015   0.000000  -0.000158  -0.000442  -0.000133  -0.000050
    20  H   -0.000000  -0.000000   0.000008  -0.000004  -0.000000   0.000013
    21  H   -0.000001   0.000000  -0.000002  -0.000018   0.000000  -0.000002
    22  H   -0.000005   0.000000   0.000022   0.000029  -0.000000  -0.000040
    23  H   -0.000009  -0.000000  -0.000258  -0.000269  -0.000175   0.003563
    24  H    0.008424  -0.000057  -0.002424   0.008279   0.013554   0.000364
    25  H   -0.062050  -0.006808   0.012873  -0.003857  -0.000028  -0.000009
    26  H   -0.053243   0.427587  -0.006657   0.001929   0.000000  -0.000000
    27  H   -0.017382   0.390178  -0.004872  -0.000730  -0.000000  -0.000000
    28  H   -0.054932   0.427667   0.007951  -0.000708   0.000000   0.000000
    29  H   -0.063192  -0.006628   0.444542  -0.048576   0.000003   0.000000
    30  H    0.008916  -0.000031  -0.049472   0.436241   0.000384  -0.000098
              19         20         21         22         23         24
     1  O    0.008970  -0.000038   0.000001  -0.000000  -0.000017   0.000543
     2  S   -0.002920  -0.000003   0.000003  -0.000007  -0.000121  -0.004413
     3  N   -0.001404  -0.000119   0.000008  -0.000360   0.002897   0.000275
     4  C   -0.044798   0.013945  -0.003964   0.015211  -0.080499  -0.000183
     5  C    0.434637  -0.057683   0.011297  -0.003858   0.012036  -0.000018
     6  C   -0.048923   0.446325  -0.056275   0.010719  -0.003893   0.000007
     7  C    0.010215  -0.058353   0.443933  -0.057144   0.010389  -0.000003
     8  C   -0.004442   0.010553  -0.056087   0.438885  -0.031463   0.000006
     9  C    0.011286  -0.003503   0.012197  -0.053929   0.439948  -0.000132
    10  C    0.001828  -0.000016   0.000004   0.000005   0.000786  -0.045631
    11  C   -0.000172   0.000001  -0.000000  -0.000001   0.000381   0.432612
    12  C    0.000007  -0.000000   0.000000  -0.000003   0.000310  -0.048526
    13  C    0.000015  -0.000000  -0.000001  -0.000005  -0.000009   0.008424
    14  C    0.000000  -0.000000   0.000000   0.000000  -0.000000  -0.000057
    15  C   -0.000158   0.000008  -0.000002   0.000022  -0.000258  -0.002424
    16  C   -0.000442  -0.000004  -0.000018   0.000029  -0.000269   0.008279
    17  O   -0.000133  -0.000000   0.000000  -0.000000  -0.000175   0.013554
    18  H   -0.000050   0.000013  -0.000002  -0.000040   0.003563   0.000364
    19  H    0.476173  -0.006494  -0.000017   0.000015   0.000012  -0.000005
    20  H   -0.006494   0.534760  -0.006847  -0.000125   0.000028   0.000000
    21  H   -0.000017  -0.006847   0.538791  -0.006650  -0.000098  -0.000000
    22  H    0.000015  -0.000125  -0.006650   0.541629  -0.007507   0.000000
    23  H    0.000012   0.000028  -0.000098  -0.007507   0.538598  -0.000067
    24  H   -0.000005   0.000000  -0.000000   0.000000  -0.000067   0.477703
    25  H   -0.000000   0.000000   0.000000   0.000000  -0.000003  -0.005562
    26  H   -0.000000   0.000000  -0.000000   0.000000  -0.000000   0.000003
    27  H    0.000000   0.000000  -0.000000  -0.000000   0.000000   0.000007
    28  H   -0.000000  -0.000000   0.000000  -0.000000   0.000000  -0.000019
    29  H   -0.000007   0.000001  -0.000000  -0.000000  -0.000002   0.000031
    30  H   -0.000091  -0.000017  -0.000004   0.000004  -0.000053  -0.000066
              25         26         27         28         29         30
     1  O    0.000004   0.000000  -0.000000   0.000000  -0.000011   0.008188
     2  S   -0.000114   0.000001  -0.000001   0.000001  -0.000100  -0.004120
     3  N    0.000017  -0.000000   0.000000  -0.000000   0.000031   0.000355
     4  C   -0.000007   0.000003  -0.000000  -0.000001   0.000037   0.000126
     5  C   -0.000002   0.000000  -0.000000   0.000000  -0.000101   0.000019
     6  C    0.000000   0.000000   0.000000  -0.000000   0.000057   0.000349
     7  C   -0.000000  -0.000000   0.000000   0.000000   0.000008   0.000105
     8  C    0.000003   0.000001   0.000000  -0.000001   0.000072   0.000167
     9  C   -0.000002  -0.000002   0.000000   0.000001  -0.000080  -0.001666
    10  C    0.011281   0.000056   0.000161   0.000064   0.010715  -0.046324
    11  C   -0.048848  -0.000641  -0.000663   0.001950  -0.003657   0.008176
    12  C    0.443167   0.006938  -0.004588  -0.006506   0.012775  -0.002425
    13  C   -0.062050  -0.053243  -0.017382  -0.054932  -0.063192   0.008916
    14  C   -0.006808   0.427587   0.390178   0.427667  -0.006628  -0.000031
    15  C    0.012873  -0.006657  -0.004872   0.007951   0.444542  -0.049472
    16  C   -0.003857   0.001929  -0.000730  -0.000708  -0.048576   0.436241
    17  O   -0.000028   0.000000  -0.000000   0.000000   0.000003   0.000384
    18  H   -0.000009  -0.000000  -0.000000   0.000000   0.000000  -0.000098
    19  H   -0.000000  -0.000000   0.000000  -0.000000  -0.000007  -0.000091
    20  H    0.000000   0.000000   0.000000  -0.000000   0.000001  -0.000017
    21  H    0.000000  -0.000000  -0.000000   0.000000  -0.000000  -0.000004
    22  H    0.000000   0.000000  -0.000000  -0.000000  -0.000000   0.000004
    23  H   -0.000003  -0.000000   0.000000   0.000000  -0.000002  -0.000053
    24  H   -0.005562   0.000003   0.000007  -0.000019   0.000031  -0.000066
    25  H    0.533421   0.000057   0.000223   0.001104  -0.000049   0.000026
    26  H    0.000057   0.540749  -0.024277  -0.023655   0.000872  -0.000022
    27  H    0.000223  -0.024277   0.544764  -0.023368   0.000256   0.000008
    28  H    0.001104  -0.023655  -0.023368   0.541993   0.000074   0.000002
    29  H   -0.000049   0.000872   0.000256   0.000074   0.533613  -0.005597
    30  H    0.000026  -0.000022   0.000008   0.000002  -0.005597   0.481724
 Mulliken charges:
               1
     1  O   -0.461031
     2  S    0.856459
     3  N   -0.316473
     4  C    0.199960
     5  C   -0.270617
     6  C   -0.072224
     7  C   -0.137606
     8  C   -0.096899
     9  C   -0.217413
    10  C    0.000990
    11  C   -0.174793
    12  C   -0.186596
    13  C    0.160750
    14  C   -0.363473
    15  C   -0.195646
    16  C   -0.135598
    17  O   -0.474529
    18  H    0.248421
    19  H    0.166897
    20  H    0.127569
    21  H    0.123729
    22  H    0.123107
    23  H    0.115486
    24  H    0.165294
    25  H    0.125162
    26  H    0.130301
    27  H    0.140284
    28  H    0.128382
    29  H    0.124911
    30  H    0.165194
 Sum of Mulliken charges =   0.00000
 Mulliken charges with hydrogens summed into heavy atoms:
               1
     1  O   -0.461031
     2  S    0.856459
     3  N   -0.068052
     4  C    0.199960
     5  C   -0.103719
     6  C    0.055345
     7  C   -0.013877
     8  C    0.026209
     9  C   -0.101926
    10  C    0.000990
    11  C   -0.009499
    12  C   -0.061435
    13  C    0.160750
    14  C    0.035494
    15  C   -0.070735
    16  C    0.029596
    17  O   -0.474529
 Electronic spatial extent (au):  <R**2>=           4366.5130
 Charge=              0.0000 electrons
 Dipole moment (field-independent basis, Debye):
    X=             -1.8222    Y=             -5.3823    Z=             -1.7645  Tot=              5.9500
 Quadrupole moment (field-independent basis, Debye-Ang):
   XX=            -96.8200   YY=           -114.0119   ZZ=           -101.0957
   XY=              0.2833   XZ=              2.6661   YZ=             -4.5453
 Traceless Quadrupole moment (field-independent basis, Debye-Ang):
   XX=              7.1559   YY=            -10.0361   ZZ=              2.8802
   XY=              0.2833   XZ=              2.6661   YZ=             -4.5453
 Octapole moment (field-independent basis, Debye-Ang**2):
  XXX=            -41.9467  YYY=            -42.3723  ZZZ=            -11.7678  XYY=              3.5027
  XXY=            -16.3280  XXZ=              7.5850  XZZ=              2.8424  YZZ=             -0.3988
  YYZ=             -0.7609  XYZ=             -0.8830
 Hexadecapole moment (field-independent basis, Debye-Ang**3):
 XXXX=          -3343.3069 YYYY=          -1978.1772 ZZZZ=           -577.7429 XXXY=             53.3439
 XXXZ=            112.7746 YYYX=            -18.4128 YYYZ=             17.6667 ZZZX=             13.6091
 ZZZY=            -24.0197 XXYY=           -821.9220 XXZZ=           -639.4533 YYZZ=           -410.8944
 XXYZ=            -31.6112 YYXZ=            -12.7897 ZZXY=             -2.1755
 N-N= 1.331935695657D+03 E-N=-5.259243347407D+03  KE= 1.102023945508D+03
 Breneman (CHELPG) radii used.
 Read replacement radii for each type of atom:
 Atom Element Radius
    1     8    1.70
    2    16    2.00
    3     7    1.70
    4     6    1.50
    5     6    1.50
    6     6    1.50
    7     6    1.50
    8     6    1.50
    9     6    1.50
   10     6    1.50
   11     6    1.50
   12     6    1.50
   13     6    1.50
   14     6    1.50
   15     6    1.50
   16     6    1.50
   17     8    1.70
   18     1    1.45
   19     1    1.45
   20     1    1.45
   21     1    1.45
   22     1    1.45
   23     1    1.45
   24     1    1.45
   25     1    1.45
   26     1    1.45
   27     1    1.45
   28     1    1.45
   29     1    1.45
   30     1    1.45
 Generate Potential Derived Charges using the Breneman model, NDens= 1.
 Grid spacing= 0.300 Box extension= 2.800
 NStep X,Y,Z=   49     41     34   Total possible points=       68306
 Number of Points to Fit=   18718

 **********************************************************************

            Electrostatic Properties Using The SCF Density.

 **********************************************************************

       Atomic Center    1 is at   0.760006  2.053063  1.477384
       Atomic Center    2 is at   0.211313  1.955941  0.139110
       Atomic Center    3 is at   1.389794  1.267727 -0.841684
       Atomic Center    4 is at   1.950894  0.004401 -0.532377
       Atomic Center    5 is at   2.685173 -0.167105  0.646464
       Atomic Center    6 is at   3.219008 -1.416802  0.949246
       Atomic Center    7 is at   3.052505 -2.492081  0.076112
       Atomic Center    8 is at   2.334341 -2.314437 -1.105133
       Atomic Center    9 is at   1.772299 -1.075459 -1.403461
       Atomic Center   10 is at  -1.098889  0.752270  0.173436
       Atomic Center   11 is at  -2.134179  0.847560 -0.754347
       Atomic Center   12 is at  -3.122010 -0.132163 -0.768187
       Atomic Center   13 is at  -3.088697 -1.207176  0.129524
       Atomic Center   14 is at  -4.177523 -2.246550  0.128480
       Atomic Center   15 is at  -2.036257 -1.274809  1.051460
       Atomic Center   16 is at  -1.043005 -0.301419  1.084688
       Atomic Center   17 is at  -0.244711  3.115734 -0.602886
       Atomic Center   18 is at   1.147287  1.412312 -1.817988
       Atomic Center   19 is at   2.820773  0.683177  1.314806
       Atomic Center   20 is at   3.786965 -1.546031  1.873106
       Atomic Center   21 is at   3.485050 -3.465774  0.314551
       Atomic Center   22 is at   2.196999 -3.148993 -1.795970
       Atomic Center   23 is at   1.185533 -0.942126 -2.315889
       Atomic Center   24 is at  -2.165134  1.691911 -1.445560
       Atomic Center   25 is at  -3.939240 -0.058429 -1.490104
       Atomic Center   26 is at  -3.796616 -3.227880  0.444677
       Atomic Center   27 is at  -4.980830 -1.963422  0.827736
       Atomic Center   28 is at  -4.629926 -2.355559 -0.867126
       Atomic Center   29 is at  -1.993845 -2.105109  1.760665
       Atomic Center   30 is at  -0.230905 -0.350979  1.811718
   18718 points will be used for fitting atomic charges
 Fitting point charges to electrostatic potential
 Charges from ESP fit, RMS=   0.00359 RRMS=   0.21955:
 ESP charges:
               1
     1  O   -0.469717
     2  S    0.935017
     3  N   -0.647576
     4  C    0.411701
     5  C   -0.219349
     6  C   -0.057061
     7  C   -0.144640
     8  C   -0.053595
     9  C   -0.271239
    10  C   -0.065134
    11  C   -0.067785
    12  C   -0.212129
    13  C    0.239486
    14  C   -0.271790
    15  C   -0.230831
    16  C   -0.036439
    17  O   -0.485468
    18  H    0.354985
    19  H    0.160399
    20  H    0.097526
    21  H    0.103774
    22  H    0.103902
    23  H    0.111477
    24  H    0.112662
    25  H    0.126866
    26  H    0.078754
    27  H    0.090201
    28  H    0.077366
    29  H    0.129024
    30  H    0.099616
 Sum of ESP charges =   0.00000
 ESP charges with hydrogens summed into heavy atoms:
               1
     1  O   -0.469717
     2  S    0.935017
     3  N   -0.292591
     4  C    0.411701
     5  C   -0.058951
     6  C    0.040465
     7  C   -0.040866
     8  C    0.050308
     9  C   -0.159762
    10  C   -0.065134
    11  C    0.044876
    12  C   -0.085264
    13  C    0.239486
    14  C   -0.025470
    15  C   -0.101808
    16  C    0.063176
    17  O   -0.485468
 Charge=   0.00000 Dipole=    -1.7025    -5.2540    -1.7355 Tot=     5.7892
 -----------------------------------------------------------------

              Electrostatic Properties (Atomic Units)

 -----------------------------------------------------------------
    Center     Electric         -------- Electric Field --------
               Potential          X             Y             Z
 -----------------------------------------------------------------
    1 Atom    -22.373375
    2 Atom    -59.026798
    3 Atom    -18.345602
    4 Atom    -14.712677
    5 Atom    -14.763166
    6 Atom    -14.758981
    7 Atom    -14.761228
    8 Atom    -14.756713
    9 Atom    -14.755805
   10 Atom    -14.732022
   11 Atom    -14.744873
   12 Atom    -14.752124
   13 Atom    -14.736846
   14 Atom    -14.755044
   15 Atom    -14.752982
   16 Atom    -14.745692
   17 Atom    -22.373238
   18 Atom     -1.001974
   19 Atom     -1.101926
   20 Atom     -1.099707
   21 Atom     -1.099251
   22 Atom     -1.096083
   23 Atom     -1.087787
   24 Atom     -1.086166
   25 Atom     -1.090248
   26 Atom     -1.100248
   27 Atom     -1.097640
   28 Atom     -1.100369
   29 Atom     -1.091439
   30 Atom     -1.088678
 -----------------------------------------------------------------
 Unable to Open any file for archive entry.
 1\1\GINC-NOTCH073\SP\RwB97XD\def2TZVP\C13H13N1O2S1\U1366379\17-Feb-202
 6\0\\#N Guess=Read Geom=Check Integral(Ultrafine) Density Pop=(ChelpG,
 ReadRadii) NMR wB97XD def2TZVP\\prod_5l_44\\0,1\O,0,0.2190070832,2.507
 0669573,1.1014017171\S,0,-0.0791266526,2.1429745969,-0.2697397212\N,0,
 1.3120409884,1.4670855617,-0.9271882754\C,0,1.9323015972,0.3439648893,
 -0.3268771815\C,0,2.4660319056,0.4436891882,0.9628637817\C,0,3.0593569
 045,-0.6704260841,1.5503265519\C,0,3.1514343927,-1.8767576219,0.855635
 0558\C,0,2.6333138919,-1.9688219455,-0.4349977324\C,0,2.0126213887,-0.
 8680533914,-1.0206656494\C,0,-1.2517021049,0.8048684494,-0.2355244714\
 C,0,-2.1162335979,0.6306835166,-1.3143812069\C,0,-2.98641049,-0.454973
 2001,-1.3150973447\C,0,-3.0031294072,-1.3706354248,-0.2549409516\C,0,-
 3.9686766295,-2.5254170429,-0.2487165184\C,0,-2.1234834697,-1.16806977
 19,0.8162084956\C,0,-1.2507090037,-0.085044475,0.8377027625\O,0,-0.511
 8352357,3.1126858348,-1.2576972395\H,0,1.2281496922,1.4323694629,-1.93
 94341116\H,0,2.4008812534,1.3947768769,1.4912911032\H,0,3.469785543,-0
 .5881210999,2.5590713782\H,0,3.6295673353,-2.7423714849,1.3183730488\H
 ,0,2.6990904052,-2.9080739987,-0.988243568\H,0,1.5813877346,-0.9469524
 858,-2.0218689209\H,0,-2.1101851808,1.3513614947,-2.1342879262\H,0,-3.
 6705013114,-0.5923604094,-2.1562932161\H,0,-3.5537909836,-3.3932686695
 ,0.2830577924\H,0,-4.9040654745,-2.2425267363,0.2606385645\H,0,-4.2302
 103809,-2.8378206504,-1.2693956711\H,0,-2.1227706259,-1.870846357,1.65
 30329407\H,0,-0.5748895676,0.0761840208,1.679016514\\Version=ES64L-G16
 RevC.01\State=1-A\HF=-1106.6304773\RMSD=3.940e-09\Dipole=-0.3763737,-2
 .2701322,-0.4298125\Quadrupole=4.2816074,-7.9178935,3.6362861,2.376094
 4,2.3469762,-1.1823441\PG=C01 [X(C13H13N1O2S1)]\\@
 The archive entry for this job was punched.


 WHEN ALL ELSE FAILS, TRY THE BOSS'S SUGGESTION.
 Job cpu time:       0 days  1 hours 44 minutes 27.4 seconds.
 Elapsed time:       0 days  0 hours 13 minutes 29.3 seconds.
 File lengths (MBytes):  RWF=    226 Int=      0 D2E=      0 Chk=     34 Scr=      2
 Normal termination of Gaussian 16 at Tue Feb 17 18:13:02 2026.
