 Entering Gaussian System, Link 0=g16
 Input=prod_5g_4.com
 Output=prod_5g_4.log
 Initial command:
 /uufs/chpc.utah.edu/sys/installdir/gaussian16/C01/AVX/g16/l1.exe "/scratch/general/vast/u1366379/GAUSSSCRDIR/11028665-notchpeak.peaks/Gau-3263320.inp" -scrdir="/scratch/general/vast/u1366379/GAUSSSCRDIR/11028665-notchpeak.peaks/"
 Entering Link 1 = /uufs/chpc.utah.edu/sys/installdir/gaussian16/C01/AVX/g16/l1.exe PID=   3263321.
  
 Copyright (c) 1988-2019, Gaussian, Inc.  All Rights Reserved.
  
 This is part of the Gaussian(R) 16 program.  It is based on
 the Gaussian(R) 09 system (copyright 2009, Gaussian, Inc.),
 the Gaussian(R) 03 system (copyright 2003, Gaussian, Inc.),
 the Gaussian(R) 98 system (copyright 1998, Gaussian, Inc.),
 the Gaussian(R) 94 system (copyright 1995, Gaussian, Inc.),
 the Gaussian 92(TM) system (copyright 1992, Gaussian, Inc.),
 the Gaussian 90(TM) system (copyright 1990, Gaussian, Inc.),
 the Gaussian 88(TM) system (copyright 1988, Gaussian, Inc.),
 the Gaussian 86(TM) system (copyright 1986, Carnegie Mellon
 University), and the Gaussian 82(TM) system (copyright 1983,
 Carnegie Mellon University). Gaussian is a federally registered
 trademark of Gaussian, Inc.
  
 This software contains proprietary and confidential information,
 including trade secrets, belonging to Gaussian, Inc.
  
 This software is provided under written license and may be
 used, copied, transmitted, or stored only in accord with that
 written license.
  
 The following legend is applicable only to US Government
 contracts under FAR:
  
                    RESTRICTED RIGHTS LEGEND
  
 Use, reproduction and disclosure by the US Government is
 subject to restrictions as set forth in subparagraphs (a)
 and (c) of the Commercial Computer Software - Restricted
 Rights clause in FAR 52.227-19.
  
 Gaussian, Inc.
 340 Quinnipiac St., Bldg. 40, Wallingford CT 06492
  
  
 ---------------------------------------------------------------
 Warning -- This program may not be used in any manner that
 competes with the business of Gaussian, Inc. or will provide
 assistance to any competitor of Gaussian, Inc.  The licensee
 of this program is prohibited from giving any competitor of
 Gaussian, Inc. access to this program.  By using this program,
 the user acknowledges that Gaussian, Inc. is engaged in the
 business of creating and licensing software in the field of
 computational chemistry and represents and warrants to the
 licensee that it is not a competitor of Gaussian, Inc. and that
 it will not use this program in any manner prohibited above.
 ---------------------------------------------------------------
  

 Cite this work as:
 Gaussian 16, Revision C.01,
 M. J. Frisch, G. W. Trucks, H. B. Schlegel, G. E. Scuseria, 
 M. A. Robb, J. R. Cheeseman, G. Scalmani, V. Barone, 
 G. A. Petersson, H. Nakatsuji, X. Li, M. Caricato, A. V. Marenich, 
 J. Bloino, B. G. Janesko, R. Gomperts, B. Mennucci, H. P. Hratchian, 
 J. V. Ortiz, A. F. Izmaylov, J. L. Sonnenberg, D. Williams-Young, 
 F. Ding, F. Lipparini, F. Egidi, J. Goings, B. Peng, A. Petrone, 
 T. Henderson, D. Ranasinghe, V. G. Zakrzewski, J. Gao, N. Rega, 
 G. Zheng, W. Liang, M. Hada, M. Ehara, K. Toyota, R. Fukuda, 
 J. Hasegawa, M. Ishida, T. Nakajima, Y. Honda, O. Kitao, H. Nakai, 
 T. Vreven, K. Throssell, J. A. Montgomery, Jr., J. E. Peralta, 
 F. Ogliaro, M. J. Bearpark, J. J. Heyd, E. N. Brothers, K. N. Kudin, 
 V. N. Staroverov, T. A. Keith, R. Kobayashi, J. Normand, 
 K. Raghavachari, A. P. Rendell, J. C. Burant, S. S. Iyengar, 
 J. Tomasi, M. Cossi, J. M. Millam, M. Klene, C. Adamo, R. Cammi, 
 J. W. Ochterski, R. L. Martin, K. Morokuma, O. Farkas, 
 J. B. Foresman, and D. J. Fox, Gaussian, Inc., Wallingford CT, 2019.
 
 ******************************************
 Gaussian 16:  ES64L-G16RevC.01  3-Jul-2019
                17-Feb-2026 
 ******************************************
 %NProcShared=8
 Will use up to    8 processors via shared memory.
 %Mem=8GB
 %chk=prod_5g_4.chk
 ------------------------------------------------------
 #N OPT FREQ=NORAMAN Integral(Ultrafine) wB97XD def2SVP
 ------------------------------------------------------
 1/18=20,19=15,26=4,38=1/1,3;
 2/9=110,12=2,17=6,18=5,40=1/2;
 3/5=43,7=101,11=2,25=1,30=1,71=1,74=-58,75=-5/1,2,3;
 4//1;
 5/5=2,38=5/2;
 6/7=2,8=2,9=2,10=2,28=1/1;
 7//1,2,3,16;
 1/18=20,19=15,26=4/3(2);
 2/9=110/2;
 99//99;
 2/9=110/2;
 3/5=43,7=101,11=2,25=1,30=1,71=1,74=-58,75=-5/1,2,3;
 4/5=5,16=3,69=1/1;
 5/5=2,38=5/2;
 7//1,2,3,16;
 1/18=20,19=15,26=4/3(-5);
 2/9=110/2;
 6/7=2,8=2,9=2,10=2,19=2,28=1/1;
 99/9=1/99;
 ---------
 prod_5g_4
 ---------
 Symbolic Z-matrix:
 Charge =  0 Multiplicity = 1
 C                    -3.91453   2.60096  -0.38475 
 O                    -2.59497   2.17452  -0.62134 
 C                    -2.32023   0.86315  -0.21093 
 C                    -1.03101   0.38373  -0.42509 
 C                    -0.65083  -0.9004   -0.0555 
 N                     0.68605  -1.35827  -0.29612 
 C                     0.8762   -2.68479  -0.88146 
 C                     1.82626  -0.54429  -0.03361 
 C                     1.7394    0.52446   0.85824 
 C                     2.83474   1.31287   1.12882 
 C                     4.04466   1.04994   0.51781 
 C                     4.15334  -0.00837  -0.36261 
 C                     3.05908  -0.79889  -0.6347 
 C                    -1.60117  -1.72528   0.54563 
 C                    -2.88206  -1.26906   0.76585 
 C                    -3.24466   0.00739   0.39488 
 H                    -4.01765   3.62565  -0.74319 
 H                    -4.1268    2.57766   0.68473 
 H                    -4.61402   1.9647   -0.92816 
 H                    -0.31776   1.02906  -0.90157 
 H                    -0.06161  -3.23534  -0.90662 
 H                     1.59663  -3.25337  -0.29636 
 H                     1.23705  -2.59349  -1.90404 
 H                     0.80202   0.71842   1.34894 
 H                     2.74824   2.13544   1.81989 
 H                     4.9022    1.6677    0.72896 
 H                     5.09784  -0.21544  -0.83887 
 H                     3.15172  -1.61712  -1.32616 
 H                    -1.31535  -2.71339   0.86054 
 H                    -3.60562  -1.91515   1.23574 
 H                    -4.24835   0.34647   0.57521 
 

 GradGradGradGradGradGradGradGradGradGradGradGradGradGradGradGradGradGrad
 Berny optimization.
 Initialization pass.
                           ----------------------------
                           !    Initial Parameters    !
                           ! (Angstroms and Degrees)  !
 --------------------------                            --------------------------
 ! Name  Definition              Value          Derivative Info.                !
 --------------------------------------------------------------------------------
 ! R1    R(1,2)                  1.4068         estimate D2E/DX2                !
 ! R2    R(1,17)                 1.0905         estimate D2E/DX2                !
 ! R3    R(1,18)                 1.0906         estimate D2E/DX2                !
 ! R4    R(1,19)                 1.0906         estimate D2E/DX2                !
 ! R5    R(2,3)                  1.4013         estimate D2E/DX2                !
 ! R6    R(3,4)                  1.392          estimate D2E/DX2                !
 ! R7    R(3,16)                 1.3978         estimate D2E/DX2                !
 ! R8    R(4,5)                  1.3893         estimate D2E/DX2                !
 ! R9    R(4,20)                 1.0734         estimate D2E/DX2                !
 ! R10   R(5,6)                  1.4335         estimate D2E/DX2                !
 ! R11   R(5,14)                 1.3946         estimate D2E/DX2                !
 ! R12   R(6,7)                  1.4623         estimate D2E/DX2                !
 ! R13   R(6,8)                  1.4253         estimate D2E/DX2                !
 ! R14   R(7,21)                 1.0878         estimate D2E/DX2                !
 ! R15   R(7,22)                 1.0884         estimate D2E/DX2                !
 ! R16   R(7,23)                 1.0882         estimate D2E/DX2                !
 ! R17   R(8,9)                  1.3947         estimate D2E/DX2                !
 ! R18   R(8,13)                 1.395          estimate D2E/DX2                !
 ! R19   R(9,10)                 1.3764         estimate D2E/DX2                !
 ! R20   R(9,24)                 1.0757         estimate D2E/DX2                !
 ! R21   R(10,11)                1.3807         estimate D2E/DX2                !
 ! R22   R(10,25)                1.0778         estimate D2E/DX2                !
 ! R23   R(11,12)                1.3809         estimate D2E/DX2                !
 ! R24   R(11,26)                1.0778         estimate D2E/DX2                !
 ! R25   R(12,13)                1.3771         estimate D2E/DX2                !
 ! R26   R(12,27)                1.0779         estimate D2E/DX2                !
 ! R27   R(13,28)                1.0753         estimate D2E/DX2                !
 ! R28   R(14,15)                1.3774         estimate D2E/DX2                !
 ! R29   R(14,29)                1.0757         estimate D2E/DX2                !
 ! R30   R(15,16)                1.3778         estimate D2E/DX2                !
 ! R31   R(15,30)                1.0779         estimate D2E/DX2                !
 ! R32   R(16,31)                1.0747         estimate D2E/DX2                !
 ! A1    A(2,1,17)             108.5582         estimate D2E/DX2                !
 ! A2    A(2,1,18)             109.9386         estimate D2E/DX2                !
 ! A3    A(2,1,19)             109.9358         estimate D2E/DX2                !
 ! A4    A(17,1,18)            108.9058         estimate D2E/DX2                !
 ! A5    A(17,1,19)            108.8917         estimate D2E/DX2                !
 ! A6    A(18,1,19)            110.5681         estimate D2E/DX2                !
 ! A7    A(1,2,3)              114.729          estimate D2E/DX2                !
 ! A8    A(2,3,4)              117.3111         estimate D2E/DX2                !
 ! A9    A(2,3,16)             124.7639         estimate D2E/DX2                !
 ! A10   A(4,3,16)             117.9251         estimate D2E/DX2                !
 ! A11   A(3,4,5)              122.0623         estimate D2E/DX2                !
 ! A12   A(3,4,20)             118.4654         estimate D2E/DX2                !
 ! A13   A(5,4,20)             119.4685         estimate D2E/DX2                !
 ! A14   A(4,5,6)              120.3844         estimate D2E/DX2                !
 ! A15   A(4,5,14)             118.3528         estimate D2E/DX2                !
 ! A16   A(6,5,14)             121.2622         estimate D2E/DX2                !
 ! A17   A(5,6,7)              118.5687         estimate D2E/DX2                !
 ! A18   A(5,6,8)              122.1908         estimate D2E/DX2                !
 ! A19   A(7,6,8)              119.1923         estimate D2E/DX2                !
 ! A20   A(6,7,21)             110.8716         estimate D2E/DX2                !
 ! A21   A(6,7,22)             110.1675         estimate D2E/DX2                !
 ! A22   A(6,7,23)             110.0686         estimate D2E/DX2                !
 ! A23   A(21,7,22)            108.5841         estimate D2E/DX2                !
 ! A24   A(21,7,23)            107.8553         estimate D2E/DX2                !
 ! A25   A(22,7,23)            109.2377         estimate D2E/DX2                !
 ! A26   A(6,8,9)              120.3693         estimate D2E/DX2                !
 ! A27   A(6,8,13)             121.5594         estimate D2E/DX2                !
 ! A28   A(9,8,13)             118.0627         estimate D2E/DX2                !
 ! A29   A(8,9,10)             121.0024         estimate D2E/DX2                !
 ! A30   A(8,9,24)             118.9569         estimate D2E/DX2                !
 ! A31   A(10,9,24)            120.0337         estimate D2E/DX2                !
 ! A32   A(9,10,11)            120.0842         estimate D2E/DX2                !
 ! A33   A(9,10,25)            119.9552         estimate D2E/DX2                !
 ! A34   A(11,10,25)           119.9605         estimate D2E/DX2                !
 ! A35   A(10,11,12)           119.8047         estimate D2E/DX2                !
 ! A36   A(10,11,26)           120.0919         estimate D2E/DX2                !
 ! A37   A(12,11,26)           120.1033         estimate D2E/DX2                !
 ! A38   A(11,12,13)           120.2235         estimate D2E/DX2                !
 ! A39   A(11,12,27)           119.8613         estimate D2E/DX2                !
 ! A40   A(13,12,27)           119.9153         estimate D2E/DX2                !
 ! A41   A(8,13,12)            120.8198         estimate D2E/DX2                !
 ! A42   A(8,13,28)            119.4796         estimate D2E/DX2                !
 ! A43   A(12,13,28)           119.6979         estimate D2E/DX2                !
 ! A44   A(5,14,15)            120.4435         estimate D2E/DX2                !
 ! A45   A(5,14,29)            119.2368         estimate D2E/DX2                !
 ! A46   A(15,14,29)           120.2983         estimate D2E/DX2                !
 ! A47   A(14,15,16)           120.5651         estimate D2E/DX2                !
 ! A48   A(14,15,30)           119.6969         estimate D2E/DX2                !
 ! A49   A(16,15,30)           119.7376         estimate D2E/DX2                !
 ! A50   A(3,16,15)            120.6511         estimate D2E/DX2                !
 ! A51   A(3,16,31)            119.8164         estimate D2E/DX2                !
 ! A52   A(15,16,31)           119.5324         estimate D2E/DX2                !
 ! D1    D(17,1,2,3)          -179.7906         estimate D2E/DX2                !
 ! D2    D(18,1,2,3)            61.173          estimate D2E/DX2                !
 ! D3    D(19,1,2,3)           -60.7729         estimate D2E/DX2                !
 ! D4    D(1,2,3,4)            179.7239         estimate D2E/DX2                !
 ! D5    D(1,2,3,16)            -0.2693         estimate D2E/DX2                !
 ! D6    D(2,3,4,5)            179.9231         estimate D2E/DX2                !
 ! D7    D(2,3,4,20)            -0.7963         estimate D2E/DX2                !
 ! D8    D(16,3,4,5)            -0.0832         estimate D2E/DX2                !
 ! D9    D(16,3,4,20)          179.1974         estimate D2E/DX2                !
 ! D10   D(2,3,16,15)         -179.9724         estimate D2E/DX2                !
 ! D11   D(2,3,16,31)           -0.0467         estimate D2E/DX2                !
 ! D12   D(4,3,16,15)            0.0344         estimate D2E/DX2                !
 ! D13   D(4,3,16,31)          179.9601         estimate D2E/DX2                !
 ! D14   D(3,4,5,6)            179.8471         estimate D2E/DX2                !
 ! D15   D(3,4,5,14)             0.1231         estimate D2E/DX2                !
 ! D16   D(20,4,5,6)             0.5735         estimate D2E/DX2                !
 ! D17   D(20,4,5,14)         -179.1505         estimate D2E/DX2                !
 ! D18   D(4,5,6,7)           -133.9362         estimate D2E/DX2                !
 ! D19   D(4,5,6,8)             43.5167         estimate D2E/DX2                !
 ! D20   D(14,5,6,7)            45.7796         estimate D2E/DX2                !
 ! D21   D(14,5,6,8)          -136.7675         estimate D2E/DX2                !
 ! D22   D(4,5,14,15)           -0.1149         estimate D2E/DX2                !
 ! D23   D(4,5,14,29)         -178.4363         estimate D2E/DX2                !
 ! D24   D(6,5,14,15)         -179.8363         estimate D2E/DX2                !
 ! D25   D(6,5,14,29)            1.8422         estimate D2E/DX2                !
 ! D26   D(5,6,7,21)            -9.6982         estimate D2E/DX2                !
 ! D27   D(5,6,7,22)          -129.9234         estimate D2E/DX2                !
 ! D28   D(5,6,7,23)           109.5541         estimate D2E/DX2                !
 ! D29   D(8,6,7,21)           172.771          estimate D2E/DX2                !
 ! D30   D(8,6,7,22)            52.5458         estimate D2E/DX2                !
 ! D31   D(8,6,7,23)           -67.9767         estimate D2E/DX2                !
 ! D32   D(5,6,8,9)             21.4615         estimate D2E/DX2                !
 ! D33   D(5,6,8,13)          -159.6292         estimate D2E/DX2                !
 ! D34   D(7,6,8,9)           -161.101          estimate D2E/DX2                !
 ! D35   D(7,6,8,13)            17.8083         estimate D2E/DX2                !
 ! D36   D(6,8,9,10)           179.5185         estimate D2E/DX2                !
 ! D37   D(6,8,9,24)             0.4792         estimate D2E/DX2                !
 ! D38   D(13,8,9,10)            0.5717         estimate D2E/DX2                !
 ! D39   D(13,8,9,24)         -178.4676         estimate D2E/DX2                !
 ! D40   D(6,8,13,12)         -179.5237         estimate D2E/DX2                !
 ! D41   D(6,8,13,28)            1.0795         estimate D2E/DX2                !
 ! D42   D(9,8,13,12)           -0.5902         estimate D2E/DX2                !
 ! D43   D(9,8,13,28)         -179.9869         estimate D2E/DX2                !
 ! D44   D(8,9,10,11)           -0.1974         estimate D2E/DX2                !
 ! D45   D(8,9,10,25)          179.9117         estimate D2E/DX2                !
 ! D46   D(24,9,10,11)         178.8317         estimate D2E/DX2                !
 ! D47   D(24,9,10,25)          -1.0593         estimate D2E/DX2                !
 ! D48   D(9,10,11,12)          -0.1738         estimate D2E/DX2                !
 ! D49   D(9,10,11,26)         179.949          estimate D2E/DX2                !
 ! D50   D(25,10,11,12)        179.7172         estimate D2E/DX2                !
 ! D51   D(25,10,11,26)         -0.1601         estimate D2E/DX2                !
 ! D52   D(10,11,12,13)          0.1546         estimate D2E/DX2                !
 ! D53   D(10,11,12,27)       -179.8996         estimate D2E/DX2                !
 ! D54   D(26,11,12,13)       -179.9682         estimate D2E/DX2                !
 ! D55   D(26,11,12,27)         -0.0224         estimate D2E/DX2                !
 ! D56   D(11,12,13,8)           0.2358         estimate D2E/DX2                !
 ! D57   D(11,12,13,28)        179.6313         estimate D2E/DX2                !
 ! D58   D(27,12,13,8)        -179.71           estimate D2E/DX2                !
 ! D59   D(27,12,13,28)         -0.3145         estimate D2E/DX2                !
 ! D60   D(5,14,15,16)           0.0702         estimate D2E/DX2                !
 ! D61   D(5,14,15,30)        -179.7018         estimate D2E/DX2                !
 ! D62   D(29,14,15,16)        178.3738         estimate D2E/DX2                !
 ! D63   D(29,14,15,30)         -1.3982         estimate D2E/DX2                !
 ! D64   D(14,15,16,3)          -0.0292         estimate D2E/DX2                !
 ! D65   D(14,15,16,31)       -179.955          estimate D2E/DX2                !
 ! D66   D(30,15,16,3)         179.7427         estimate D2E/DX2                !
 ! D67   D(30,15,16,31)         -0.1831         estimate D2E/DX2                !
 --------------------------------------------------------------------------------
 Trust Radius=3.00D-01 FncErr=1.00D-07 GrdErr=1.00D-06 EigMax=2.50D+02 EigMin=1.00D-04
 Number of steps in this run=    161 maximum allowed number of steps=    186.
 GradGradGradGradGradGradGradGradGradGradGradGradGradGradGradGradGradGrad

                          Input orientation:                          
 ---------------------------------------------------------------------
 Center     Atomic      Atomic             Coordinates (Angstroms)
 Number     Number       Type             X           Y           Z
 ---------------------------------------------------------------------
      1          6           0       -3.914530    2.600960   -0.384750
      2          8           0       -2.594970    2.174520   -0.621340
      3          6           0       -2.320230    0.863150   -0.210930
      4          6           0       -1.031010    0.383730   -0.425090
      5          6           0       -0.650830   -0.900400   -0.055500
      6          7           0        0.686050   -1.358270   -0.296120
      7          6           0        0.876200   -2.684790   -0.881460
      8          6           0        1.826260   -0.544290   -0.033610
      9          6           0        1.739400    0.524460    0.858240
     10          6           0        2.834740    1.312870    1.128820
     11          6           0        4.044660    1.049940    0.517810
     12          6           0        4.153340   -0.008370   -0.362610
     13          6           0        3.059080   -0.798890   -0.634700
     14          6           0       -1.601170   -1.725280    0.545630
     15          6           0       -2.882060   -1.269060    0.765850
     16          6           0       -3.244660    0.007390    0.394880
     17          1           0       -4.017650    3.625650   -0.743190
     18          1           0       -4.126800    2.577660    0.684730
     19          1           0       -4.614020    1.964700   -0.928160
     20          1           0       -0.317760    1.029060   -0.901570
     21          1           0       -0.061610   -3.235340   -0.906620
     22          1           0        1.596630   -3.253370   -0.296360
     23          1           0        1.237050   -2.593490   -1.904040
     24          1           0        0.802020    0.718420    1.348940
     25          1           0        2.748240    2.135440    1.819890
     26          1           0        4.902200    1.667700    0.728960
     27          1           0        5.097840   -0.215440   -0.838870
     28          1           0        3.151720   -1.617120   -1.326160
     29          1           0       -1.315350   -2.713390    0.860540
     30          1           0       -3.605620   -1.915150    1.235740
     31          1           0       -4.248350    0.346470    0.575210
 ---------------------------------------------------------------------
                    Distance matrix (angstroms):
                    1          2          3          4          5
     1  C    0.000000
     2  O    1.406792   0.000000
     3  C    2.364739   1.401289   0.000000
     4  C    3.637640   2.385668   1.392048   0.000000
     5  C    4.797881   3.681710   2.433344   1.389289   0.000000
     6  N    6.070312   4.832335   3.738942   2.449386   1.433454
     7  C    7.151012   5.977422   4.822308   3.641640   2.489594
     8  C    6.555346   5.223469   4.382432   3.029599   2.502652
     9  C    6.150106   4.868123   4.211702   3.056454   2.928881
    10  C    7.035817   5.769511   5.345175   4.268719   4.295390
    11  C    8.158982   6.829863   6.409195   5.205317   5.116653
    12  C    8.479364   7.097298   6.533733   5.199532   4.895925
    13  C    7.762261   6.388241   5.646143   4.262788   3.756223
    14  C    4.993355   4.190214   2.790950   2.390670   1.394608
    15  C    4.167365   3.723568   2.411653   2.752533   2.406016
    16  C    2.789830   2.480172   1.397820   2.390445   2.784758
    17  H    1.090460   2.035840   3.285718   4.419418   5.682739
    18  H    1.090591   2.053008   2.646780   3.953346   4.972646
    19  H    1.090600   2.052980   2.643729   3.948482   4.967616
    20  H    3.959132   2.564428   2.124711   1.073410   2.132976
    21  H    7.012827   5.980458   4.731064   3.777469   2.554120
    22  H    8.040763   6.865647   5.682854   4.488826   3.262753
    23  H    7.471903   6.250089   5.241109   4.024330   3.138112
    24  H    5.366142   4.188290   3.493220   2.572780   2.589170
    25  H    7.033466   5.874608   5.606455   4.731929   4.928193
    26  H    8.935662   7.634640   7.327632   6.179271   6.168197
    27  H    9.453103   8.058446   7.522329   6.171954   5.842093
    28  H    8.283136   6.920820   6.110459   4.723405   4.072794
    29  H    6.045560   5.265459   3.866454   3.365389   2.137206
    30  H    4.807979   4.603864   3.385858   3.830381   3.380503
    31  H    2.472991   2.739920   2.145372   3.369461   3.859356
                    6          7          8          9         10
     6  N    0.000000
     7  C    1.462339   0.000000
     8  C    1.425326   2.490623   0.000000
     9  C    2.446787   3.751127   1.394693   0.000000
    10  C    3.712454   4.884505   2.411912   1.376435   0.000000
    11  C    4.212151   5.093653   2.786922   2.388775   1.380714
    12  C    3.721391   4.262872   2.410550   2.757080   2.389298
    13  C    2.461466   2.895250   1.394982   2.392003   2.760410
    14  C    2.464673   3.015727   3.671176   4.039612   5.408120
    15  C    3.723862   4.340788   4.830394   4.958139   6.283304
    16  C    4.218174   5.085112   5.118807   5.032188   6.261154
    17  H    6.867614   7.986898   7.214096   6.732428   7.470517
    18  H    6.294215   7.428078   6.760289   6.217559   7.089425
    19  H    6.287475   7.194613   6.969394   6.755106   7.755003
    20  H    2.659614   3.901106   2.797429   2.753808   3.760490
    21  H    2.110710   1.087762   3.401169   4.527081   5.763512
    22  H    2.102513   1.088414   2.731462   3.952908   4.941113
    23  H    2.101137   1.088218   2.836353   4.195731   5.197163
    24  H    2.651851   4.069647   2.134233   1.075680   2.129266
    25  H    4.575602   5.834076   3.386217   2.130208   1.077813
    26  H    5.289915   6.143802   3.864689   3.365563   2.135459
    27  H    4.589611   4.890986   3.385236   3.834939   3.365881
    28  H    2.684681   2.552581   2.139742   3.369364   3.835654
    29  H    2.679518   2.799692   3.920996   4.451424   5.788436
    30  H    4.590767   5.016133   5.744199   5.887567   7.204844
    31  H    5.292793   6.129554   6.169684   5.997077   7.170117
                   11         12         13         14         15
    11  C    0.000000
    12  C    1.380931   0.000000
    13  C    2.391196   1.377084   0.000000
    14  C    6.291106   6.073472   4.895846   0.000000
    15  C    7.308812   7.235994   6.122070   1.377430   0.000000
    16  C    7.364524   7.436696   6.437955   2.392892   1.377832
    17  H    8.557175   8.950755   8.346762   6.011064   5.246423
    18  H    8.314719   8.737573   8.048531   4.991337   4.043911
    19  H    8.826118   9.004413   8.160883   4.986509   4.040614
    20  H    4.587568   4.621415   3.849113   3.365697   3.825870
    21  H    6.103612   5.336205   3.968493   2.599915   3.823395
    22  H    5.017390   4.131728   2.877100   3.642792   5.012429
    23  H    5.198328   4.190895   2.855102   3.848398   5.084240
    24  H    3.363837   3.832620   3.366211   3.520270   4.226407
    25  H    2.134110   3.366531   3.838219   5.953677   6.663475
    26  H    1.077769   2.135773   3.367599   7.337557   8.319893
    27  H    2.133297   1.077860   2.130409   7.005226   8.207560
    28  H    3.363150   2.125970   1.075267   5.109331   6.395635
    29  H    6.558188   6.222524   5.003668   1.075743   2.132987
    30  H    8.236138   8.148128   7.011620   2.128408   1.077853
    31  H    8.322991   8.461313   7.494949   3.361634   2.124389
                   16         17         18         19         20
    16  C    0.000000
    17  H    3.870985   0.000000
    18  H    2.732851   1.774585   0.000000
    19  H    2.730686   1.774437   1.792908   0.000000
    20  H    3.360258   4.522892   4.407187   4.397042   0.000000
    21  H    4.726627   7.921499   7.269741   6.911246   4.272089
    22  H    5.877794   8.890484   8.229283   8.136314   4.729733
    23  H    5.668804   8.224181   7.887548   7.480940   4.067585
    24  H    4.217987   6.004849   5.309540   6.005988   2.532824
    25  H    6.517216   7.386973   6.982143   7.860267   4.246266
    26  H    8.321032   9.250109   9.074846   9.663990   5.505858
    27  H    8.436178   9.892183   9.757907   9.953954   5.557107
    28  H    6.820168   8.900919   8.638097   8.561224   4.384043
    29  H    3.367747   7.075154   5.994195   5.997099   4.255132
    30  H    2.129201   5.897999   4.556378   4.555499   4.903722
    31  H    1.074657   3.541811   2.237181   2.238862   4.253980
                   21         22         23         24         25
    21  H    0.000000
    22  H    1.767060   0.000000
    23  H    1.758788   1.774648   0.000000
    24  H    4.633101   4.371903   4.662604   0.000000
    25  H    6.646382   5.902880   6.205975   2.453062   0.000000
    26  H    7.166194   6.016228   6.206751   4.254055   2.459360
    27  H    5.978655   4.667098   4.657833   4.910466   4.256320
    28  H    3.622173   2.481150   2.225580   4.258168   4.913464
    29  H    2.228710   3.179563   3.764575   4.061910   6.398771
    30  H    4.346564   5.585836   5.811180   5.135737   7.557781
    31  H    5.705609   6.919702   6.699228   5.122816   7.328159
                   26         27         28         29         30
    26  H    0.000000
    27  H    2.458166   0.000000
    28  H    4.251793   2.447354   0.000000
    29  H    7.607180   7.089200   5.092954   0.000000
    30  H    9.245358   9.107318   7.232828   2.454241   0.000000
    31  H    9.246721   9.469247   7.888722   4.248134   2.442197
                   31
    31  H    0.000000
 Stoichiometry    C14H15NO
 Framework group  C1[X(C14H15NO)]
 Deg. of freedom    87
 Full point group                 C1      NOp   1
 Largest Abelian subgroup         C1      NOp   1
 Largest concise Abelian subgroup C1      NOp   1
                         Standard orientation:                         
 ---------------------------------------------------------------------
 Center     Atomic      Atomic             Coordinates (Angstroms)
 Number     Number       Type             X           Y           Z
 ---------------------------------------------------------------------
      1          6           0        4.271300   -1.921548   -0.485390
      2          8           0        2.903110   -1.692429   -0.719109
      3          6           0        2.418972   -0.475616   -0.220522
      4          6           0        1.072073   -0.191229   -0.427360
      5          6           0        0.488592    0.985173    0.026241
      6          7           0       -0.901660    1.242802   -0.209589
      7          6           0       -1.294734    2.562845   -0.700928
      8          6           0       -1.900285    0.241432   -0.031933
      9          6           0       -1.653292   -0.864215    0.781520
     10          6           0       -2.611773   -1.833925    0.970062
     11          6           0       -3.841944   -1.720283    0.353508
     12          6           0       -4.108930   -0.629224   -0.449784
     13          6           0       -3.151835    0.342507   -0.639701
     14          6           0        1.289396    1.902264    0.706378
     15          6           0        2.624318    1.638946    0.920763
     16          6           0        3.189234    0.467431    0.465961
     17          1           0        4.539848   -2.887141   -0.915058
     18          1           0        4.466433   -1.945555    0.587333
     19          1           0        4.865960   -1.143663   -0.965685
     20          1           0        0.475484   -0.903455   -0.964971
     21          1           0       -0.456348    3.255001   -0.665496
     22          1           0       -2.102328    2.964751   -0.091906
     23          1           0       -1.626186    2.492892   -1.735077
     24          1           0       -0.701948   -0.943969    1.277173
     25          1           0       -2.402324   -2.682138    1.601209
     26          1           0       -4.592249   -2.479923    0.500395
     27          1           0       -5.069535   -0.538774   -0.930241
     28          1           0       -3.366651    1.185506   -1.271687
     29          1           0        0.846749    2.806244    1.085991
     30          1           0        3.231029    2.354045    1.452084
     31          1           0        4.232254    0.278638    0.643036
 ---------------------------------------------------------------------
 Rotational constants (GHZ):           0.9555425           0.3150541           0.2571427
 Standard basis: def2SVP (5D, 7F)
 There are   315 symmetry adapted cartesian basis functions of A   symmetry.
 There are   299 symmetry adapted basis functions of A   symmetry.
   299 basis functions,   505 primitive gaussians,   315 cartesian basis functions
    57 alpha electrons       57 beta electrons
       nuclear repulsion energy      1029.9692359129 Hartrees.
 NAtoms=   31 NActive=   31 NUniq=   31 SFac= 1.00D+00 NAtFMM=   60 NAOKFM=F Big=F
 Integral buffers will be    131072 words long.
 Raffenetti 2 integral format.
 Two-electron integral symmetry is turned on.
 Nuclear repulsion after empirical dispersion term =     1029.9489480707 Hartrees.
 One-electron integrals computed using PRISM.
   1 Symmetry operations used in ECPInt.
 ECPInt:  NShTT=   10011 NPrTT=   36031 LenC2=    9284 LenP2D=   24183.
 LDataN:  DoStor=T MaxTD1= 4 Len=   56
 NBasis=   299 RedAO= T EigKep=  2.14D-04  NBF=   299
 NBsUse=   299 1.00D-06 EigRej= -1.00D+00 NBFU=   299
 ExpMin= 1.22D-01 ExpMax= 2.27D+03 ExpMxC= 3.41D+02 IAcc=3 IRadAn=         5 AccDes= 0.00D+00
 Harris functional with IExCor= 4639 and IRadAn=       5 diagonalized for initial guess.
 HarFok:  IExCor= 4639 AccDes= 0.00D+00 IRadAn=         5 IDoV= 1 UseB2=F ITyADJ=14
 ICtDFT=  3500011 ScaDFX=  1.000000  1.000000  1.000000  1.000000
 FoFCou: FMM=F IPFlag=           0 FMFlag=      100000 FMFlg1=           0
         NFxFlg=           0 DoJE=T BraDBF=F KetDBF=T FulRan=T
         wScrn=  0.000000 ICntrl=       500 IOpCl=  0 I1Cent=   200000004 NGrid=           0
         NMat0=    1 NMatS0=      1 NMatT0=    0 NMatD0=    1 NMtDS0=    0 NMtDT0=    0
 Petite list used in FoFCou.
 Requested convergence on RMS density matrix=1.00D-08 within 128 cycles.
 Requested convergence on MAX density matrix=1.00D-06.
 Requested convergence on             energy=1.00D-06.
 No special actions if energy rises.
 Integral accuracy reduced to 1.0D-05 until final iterations.
 Initial convergence to 1.0D-05 achieved.  Increase integral accuracy.
 SCF Done:  E(RwB97XD) =  -671.771296368     A.U. after   15 cycles
            NFock= 15  Conv=0.59D-08     -V/T= 2.0105

 **********************************************************************

            Population analysis using the SCF Density.

 **********************************************************************

 Orbital symmetries:
       Occupied  (A) (A) (A) (A) (A) (A) (A) (A) (A) (A) (A) (A)
                 (A) (A) (A) (A) (A) (A) (A) (A) (A) (A) (A) (A)
                 (A) (A) (A) (A) (A) (A) (A) (A) (A) (A) (A) (A)
                 (A) (A) (A) (A) (A) (A) (A) (A) (A) (A) (A) (A)
                 (A) (A) (A) (A) (A) (A) (A) (A) (A)
       Virtual   (A) (A) (A) (A) (A) (A) (A) (A) (A) (A) (A) (A)
                 (A) (A) (A) (A) (A) (A) (A) (A) (A) (A) (A) (A)
                 (A) (A) (A) (A) (A) (A) (A) (A) (A) (A) (A) (A)
                 (A) (A) (A) (A) (A) (A) (A) (A) (A) (A) (A) (A)
                 (A) (A) (A) (A) (A) (A) (A) (A) (A) (A) (A) (A)
                 (A) (A) (A) (A) (A) (A) (A) (A) (A) (A) (A) (A)
                 (A) (A) (A) (A) (A) (A) (A) (A) (A) (A) (A) (A)
                 (A) (A) (A) (A) (A) (A) (A) (A) (A) (A) (A) (A)
                 (A) (A) (A) (A) (A) (A) (A) (A) (A) (A) (A) (A)
                 (A) (A) (A) (A) (A) (A) (A) (A) (A) (A) (A) (A)
                 (A) (A) (A) (A) (A) (A) (A) (A) (A) (A) (A) (A)
                 (A) (A) (A) (A) (A) (A) (A) (A) (A) (A) (A) (A)
                 (A) (A) (A) (A) (A) (A) (A) (A) (A) (A) (A) (A)
                 (A) (A) (A) (A) (A) (A) (A) (A) (A) (A) (A) (A)
                 (A) (A) (A) (A) (A) (A) (A) (A) (A) (A) (A) (A)
                 (A) (A) (A) (A) (A) (A) (A) (A) (A) (A) (A) (A)
                 (A) (A) (A) (A) (A) (A) (A) (A) (A) (A) (A) (A)
                 (A) (A) (A) (A) (A) (A) (A) (A) (A) (A) (A) (A)
                 (A) (A) (A) (A) (A) (A) (A) (A) (A) (A) (A) (A)
                 (A) (A) (A) (A) (A) (A) (A) (A) (A) (A) (A) (A)
                 (A) (A)
 The electronic state is 1-A.
 Alpha  occ. eigenvalues --  -19.28469 -14.46462 -10.36137 -10.34815 -10.34233
 Alpha  occ. eigenvalues --  -10.33720 -10.32891 -10.30305 -10.29491 -10.29226
 Alpha  occ. eigenvalues --  -10.29220 -10.29096 -10.29048 -10.28842 -10.28514
 Alpha  occ. eigenvalues --  -10.28256  -1.14825  -1.04084  -0.95441  -0.93754
 Alpha  occ. eigenvalues --   -0.85350  -0.84919  -0.83815  -0.82750  -0.78762
 Alpha  occ. eigenvalues --   -0.76846  -0.71370  -0.69685  -0.68467  -0.65980
 Alpha  occ. eigenvalues --   -0.63236  -0.61112  -0.57823  -0.57304  -0.56724
 Alpha  occ. eigenvalues --   -0.55994  -0.55412  -0.53472  -0.52673  -0.52107
 Alpha  occ. eigenvalues --   -0.51157  -0.50250  -0.50043  -0.47923  -0.46870
 Alpha  occ. eigenvalues --   -0.46073  -0.45604  -0.45279  -0.43420  -0.41847
 Alpha  occ. eigenvalues --   -0.41166  -0.40919  -0.37833  -0.33647  -0.32830
 Alpha  occ. eigenvalues --   -0.30385  -0.26093
 Alpha virt. eigenvalues --    0.05429   0.06550   0.07640   0.09403   0.14054
 Alpha virt. eigenvalues --    0.15032   0.15937   0.16957   0.18664   0.19542
 Alpha virt. eigenvalues --    0.20154   0.20562   0.21033   0.21659   0.21861
 Alpha virt. eigenvalues --    0.22083   0.22764   0.23594   0.24130   0.24905
 Alpha virt. eigenvalues --    0.25508   0.26271   0.27001   0.31295   0.32368
 Alpha virt. eigenvalues --    0.35014   0.36286   0.37113   0.37772   0.38748
 Alpha virt. eigenvalues --    0.40336   0.40814   0.41626   0.42665   0.44323
 Alpha virt. eigenvalues --    0.45380   0.47510   0.48805   0.49569   0.50629
 Alpha virt. eigenvalues --    0.51405   0.52345   0.53380   0.53994   0.54215
 Alpha virt. eigenvalues --    0.56085   0.56650   0.57172   0.57904   0.58371
 Alpha virt. eigenvalues --    0.58986   0.59371   0.60205   0.61429   0.62660
 Alpha virt. eigenvalues --    0.63692   0.65168   0.65629   0.66495   0.67563
 Alpha virt. eigenvalues --    0.68152   0.69300   0.71362   0.72053   0.72610
 Alpha virt. eigenvalues --    0.72925   0.73231   0.73753   0.74127   0.74803
 Alpha virt. eigenvalues --    0.75379   0.76012   0.76501   0.76815   0.77026
 Alpha virt. eigenvalues --    0.77305   0.78165   0.79158   0.79681   0.80851
 Alpha virt. eigenvalues --    0.82345   0.83000   0.83774   0.84446   0.85024
 Alpha virt. eigenvalues --    0.86090   0.87612   0.89205   0.90031   0.90955
 Alpha virt. eigenvalues --    0.91693   0.92870   0.93729   0.97541   0.98835
 Alpha virt. eigenvalues --    1.00350   1.03769   1.03908   1.05762   1.09423
 Alpha virt. eigenvalues --    1.11014   1.11729   1.13513   1.18163   1.19863
 Alpha virt. eigenvalues --    1.20569   1.23524   1.26466   1.26896   1.28545
 Alpha virt. eigenvalues --    1.30055   1.31610   1.32887   1.34192   1.34979
 Alpha virt. eigenvalues --    1.35321   1.37023   1.37728   1.38527   1.40103
 Alpha virt. eigenvalues --    1.41150   1.41480   1.43494   1.45024   1.46923
 Alpha virt. eigenvalues --    1.53871   1.55268   1.60167   1.60209   1.61225
 Alpha virt. eigenvalues --    1.63249   1.64120   1.67638   1.71279   1.75125
 Alpha virt. eigenvalues --    1.76840   1.77247   1.78169   1.78508   1.79654
 Alpha virt. eigenvalues --    1.80108   1.81984   1.83111   1.83924   1.84419
 Alpha virt. eigenvalues --    1.84793   1.85254   1.86378   1.87096   1.87649
 Alpha virt. eigenvalues --    1.88365   1.88828   1.89550   1.90657   1.90941
 Alpha virt. eigenvalues --    1.91409   1.92490   1.93845   1.95189   1.96317
 Alpha virt. eigenvalues --    1.97429   1.98612   1.99927   2.01050   2.03249
 Alpha virt. eigenvalues --    2.04260   2.05292   2.06296   2.08953   2.09394
 Alpha virt. eigenvalues --    2.09791   2.11924   2.14560   2.16047   2.16852
 Alpha virt. eigenvalues --    2.19988   2.22323   2.24584   2.25370   2.26076
 Alpha virt. eigenvalues --    2.27815   2.28291   2.28743   2.29102   2.29978
 Alpha virt. eigenvalues --    2.31890   2.33487   2.34435   2.36666   2.38401
 Alpha virt. eigenvalues --    2.39890   2.41287   2.41525   2.41886   2.43406
 Alpha virt. eigenvalues --    2.44505   2.45883   2.48166   2.48866   2.51920
 Alpha virt. eigenvalues --    2.54801   2.58193   2.60463   2.66039   2.69141
 Alpha virt. eigenvalues --    2.69882   2.71551   2.73088   2.74426   2.75071
 Alpha virt. eigenvalues --    2.76378   2.77369   2.78495   2.81977   2.85455
 Alpha virt. eigenvalues --    2.85617   2.86074   2.88264   2.90083   2.92664
 Alpha virt. eigenvalues --    2.95558   2.97384   2.97950   2.98379   3.00458
 Alpha virt. eigenvalues --    3.02365   3.04735   3.06209   3.08504   3.11801
 Alpha virt. eigenvalues --    3.14490   3.16834   3.17723   3.24135   3.26190
 Alpha virt. eigenvalues --    3.29722   3.34813   3.46574   3.51954   3.55765
 Alpha virt. eigenvalues --    3.79958   3.82010
          Condensed to atoms (all electrons):
               1          2          3          4          5          6
     1  C    4.393757   0.300380  -0.058582   0.006717  -0.000259   0.000001
     2  O    0.300380   7.909389   0.395909  -0.076723   0.004037  -0.000007
     3  C   -0.058582   0.395909   5.054394   0.215273   0.169641   0.011235
     4  C    0.006717  -0.076723   0.215273   5.333321   0.227861  -0.087631
     5  C   -0.000259   0.004037   0.169641   0.227861   5.141722   0.317626
     6  N    0.000001  -0.000007   0.011235  -0.087631   0.317626   6.814963
     7  C   -0.000000   0.000000  -0.000114   0.003991  -0.049628   0.340026
     8  C    0.000000  -0.000013  -0.000209  -0.004051  -0.045332   0.332980
     9  C   -0.000001   0.000006  -0.001790  -0.006309  -0.006741  -0.084838
    10  C   -0.000000   0.000002   0.000082  -0.000767  -0.000127   0.008713
    11  C    0.000000   0.000000  -0.000003  -0.000010   0.000017  -0.000653
    12  C    0.000000   0.000000   0.000003  -0.000022  -0.000076   0.008192
    13  C   -0.000000   0.000000  -0.000052   0.000420   0.006956  -0.088582
    14  C    0.000098  -0.000296  -0.174080   0.086150   0.230009  -0.078839
    15  C    0.001060   0.004786   0.143619  -0.148613   0.138807   0.009439
    16  C    0.001051  -0.082954   0.156173   0.059362  -0.178015  -0.000878
    17  H    0.397758  -0.020556   0.005083  -0.000011   0.000007  -0.000000
    18  H    0.403484  -0.030735  -0.009608  -0.000292   0.000040   0.000000
    19  H    0.403558  -0.030611  -0.009513  -0.000380   0.000049   0.000000
    20  H   -0.000163   0.001987  -0.068508   0.453634  -0.074784  -0.012855
    21  H   -0.000000   0.000000   0.000015  -0.000194  -0.008253  -0.017743
    22  H    0.000000  -0.000000   0.000034  -0.000600   0.002579  -0.028686
    23  H   -0.000000   0.000000  -0.000083   0.001044   0.004172  -0.032448
    24  H   -0.000004   0.000069  -0.000780   0.000985   0.006689  -0.014778
    25  H    0.000000  -0.000000   0.000001   0.000049  -0.000017  -0.000114
    26  H    0.000000  -0.000000  -0.000000   0.000000   0.000001   0.000011
    27  H   -0.000000  -0.000000  -0.000000  -0.000000   0.000007  -0.000098
    28  H    0.000000  -0.000000  -0.000001  -0.000012  -0.000165  -0.016367
    29  H   -0.000000   0.000005  -0.002421   0.017087  -0.074326  -0.010002
    30  H   -0.000032  -0.000059   0.014350  -0.002457   0.015493  -0.000147
    31  H    0.008269  -0.007968  -0.089601   0.014163  -0.001954   0.000006
               7          8          9         10         11         12
     1  C   -0.000000   0.000000  -0.000001  -0.000000   0.000000   0.000000
     2  O    0.000000  -0.000013   0.000006   0.000002   0.000000   0.000000
     3  C   -0.000114  -0.000209  -0.001790   0.000082  -0.000003   0.000003
     4  C    0.003991  -0.004051  -0.006309  -0.000767  -0.000010  -0.000022
     5  C   -0.049628  -0.045332  -0.006741  -0.000127   0.000017  -0.000076
     6  N    0.340026   0.332980  -0.084838   0.008713  -0.000653   0.008192
     7  C    4.432617  -0.051656   0.006353  -0.000238   0.000086   0.000393
     8  C   -0.051656   5.064108   0.268759   0.122247  -0.166375   0.121171
     9  C    0.006353   0.268759   5.189925   0.280168   0.089740  -0.156310
    10  C   -0.000238   0.122247   0.280168   5.050745   0.270086   0.103717
    11  C    0.000086  -0.166375   0.089740   0.270086   5.115896   0.280509
    12  C    0.000393   0.121171  -0.156310   0.103717   0.280509   5.051490
    13  C    0.004077   0.260400   0.071417  -0.154300   0.088707   0.268529
    14  C   -0.008611   0.004649   0.001000  -0.000065   0.000000   0.000001
    15  C    0.000410  -0.000187   0.000068   0.000005  -0.000000  -0.000000
    16  C    0.000030  -0.000022   0.000013  -0.000002   0.000000  -0.000000
    17  H    0.000000   0.000000   0.000000  -0.000000  -0.000000  -0.000000
    18  H   -0.000000   0.000000  -0.000000   0.000000  -0.000000   0.000000
    19  H    0.000000  -0.000000   0.000000   0.000000   0.000000   0.000000
    20  H   -0.000033   0.003263   0.002585   0.000046  -0.000034   0.000030
    21  H    0.399794   0.005939  -0.000146   0.000004   0.000004  -0.000047
    22  H    0.401560  -0.005838   0.000323  -0.000065  -0.000075   0.000770
    23  H    0.400865  -0.011109  -0.000634   0.000071  -0.000065   0.000864
    24  H   -0.000104  -0.068693   0.460107  -0.069585   0.014943  -0.002415
    25  H    0.000006   0.015373  -0.068284   0.453787  -0.072691   0.014302
    26  H   -0.000000  -0.001483   0.014947  -0.070586   0.452421  -0.070517
    27  H   -0.000036   0.015375  -0.001967   0.014267  -0.070841   0.452778
    28  H    0.011223  -0.077965   0.016950  -0.002595   0.015824  -0.071878
    29  H    0.000946  -0.000312  -0.000025   0.000002   0.000000  -0.000000
    30  H   -0.000010   0.000007  -0.000002  -0.000000   0.000000   0.000000
    31  H    0.000001   0.000001  -0.000000  -0.000000   0.000000  -0.000000
              13         14         15         16         17         18
     1  C   -0.000000   0.000098   0.001060   0.001051   0.397758   0.403484
     2  O    0.000000  -0.000296   0.004786  -0.082954  -0.020556  -0.030735
     3  C   -0.000052  -0.174080   0.143619   0.156173   0.005083  -0.009608
     4  C    0.000420   0.086150  -0.148613   0.059362  -0.000011  -0.000292
     5  C    0.006956   0.230009   0.138807  -0.178015   0.000007   0.000040
     6  N   -0.088582  -0.078839   0.009439  -0.000878  -0.000000   0.000000
     7  C    0.004077  -0.008611   0.000410   0.000030   0.000000  -0.000000
     8  C    0.260400   0.004649  -0.000187  -0.000022   0.000000   0.000000
     9  C    0.071417   0.001000   0.000068   0.000013   0.000000  -0.000000
    10  C   -0.154300  -0.000065   0.000005  -0.000002  -0.000000   0.000000
    11  C    0.088707   0.000000  -0.000000   0.000000  -0.000000  -0.000000
    12  C    0.268529   0.000001  -0.000000  -0.000000  -0.000000   0.000000
    13  C    5.205658  -0.000414   0.000001   0.000001  -0.000000   0.000000
    14  C   -0.000414   5.229670   0.244436   0.100910   0.000005  -0.000120
    15  C    0.000001   0.244436   5.065742   0.217049  -0.000036   0.000715
    16  C    0.000001   0.100910   0.217049   5.401697   0.000187   0.006292
    17  H   -0.000000   0.000005  -0.000036   0.000187   0.611134  -0.023508
    18  H    0.000000  -0.000120   0.000715   0.006292  -0.023508   0.661002
    19  H   -0.000000  -0.000107   0.000715   0.006132  -0.023362  -0.043230
    20  H   -0.000693   0.017007  -0.003535   0.020985  -0.000102   0.000075
    21  H    0.000589   0.004237   0.000497  -0.000087  -0.000000   0.000000
    22  H    0.004785   0.001114  -0.000057  -0.000002  -0.000000  -0.000000
    23  H    0.002889   0.000066   0.000035  -0.000002   0.000000   0.000000
    24  H    0.015931  -0.001057   0.000101   0.000006  -0.000000   0.000002
    25  H   -0.001954   0.000001  -0.000000  -0.000000   0.000000   0.000000
    26  H    0.014872   0.000000  -0.000000  -0.000000   0.000000   0.000000
    27  H   -0.069017  -0.000000   0.000000   0.000000   0.000000  -0.000000
    28  H    0.459337   0.000013   0.000000   0.000000   0.000000   0.000000
    29  H   -0.000020   0.455071  -0.068422   0.016264  -0.000000  -0.000001
    30  H   -0.000000  -0.067528   0.452517  -0.069388  -0.000001   0.000028
    31  H    0.000000   0.015829  -0.062095   0.461339  -0.000277   0.000226
              19         20         21         22         23         24
     1  C    0.403558  -0.000163  -0.000000   0.000000  -0.000000  -0.000004
     2  O   -0.030611   0.001987   0.000000  -0.000000   0.000000   0.000069
     3  C   -0.009513  -0.068508   0.000015   0.000034  -0.000083  -0.000780
     4  C   -0.000380   0.453634  -0.000194  -0.000600   0.001044   0.000985
     5  C    0.000049  -0.074784  -0.008253   0.002579   0.004172   0.006689
     6  N    0.000000  -0.012855  -0.017743  -0.028686  -0.032448  -0.014778
     7  C    0.000000  -0.000033   0.399794   0.401560   0.400865  -0.000104
     8  C   -0.000000   0.003263   0.005939  -0.005838  -0.011109  -0.068693
     9  C    0.000000   0.002585  -0.000146   0.000323  -0.000634   0.460107
    10  C    0.000000   0.000046   0.000004  -0.000065   0.000071  -0.069585
    11  C    0.000000  -0.000034   0.000004  -0.000075  -0.000065   0.014943
    12  C    0.000000   0.000030  -0.000047   0.000770   0.000864  -0.002415
    13  C   -0.000000  -0.000693   0.000589   0.004785   0.002889   0.015931
    14  C   -0.000107   0.017007   0.004237   0.001114   0.000066  -0.001057
    15  C    0.000715  -0.003535   0.000497  -0.000057   0.000035   0.000101
    16  C    0.006132   0.020985  -0.000087  -0.000002  -0.000002   0.000006
    17  H   -0.023362  -0.000102  -0.000000  -0.000000   0.000000  -0.000000
    18  H   -0.043230   0.000075   0.000000  -0.000000   0.000000   0.000002
    19  H    0.660511   0.000091  -0.000000   0.000000  -0.000000   0.000000
    20  H    0.000091   0.652069  -0.000033  -0.000009   0.000038  -0.002844
    21  H   -0.000000  -0.000033   0.604446  -0.018702  -0.021589  -0.000011
    22  H    0.000000  -0.000009  -0.018702   0.642917  -0.039442   0.000036
    23  H   -0.000000   0.000038  -0.021589  -0.039442   0.655777  -0.000031
    24  H    0.000000  -0.002844  -0.000011   0.000036  -0.000031   0.656611
    25  H   -0.000000   0.000026  -0.000000   0.000000  -0.000000  -0.013015
    26  H   -0.000000  -0.000000  -0.000000  -0.000000   0.000000  -0.000243
    27  H    0.000000  -0.000002  -0.000001  -0.000001   0.000027   0.000019
    28  H   -0.000000  -0.000011   0.000026  -0.001338  -0.001681  -0.000179
    29  H    0.000001  -0.000169   0.000740  -0.000704   0.000322  -0.000045
    30  H    0.000030   0.000018   0.000050   0.000001  -0.000002  -0.000003
    31  H    0.000319  -0.000188  -0.000001  -0.000000  -0.000000   0.000002
              25         26         27         28         29         30
     1  C    0.000000   0.000000  -0.000000   0.000000  -0.000000  -0.000032
     2  O   -0.000000  -0.000000  -0.000000  -0.000000   0.000005  -0.000059
     3  C    0.000001  -0.000000  -0.000000  -0.000001  -0.002421   0.014350
     4  C    0.000049   0.000000  -0.000000  -0.000012   0.017087  -0.002457
     5  C   -0.000017   0.000001   0.000007  -0.000165  -0.074326   0.015493
     6  N   -0.000114   0.000011  -0.000098  -0.016367  -0.010002  -0.000147
     7  C    0.000006  -0.000000  -0.000036   0.011223   0.000946  -0.000010
     8  C    0.015373  -0.001483   0.015375  -0.077965  -0.000312   0.000007
     9  C   -0.068284   0.014947  -0.001967   0.016950  -0.000025  -0.000002
    10  C    0.453787  -0.070586   0.014267  -0.002595   0.000002  -0.000000
    11  C   -0.072691   0.452421  -0.070841   0.015824   0.000000   0.000000
    12  C    0.014302  -0.070517   0.452778  -0.071878  -0.000000   0.000000
    13  C   -0.001954   0.014872  -0.069017   0.459337  -0.000020  -0.000000
    14  C    0.000001   0.000000  -0.000000   0.000013   0.455071  -0.067528
    15  C   -0.000000  -0.000000   0.000000   0.000000  -0.068422   0.452517
    16  C   -0.000000  -0.000000   0.000000   0.000000   0.016264  -0.069388
    17  H    0.000000   0.000000   0.000000   0.000000  -0.000000  -0.000001
    18  H    0.000000   0.000000  -0.000000   0.000000  -0.000001   0.000028
    19  H   -0.000000  -0.000000   0.000000  -0.000000   0.000001   0.000030
    20  H    0.000026  -0.000000  -0.000002  -0.000011  -0.000169   0.000018
    21  H   -0.000000  -0.000000  -0.000001   0.000026   0.000740   0.000050
    22  H    0.000000  -0.000000  -0.000001  -0.001338  -0.000704   0.000001
    23  H   -0.000000   0.000000   0.000027  -0.001681   0.000322  -0.000002
    24  H   -0.013015  -0.000243   0.000019  -0.000179  -0.000045  -0.000003
    25  H    0.675910  -0.012443  -0.000271   0.000023  -0.000000   0.000000
    26  H   -0.012443   0.681802  -0.012479  -0.000259   0.000000   0.000000
    27  H   -0.000271  -0.012479   0.677963  -0.013771  -0.000000  -0.000000
    28  H    0.000023  -0.000259  -0.013771   0.697941  -0.000003  -0.000000
    29  H   -0.000000   0.000000  -0.000000  -0.000003   0.683080  -0.013033
    30  H    0.000000   0.000000  -0.000000  -0.000000  -0.013033   0.671666
    31  H    0.000000  -0.000000   0.000000   0.000000  -0.000225  -0.013754
              31
     1  C    0.008269
     2  O   -0.007968
     3  C   -0.089601
     4  C    0.014163
     5  C   -0.001954
     6  N    0.000006
     7  C    0.000001
     8  C    0.000001
     9  C   -0.000000
    10  C   -0.000000
    11  C    0.000000
    12  C   -0.000000
    13  C    0.000000
    14  C    0.015829
    15  C   -0.062095
    16  C    0.461339
    17  H   -0.000277
    18  H    0.000226
    19  H    0.000319
    20  H   -0.000188
    21  H   -0.000001
    22  H   -0.000000
    23  H   -0.000000
    24  H    0.000002
    25  H    0.000000
    26  H   -0.000000
    27  H    0.000000
    28  H    0.000000
    29  H   -0.000225
    30  H   -0.013754
    31  H    0.683338
 Mulliken charges:
               1
     1  C    0.142908
     2  O   -0.366648
     3  C    0.249534
     4  C   -0.091985
     5  C    0.173964
     6  N   -0.368527
     7  C    0.108054
     8  C    0.218973
     9  C   -0.075315
    10  C   -0.005613
    11  C   -0.017484
    12  C   -0.001485
    13  C   -0.089537
    14  C   -0.059151
    15  C    0.002944
    16  C   -0.116140
    17  H    0.053679
    18  H    0.035633
    19  H    0.035797
    20  H    0.012110
    21  H    0.050465
    22  H    0.041399
    23  H    0.040917
    24  H    0.018287
    25  H    0.009312
    26  H    0.003957
    27  H    0.008048
    28  H   -0.015114
    29  H   -0.003810
    30  H    0.012256
    31  H   -0.007428
 Sum of Mulliken charges =  -0.00000
 Mulliken charges with hydrogens summed into heavy atoms:
               1
     1  C    0.268017
     2  O   -0.366648
     3  C    0.249534
     4  C   -0.079876
     5  C    0.173964
     6  N   -0.368527
     7  C    0.240835
     8  C    0.218973
     9  C   -0.057027
    10  C    0.003699
    11  C   -0.013527
    12  C    0.006562
    13  C   -0.104651
    14  C   -0.062961
    15  C    0.015200
    16  C   -0.123567
 Electronic spatial extent (au):  <R**2>=           4301.1636
 Charge=             -0.0000 electrons
 Dipole moment (field-independent basis, Debye):
    X=              1.5883    Y=              1.1137    Z=              0.1298  Tot=              1.9442
 Quadrupole moment (field-independent basis, Debye-Ang):
   XX=            -80.6790   YY=            -87.0773   ZZ=            -96.4082
   XY=             -3.5126   XZ=              4.0863   YZ=             -2.1435
 Traceless Quadrupole moment (field-independent basis, Debye-Ang):
   XX=              7.3759   YY=              0.9775   ZZ=             -8.3534
   XY=             -3.5126   XZ=              4.0863   YZ=             -2.1435
 Octapole moment (field-independent basis, Debye-Ang**2):
  XXX=             68.3977  YYY=              5.9573  ZZZ=             -6.5914  XYY=              5.2970
  XXY=            -25.1168  XXZ=            -10.2802  XZZ=              5.5831  YZZ=             -0.3403
  YYZ=              6.2089  XYZ=             12.6102
 Hexadecapole moment (field-independent basis, Debye-Ang**3):
 XXXX=          -3766.6903 YYYY=          -1247.4595 ZZZZ=           -349.5929 XXXY=           -105.9558
 XXXZ=             51.9218 YYYX=            -49.4458 YYYZ=             -1.3712 ZZZX=             -3.2322
 ZZZY=             -2.1579 XXYY=           -833.2515 XXZZ=           -768.5227 YYZZ=           -263.9707
 XXYZ=              6.8724 YYXZ=             -4.6525 ZZXY=            -13.3726
 N-N= 1.029948948071D+03 E-N=-3.617822108409D+03  KE= 6.648122409530D+02
   1 Symmetry operations used in ECPInt.
 ECPInt:  NShTT=   10011 NPrTT=   36031 LenC2=    9284 LenP2D=   24183.
 LDataN:  DoStor=T MaxTD1= 5 Len=  102
 Calling FoFJK, ICntrl=      2127 FMM=F ISym2X=0 I1Cent= 0 IOpClX= 0 NMat=1 NMatS=1 NMatT=0.
 ***** Axes restored to original set *****
 -------------------------------------------------------------------
 Center     Atomic                   Forces (Hartrees/Bohr)
 Number     Number              X              Y              Z
 -------------------------------------------------------------------
      1        6           0.011521005   -0.000794028   -0.003304983
      2        8           0.004823150   -0.033912400    0.010979122
      3        6          -0.001603901    0.020234492   -0.005278488
      4        6          -0.001647717    0.006199289   -0.004713405
      5        6           0.017975874   -0.002320785   -0.002802663
      6        7          -0.003557613    0.004031798    0.004726721
      7        6          -0.000399913    0.018466458    0.007647142
      8        6          -0.024367268   -0.013162491   -0.005838423
      9        6          -0.004351784   -0.001391310    0.002851083
     10        6          -0.000367085   -0.000280304   -0.000990237
     11        6           0.008397133    0.003885090   -0.000131964
     12        6           0.001975121    0.003098436    0.002947667
     13        6          -0.007874794   -0.007683353   -0.003157984
     14        6           0.007180827   -0.004281373    0.000666716
     15        6           0.004499084   -0.002013727   -0.002835634
     16        6          -0.006399041    0.017518628   -0.004684996
     17        1           0.002717677    0.004142675   -0.002388478
     18        1          -0.005930732    0.000726455    0.007503385
     19        1          -0.008883235   -0.002944062   -0.002167544
     20        1           0.007911064    0.008659228   -0.006047002
     21        1          -0.005314826   -0.000620635    0.000437208
     22        1           0.006332527   -0.006042245    0.003320159
     23        1           0.003681809   -0.002421024   -0.010206220
     24        1          -0.008550600    0.003025623    0.005575415
     25        1          -0.001668861    0.007446063    0.007040358
     26        1           0.008353858    0.005916347    0.001909307
     27        1           0.008675244   -0.002707427   -0.005008161
     28        1           0.002374025   -0.008123223   -0.007333871
     29        1           0.002141088   -0.010712023    0.003911401
     30        1          -0.006953913   -0.005534264    0.004502797
     31        1          -0.010688205    0.001594090    0.002871572
 -------------------------------------------------------------------
 Cartesian Forces:  Max     0.033912400 RMS     0.007911841

 GradGradGradGradGradGradGradGradGradGradGradGradGradGradGradGradGradGrad
 Berny optimization.
 FormGI is forming the generalized inverse of G from B-inverse, IUseBI=4.
 Internal  Forces:  Max     0.034622055 RMS     0.006443268
 Search for a local minimum.
 Step number   1 out of a maximum of  161
 All quantities printed in internal units (Hartrees-Bohrs-Radians)
 Mixed Optimization -- RFO/linear search
 Second derivative matrix not updated -- first step.
 ITU=  0
     Eigenvalues ---    0.00867   0.01127   0.01249   0.01357   0.01602
     Eigenvalues ---    0.01675   0.01899   0.01916   0.02071   0.02174
     Eigenvalues ---    0.02185   0.02200   0.02214   0.02249   0.02264
     Eigenvalues ---    0.02282   0.02286   0.02335   0.02339   0.02342
     Eigenvalues ---    0.02358   0.02369   0.02376   0.02385   0.07389
     Eigenvalues ---    0.07447   0.10345   0.10570   0.15993   0.15998
     Eigenvalues ---    0.15999   0.15999   0.16000   0.16000   0.16000
     Eigenvalues ---    0.16000   0.16000   0.16000   0.16000   0.16000
     Eigenvalues ---    0.16000   0.16000   0.16000   0.22000   0.22000
     Eigenvalues ---    0.22000   0.23454   0.23465   0.23482   0.24979
     Eigenvalues ---    0.24986   0.24995   0.25000   0.25000   0.25000
     Eigenvalues ---    0.34743   0.34744   0.34760   0.34997   0.35019
     Eigenvalues ---    0.35073   0.36254   0.36255   0.36260   0.36265
     Eigenvalues ---    0.36514   0.36521   0.36572   0.36648   0.36673
     Eigenvalues ---    0.36802   0.40497   0.41668   0.42635   0.43089
     Eigenvalues ---    0.43430   0.43745   0.44513   0.45408   0.46255
     Eigenvalues ---    0.47055   0.47338   0.47979   0.48615   0.49129
     Eigenvalues ---    0.49202   0.49702
 RFO step:  Lambda=-1.69538925D-02 EMin= 8.67155393D-03
 Linear search not attempted -- first point.
 Iteration  1 RMS(Cart)=  0.07089377 RMS(Int)=  0.00187531
 Iteration  2 RMS(Cart)=  0.00342178 RMS(Int)=  0.00016606
 Iteration  3 RMS(Cart)=  0.00001004 RMS(Int)=  0.00016597
 Iteration  4 RMS(Cart)=  0.00000001 RMS(Int)=  0.00016597
 Variable       Old X    -DE/DX   Delta X   Delta X   Delta X     New X
                                 (Linear)    (Quad)   (Total)
    R1        2.65845   0.00082   0.00000   0.00178   0.00178   2.66023
    R2        2.06067   0.00442   0.00000   0.01213   0.01213   2.07280
    R3        2.06092   0.00850   0.00000   0.02332   0.02332   2.08424
    R4        2.06093   0.00849   0.00000   0.02331   0.02331   2.08425
    R5        2.64805  -0.03462   0.00000  -0.07350  -0.07350   2.57455
    R6        2.63059   0.00329   0.00000   0.00589   0.00593   2.63652
    R7        2.64150   0.00222   0.00000   0.00444   0.00449   2.64598
    R8        2.62538   0.00806   0.00000   0.01577   0.01576   2.64114
    R9        2.02845   0.01315   0.00000   0.03415   0.03415   2.06260
   R10        2.70884  -0.01727   0.00000  -0.04094  -0.04094   2.66789
   R11        2.63543   0.00841   0.00000   0.01769   0.01764   2.65307
   R12        2.76342  -0.00843   0.00000  -0.02198  -0.02198   2.74144
   R13        2.69348  -0.02001   0.00000  -0.04615  -0.04615   2.64732
   R14        2.05557   0.00489   0.00000   0.01329   0.01329   2.06886
   R15        2.05680   0.00913   0.00000   0.02489   0.02489   2.08169
   R16        2.05643   0.01061   0.00000   0.02889   0.02889   2.08533
   R17        2.63559   0.01276   0.00000   0.02624   0.02624   2.66183
   R18        2.63613   0.00985   0.00000   0.02018   0.02018   2.65631
   R19        2.60109   0.01436   0.00000   0.02794   0.02794   2.62903
   R20        2.03274   0.01054   0.00000   0.02758   0.02758   2.06032
   R21        2.60917   0.01512   0.00000   0.03011   0.03010   2.63928
   R22        2.03677   0.01033   0.00000   0.02722   0.02722   2.06399
   R23        2.60958   0.01173   0.00000   0.02339   0.02339   2.63297
   R24        2.03669   0.01041   0.00000   0.02743   0.02743   2.06412
   R25        2.60231   0.01691   0.00000   0.03290   0.03290   2.63521
   R26        2.03686   0.01033   0.00000   0.02723   0.02723   2.06409
   R27        2.03196   0.01110   0.00000   0.02901   0.02901   2.06097
   R28        2.60296   0.01278   0.00000   0.02574   0.02571   2.62867
   R29        2.03286   0.01155   0.00000   0.03024   0.03024   2.06310
   R30        2.60373   0.01584   0.00000   0.03155   0.03156   2.63528
   R31        2.03685   0.00995   0.00000   0.02621   0.02621   2.06306
   R32        2.03081   0.01097   0.00000   0.02860   0.02860   2.05941
    A1        1.89470  -0.00751   0.00000  -0.04524  -0.04499   1.84971
    A2        1.91879   0.00650   0.00000   0.03816   0.03779   1.95658
    A3        1.91874   0.00657   0.00000   0.03860   0.03823   1.95697
    A4        1.90076  -0.00077   0.00000  -0.00725  -0.00701   1.89376
    A5        1.90052  -0.00077   0.00000  -0.00717  -0.00692   1.89360
    A6        1.92978  -0.00424   0.00000  -0.01857  -0.01941   1.91037
    A7        2.00240   0.01760   0.00000   0.06595   0.06595   2.06835
    A8        2.04746  -0.01060   0.00000  -0.03916  -0.03922   2.00824
    A9        2.17754   0.00016   0.00000   0.00116   0.00109   2.17863
   A10        2.05818   0.01044   0.00000   0.03800   0.03805   2.09624
   A11        2.13039  -0.00446   0.00000  -0.02082  -0.02080   2.10959
   A12        2.06761   0.00109   0.00000   0.00396   0.00395   2.07156
   A13        2.08512   0.00337   0.00000   0.01690   0.01689   2.10200
   A14        2.10110   0.00063   0.00000   0.00224   0.00222   2.10332
   A15        2.06565   0.00312   0.00000   0.01187   0.01175   2.07739
   A16        2.11642  -0.00375   0.00000  -0.01418  -0.01419   2.10223
   A17        2.06941   0.00191   0.00000   0.00697   0.00693   2.07634
   A18        2.13263   0.00248   0.00000   0.00910   0.00905   2.14168
   A19        2.08030  -0.00440   0.00000  -0.01669  -0.01673   2.06357
   A20        1.93507  -0.00467   0.00000  -0.02881  -0.02866   1.90641
   A21        1.92279   0.00274   0.00000   0.01664   0.01647   1.93926
   A22        1.92106   0.00498   0.00000   0.02940   0.02930   1.95036
   A23        1.89515   0.00039   0.00000  -0.00024  -0.00015   1.89500
   A24        1.88243  -0.00074   0.00000  -0.00645  -0.00624   1.87619
   A25        1.90656  -0.00285   0.00000  -0.01137  -0.01175   1.89480
   A26        2.10084   0.00576   0.00000   0.02189   0.02177   2.12261
   A27        2.12161  -0.00712   0.00000  -0.02638  -0.02647   2.09514
   A28        2.06058   0.00135   0.00000   0.00406   0.00397   2.06455
   A29        2.11189  -0.00171   0.00000  -0.00750  -0.00749   2.10440
   A30        2.07619   0.00238   0.00000   0.01239   0.01239   2.08858
   A31        2.09498  -0.00067   0.00000  -0.00487  -0.00487   2.09011
   A32        2.09587   0.00286   0.00000   0.01280   0.01279   2.10866
   A33        2.09361  -0.00241   0.00000  -0.01197  -0.01197   2.08164
   A34        2.09371  -0.00045   0.00000  -0.00085  -0.00086   2.09285
   A35        2.09099  -0.00394   0.00000  -0.01549  -0.01550   2.07549
   A36        2.09600   0.00212   0.00000   0.00860   0.00859   2.10459
   A37        2.09620   0.00182   0.00000   0.00689   0.00688   2.10308
   A38        2.09830   0.00227   0.00000   0.01008   0.01008   2.10838
   A39        2.09197  -0.00019   0.00000   0.00030   0.00030   2.09227
   A40        2.09292  -0.00208   0.00000  -0.01038  -0.01039   2.08253
   A41        2.10870  -0.00083   0.00000  -0.00407  -0.00406   2.10464
   A42        2.08531   0.00191   0.00000   0.01046   0.01046   2.09577
   A43        2.08912  -0.00107   0.00000  -0.00638  -0.00638   2.08274
   A44        2.10214  -0.00364   0.00000  -0.01198  -0.01208   2.09005
   A45        2.08108   0.00289   0.00000   0.01213   0.01217   2.09325
   A46        2.09960   0.00075   0.00000   0.00001   0.00005   2.09965
   A47        2.10426   0.00255   0.00000   0.01486   0.01480   2.11906
   A48        2.08910  -0.00078   0.00000  -0.00463  -0.00464   2.08447
   A49        2.08982  -0.00177   0.00000  -0.01027  -0.01027   2.07955
   A50        2.10576  -0.00801   0.00000  -0.03194  -0.03188   2.07388
   A51        2.09119   0.00621   0.00000   0.02843   0.02840   2.11959
   A52        2.08623   0.00180   0.00000   0.00351   0.00348   2.08971
    D1       -3.13794  -0.00001   0.00000  -0.00007  -0.00007  -3.13801
    D2        1.06767   0.00163   0.00000   0.01360   0.01444   1.08211
    D3       -1.06069  -0.00162   0.00000  -0.01338  -0.01422  -1.07491
    D4        3.13677  -0.00036   0.00000  -0.00990  -0.00977   3.12701
    D5       -0.00470   0.00015   0.00000   0.00369   0.00356  -0.00114
    D6        3.14025  -0.00012   0.00000  -0.00276  -0.00278   3.13747
    D7       -0.01390   0.00006   0.00000   0.00172   0.00160  -0.01230
    D8       -0.00145  -0.00059   0.00000  -0.01540  -0.01543  -0.01688
    D9        3.12758  -0.00041   0.00000  -0.01092  -0.01105   3.11653
   D10       -3.14111  -0.00038   0.00000  -0.01009  -0.01023   3.13184
   D11       -0.00082  -0.00031   0.00000  -0.00819  -0.00830  -0.00911
   D12        0.00060   0.00013   0.00000   0.00358   0.00373   0.00433
   D13        3.14090   0.00020   0.00000   0.00548   0.00566  -3.13663
   D14        3.13892  -0.00019   0.00000  -0.00558  -0.00585   3.13308
   D15        0.00215   0.00049   0.00000   0.01312   0.01300   0.01515
   D16        0.01001  -0.00035   0.00000  -0.01001  -0.01020  -0.00020
   D17       -3.12677   0.00032   0.00000   0.00869   0.00864  -3.11813
   D18       -2.33763   0.00192   0.00000   0.06187   0.06188  -2.27575
   D19        0.75951   0.00133   0.00000   0.04484   0.04469   0.80420
   D20        0.79901   0.00124   0.00000   0.04269   0.04284   0.84185
   D21       -2.38704   0.00066   0.00000   0.02566   0.02565  -2.36139
   D22       -0.00200   0.00007   0.00000   0.00110   0.00094  -0.00107
   D23       -3.11430  -0.00016   0.00000  -0.00511  -0.00520  -3.11950
   D24       -3.13874   0.00074   0.00000   0.01992   0.01972  -3.11901
   D25        0.03215   0.00051   0.00000   0.01371   0.01358   0.04574
   D26       -0.16927  -0.00026   0.00000  -0.00998  -0.00989  -0.17916
   D27       -2.26759   0.00047   0.00000  -0.00194  -0.00172  -2.26931
   D28        1.91208  -0.00094   0.00000  -0.01734  -0.01754   1.89454
   D29        3.01542   0.00013   0.00000   0.00588   0.00589   3.02131
   D30        0.91710   0.00086   0.00000   0.01392   0.01406   0.93116
   D31       -1.18642  -0.00054   0.00000  -0.00148  -0.00176  -1.18817
   D32        0.37457   0.00134   0.00000   0.04292   0.04287   0.41744
   D33       -2.78606   0.00039   0.00000   0.01615   0.01615  -2.76991
   D34       -2.81174   0.00091   0.00000   0.02637   0.02637  -2.78537
   D35        0.31081  -0.00005   0.00000  -0.00040  -0.00035   0.31046
   D36        3.13319  -0.00048   0.00000  -0.01199  -0.01238   3.12081
   D37        0.00836  -0.00054   0.00000  -0.01412  -0.01444  -0.00607
   D38        0.00998   0.00053   0.00000   0.01420   0.01422   0.02420
   D39       -3.11485   0.00048   0.00000   0.01206   0.01216  -3.10268
   D40       -3.13328   0.00057   0.00000   0.01703   0.01667  -3.11661
   D41        0.01884   0.00049   0.00000   0.01475   0.01445   0.03329
   D42       -0.01030  -0.00031   0.00000  -0.00894  -0.00897  -0.01927
   D43       -3.14136  -0.00040   0.00000  -0.01122  -0.01119   3.13063
   D44       -0.00344  -0.00033   0.00000  -0.00843  -0.00845  -0.01190
   D45        3.14005  -0.00001   0.00000  -0.00065  -0.00064   3.13941
   D46        3.12120  -0.00024   0.00000  -0.00611  -0.00623   3.11497
   D47       -0.01849   0.00007   0.00000   0.00167   0.00158  -0.01691
   D48       -0.00303  -0.00010   0.00000  -0.00286  -0.00280  -0.00583
   D49        3.14070   0.00014   0.00000   0.00331   0.00336  -3.13912
   D50        3.13666  -0.00041   0.00000  -0.01065  -0.01068   3.12598
   D51       -0.00279  -0.00018   0.00000  -0.00447  -0.00452  -0.00731
   D52        0.00270   0.00032   0.00000   0.00808   0.00810   0.01080
   D53       -3.13984   0.00019   0.00000   0.00523   0.00516  -3.13468
   D54       -3.14104   0.00009   0.00000   0.00190   0.00195  -3.13909
   D55       -0.00039  -0.00005   0.00000  -0.00094  -0.00099  -0.00138
   D56        0.00412  -0.00012   0.00000  -0.00208  -0.00217   0.00194
   D57        3.13516  -0.00002   0.00000   0.00031   0.00013   3.13529
   D58       -3.13653   0.00001   0.00000   0.00076   0.00074  -3.13579
   D59       -0.00549   0.00011   0.00000   0.00315   0.00305  -0.00244
   D60        0.00122  -0.00052   0.00000  -0.01265  -0.01269  -0.01146
   D61       -3.13639  -0.00004   0.00000  -0.00096  -0.00089  -3.13728
   D62        3.11321  -0.00025   0.00000  -0.00617  -0.00632   3.10689
   D63       -0.02440   0.00023   0.00000   0.00553   0.00547  -0.01893
   D64       -0.00051   0.00041   0.00000   0.01025   0.01031   0.00981
   D65       -3.14081   0.00034   0.00000   0.00833   0.00840  -3.13241
   D66        3.13710  -0.00006   0.00000  -0.00144  -0.00144   3.13567
   D67       -0.00320  -0.00014   0.00000  -0.00336  -0.00335  -0.00655
         Item               Value     Threshold  Converged?
 Maximum Force            0.034622     0.000450     NO 
 RMS     Force            0.006443     0.000300     NO 
 Maximum Displacement     0.247741     0.001800     NO 
 RMS     Displacement     0.072786     0.001200     NO 
 Predicted change in Energy=-9.023925D-03
 GradGradGradGradGradGradGradGradGradGradGradGradGradGradGradGradGradGrad

                          Input orientation:                          
 ---------------------------------------------------------------------
 Center     Atomic      Atomic             Coordinates (Angstroms)
 Number     Number       Type             X           Y           Z
 ---------------------------------------------------------------------
      1          6           0       -3.934349    2.595011   -0.454534
      2          8           0       -2.633163    2.088997   -0.635036
      3          6           0       -2.360562    0.826447   -0.201714
      4          6           0       -1.055330    0.391151   -0.432870
      5          6           0       -0.642920   -0.883015   -0.033132
      6          7           0        0.676786   -1.319554   -0.280026
      7          6           0        0.884011   -2.615145   -0.898945
      8          6           0        1.799079   -0.523032   -0.018229
      9          6           0        1.760706    0.518227    0.929612
     10          6           0        2.895262    1.280026    1.190265
     11          6           0        4.098349    1.020859    0.529937
     12          6           0        4.149146   -0.021289   -0.393457
     13          6           0        3.017198   -0.788175   -0.667664
     14          6           0       -1.568466   -1.733665    0.592024
     15          6           0       -2.872520   -1.298330    0.803920
     16          6           0       -3.284293   -0.022474    0.420055
     17          1           0       -3.925211    3.608353   -0.874289
     18          1           0       -4.210171    2.660124    0.611365
     19          1           0       -4.690113    1.999691   -0.993869
     20          1           0       -0.360996    1.063126   -0.940493
     21          1           0       -0.065716   -3.159208   -0.923195
     22          1           0        1.616338   -3.212612   -0.333065
     23          1           0        1.238062   -2.519152   -1.939697
     24          1           0        0.837251    0.719408    1.473171
     25          1           0        2.841017    2.083594    1.928013
     26          1           0        4.987419    1.619895    0.739207
     27          1           0        5.083653   -0.241876   -0.914123
     28          1           0        3.082447   -1.594406   -1.399228
     29          1           0       -1.256844   -2.724268    0.928924
     30          1           0       -3.586844   -1.962600    1.294177
     31          1           0       -4.310415    0.293362    0.607058
 ---------------------------------------------------------------------
                    Distance matrix (angstroms):
                    1          2          3          4          5
     1  C    0.000000
     2  O    1.407734   0.000000
     3  C    2.380871   1.362393   0.000000
     4  C    3.625771   2.326609   1.395186   0.000000
     5  C    4.807052   3.627149   2.429191   1.397631   0.000000
     6  N    6.051185   4.764453   3.719802   2.439282   1.411789
     7  C    7.110543   5.879551   4.780997   3.607781   2.466055
     8  C    6.541005   5.181497   4.376913   3.025774   2.468435
     9  C    6.217921   4.921537   4.284827   3.130905   2.944108
    10  C    7.146897   5.877894   5.455916   4.362551   4.323677
    11  C    8.244475   6.914573   6.503124   5.280524   5.140177
    12  C    8.496567   7.107136   6.567474   5.220942   4.882244
    13  C    7.734041   6.340802   5.634218   4.246343   3.715925
    14  C    5.042829   4.153553   2.794925   2.414241   1.403944
    15  C    4.227209   3.688072   2.405843   2.772395   2.417490
    16  C    2.835261   2.448571   1.400194   2.422157   2.814740
    17  H    1.096877   2.008749   3.261823   4.333757   5.626132
    18  H    1.102931   2.089654   2.728465   4.023889   5.068972
    19  H    1.102936   2.089924   2.725953   4.014195   5.060907
    20  H    3.918122   2.511664   2.144778   1.091481   2.165699
    21  H    6.949604   5.849656   4.655351   3.718172   2.511261
    22  H    8.034511   6.801214   5.669831   4.487191   3.259023
    23  H    7.423894   6.158211   5.211881   4.000004   3.138475
    24  H    5.477418   4.285334   3.611469   2.706033   2.650965
    25  H    7.200254   6.044493   5.759564   4.860006   4.978421
    26  H    9.053939   7.757697   7.450350   6.276814   6.209814
    27  H    9.464857   8.065985   7.554150   6.190271   5.829310
    28  H    8.226730   6.842488   6.076257   4.690147   4.031210
    29  H    6.113732   5.244783   3.886400   3.406013   2.166256
    30  H    4.893932   4.587680   3.394148   3.864117   3.404987
    31  H    2.562420   2.753231   2.177205   3.418566   3.904385
                    6          7          8          9         10
     6  N    0.000000
     7  C    1.450710   0.000000
     8  C    1.400902   2.447437   0.000000
     9  C    2.452661   3.732323   1.408579   0.000000
    10  C    3.720377   4.856159   2.431685   1.391221   0.000000
    11  C    4.223821   5.059071   2.823248   2.424242   1.396645
    12  C    3.708860   4.200561   2.432150   2.783205   2.402877
    13  C    2.431081   2.818120   1.405661   2.415936   2.782844
    14  C    2.443996   3.002439   3.630207   4.033407   5.418957
    15  C    3.711194   4.329581   4.806335   4.978199   6.329652
    16  C    4.226426   5.082958   5.126726   5.099414   6.362125
    17  H    6.768736   7.865186   7.111165   6.718079   7.496822
    18  H    6.365120   7.487335   6.829345   6.351407   7.261334
    19  H    6.350635   7.237167   7.030335   6.892574   7.926303
    20  H    2.681487   3.883484   2.834147   2.880248   3.897485
    21  H    2.085499   1.094794   3.353483   4.504691   5.739416
    22  H    2.114058   1.101585   2.714104   3.941365   4.913245
    23  H    2.123340   1.103508   2.826884   4.210909   5.193912
    24  H    2.693847   4.092477   2.166343   1.090275   2.151682
    25  H    4.597907   5.822346   3.415844   2.148081   1.092217
    26  H    5.316084   6.120218   3.915528   3.414909   2.167045
    27  H    4.580824   4.823861   3.416153   3.875447   3.396128
    28  H    2.667463   2.474937   2.168417   3.410822   3.873353
    29  H    2.678377   2.817139   3.883452   4.429377   5.774309
    30  H    4.590225   5.022364   5.727385   5.906243   7.248663
    31  H    5.316069   6.140808   6.195434   6.083841   7.296261
                   11         12         13         14         15
    11  C    0.000000
    12  C    1.393309   0.000000
    13  C    2.423993   1.394492   0.000000
    14  C    6.301115   6.049338   4.848617   0.000000
    15  C    7.351647   7.236597   6.092175   1.391033   0.000000
    16  C    7.456810   7.477822   6.440359   2.429364   1.394532
    17  H    8.546606   8.865706   8.220049   6.020089   5.291511
    18  H    8.469080   8.836165   8.109349   5.126827   4.182792
    19  H    8.973135   9.087208   8.202515   5.118367   4.172845
[...]
    17  H    0.000000   0.000001  -0.000001   0.000000  -0.000000  -0.000000
    18  H   -0.000000   0.000006  -0.000010  -0.000000  -0.000000   0.000000
    19  H    0.000001  -0.000005   0.000006   0.000000   0.000000  -0.000000
    20  H    0.000249  -0.000187   0.001529  -0.000080   0.000031  -0.000155
    21  H    0.407117   0.007071  -0.000506   0.000064  -0.000020   0.000119
    22  H    0.413322  -0.005772   0.001076   0.000023  -0.000302   0.001667
    23  H    0.407062  -0.005231  -0.000726  -0.000147   0.000142  -0.001150
    24  H   -0.000164  -0.048191   0.433351  -0.040051   0.007452  -0.001985
    25  H    0.000016   0.013233  -0.056152   0.440534  -0.057620   0.010929
    26  H   -0.000001  -0.003608   0.012175  -0.059587   0.446218  -0.058961
    27  H   -0.000025   0.012940  -0.002713   0.009984  -0.054637   0.436287
    28  H    0.005163  -0.058007   0.003177  -0.000385   0.005563  -0.023473
    29  H   -0.002763   0.000790  -0.000040   0.000012   0.000000  -0.000004
    30  H    0.000019  -0.000019   0.000006   0.000000  -0.000000   0.000000
    31  H    0.000001   0.000009   0.000006  -0.000001   0.000000  -0.000000
              13         14         15         16         17         18
     1  C   -0.000002   0.002051  -0.005747   0.018498   0.401104   0.413465
     2  O    0.000009  -0.001415   0.009505  -0.091891  -0.030516  -0.041542
     3  C   -0.001519  -0.092934   0.091133   0.194287   0.006612  -0.015007
     4  C    0.004481   0.013465  -0.077537   0.078991  -0.000416   0.000132
     5  C   -0.001126   0.426791   0.005555  -0.135134   0.000111  -0.000013
     6  N   -0.091302  -0.041355   0.004869   0.000321  -0.000000  -0.000001
     7  C   -0.007304  -0.007087   0.000298   0.000346   0.000000  -0.000000
     8  C    0.378921  -0.011754  -0.000565   0.001199   0.000001   0.000006
     9  C    0.018897   0.008144  -0.000177   0.000440  -0.000001  -0.000010
    10  C   -0.070416   0.000043  -0.000003  -0.000053   0.000000  -0.000000
    11  C    0.014610   0.000055  -0.000002   0.000006  -0.000000  -0.000000
    12  C    0.442762  -0.000010  -0.000002  -0.000009  -0.000000   0.000000
    13  C    5.212382   0.000146   0.000035   0.000158   0.000000   0.000000
    14  C    0.000146   5.105048   0.441189   0.072807  -0.000072  -0.000041
    15  C    0.000035   0.441189   4.938705   0.304864   0.000348  -0.000515
    16  C    0.000158   0.072807   0.304864   5.423377  -0.002079   0.010636
    17  H    0.000000  -0.000072   0.000348  -0.002079   0.522867  -0.019853
    18  H    0.000000  -0.000041  -0.000515   0.010636  -0.019853   0.586909
    19  H   -0.000000   0.000386  -0.001593   0.013053  -0.019427  -0.056190
    20  H    0.001862   0.012909  -0.006340   0.019282  -0.000218   0.000079
    21  H    0.000661  -0.002733   0.000072  -0.000297   0.000000   0.000000
    22  H   -0.004535  -0.000478  -0.000157  -0.000068  -0.000000   0.000000
    23  H    0.008068   0.003022   0.000087   0.000145   0.000000   0.000000
    24  H    0.007536   0.000232   0.000230   0.000326  -0.000000   0.000003
    25  H   -0.003465  -0.000011   0.000003  -0.000005   0.000000  -0.000000
    26  H    0.012804   0.000000  -0.000000   0.000000  -0.000000  -0.000000
    27  H   -0.054709   0.000000   0.000000   0.000000   0.000000  -0.000000
    28  H    0.430544  -0.000075   0.000007   0.000001  -0.000000  -0.000000
    29  H   -0.000030   0.429828  -0.035159   0.010863  -0.000000  -0.000001
    30  H   -0.000002  -0.048530   0.429807  -0.048507   0.000002  -0.000020
    31  H    0.000001   0.006442  -0.024478   0.432823  -0.000240   0.000116
              19         20         21         22         23         24
     1  C    0.414255  -0.000075  -0.000000   0.000000  -0.000001   0.000002
     2  O   -0.041843   0.009301   0.000002  -0.000000  -0.000000  -0.000016
     3  C   -0.017118  -0.060801   0.000709   0.000300  -0.001417  -0.000798
     4  C    0.000684   0.439515  -0.001093  -0.002134   0.006300  -0.002502
     5  C   -0.000486  -0.051015  -0.008650   0.014290  -0.007458   0.001258
     6  N    0.000002  -0.006498  -0.025675  -0.043673  -0.053488  -0.002923
     7  C    0.000001   0.000249   0.407117   0.413322   0.407062  -0.000164
     8  C   -0.000005  -0.000187   0.007071  -0.005772  -0.005231  -0.048191
     9  C    0.000006   0.001529  -0.000506   0.001076  -0.000726   0.433351
    10  C    0.000000  -0.000080   0.000064   0.000023  -0.000147  -0.040051
    11  C    0.000000   0.000031  -0.000020  -0.000302   0.000142   0.007452
    12  C   -0.000000  -0.000155   0.000119   0.001667  -0.001150  -0.001985
    13  C   -0.000000   0.001862   0.000661  -0.004535   0.008068   0.007536
    14  C    0.000386   0.012909  -0.002733  -0.000478   0.003022   0.000232
    15  C   -0.001593  -0.006340   0.000072  -0.000157   0.000087   0.000230
    16  C    0.013053   0.019282  -0.000297  -0.000068   0.000145   0.000326
    17  H   -0.019427  -0.000218   0.000000  -0.000000   0.000000  -0.000000
    18  H   -0.056190   0.000079   0.000000   0.000000   0.000000   0.000003
    19  H    0.585794   0.000190  -0.000000  -0.000000  -0.000000  -0.000000
    20  H    0.000190   0.494222  -0.000192  -0.000077   0.000622  -0.000653
    21  H   -0.000000  -0.000192   0.519018  -0.011705  -0.026837  -0.000027
    22  H   -0.000000  -0.000077  -0.011705   0.555590  -0.048652  -0.000014
    23  H   -0.000000   0.000622  -0.026837  -0.048652   0.590061   0.000032
    24  H   -0.000000  -0.000653  -0.000027  -0.000014   0.000032   0.508264
    25  H   -0.000000  -0.000010  -0.000000   0.000000  -0.000000  -0.007165
    26  H    0.000000   0.000002  -0.000000  -0.000000   0.000001  -0.000101
    27  H    0.000000  -0.000001  -0.000001  -0.000016  -0.000000   0.000032
    28  H    0.000000   0.000026   0.000398  -0.007569   0.003518  -0.000153
    29  H    0.000003  -0.000053  -0.003202  -0.000726   0.000687  -0.000050
    30  H   -0.000029   0.000008   0.000030   0.000006  -0.000009  -0.000004
    31  H    0.000326   0.000041  -0.000002  -0.000000   0.000001   0.000005
              25         26         27         28         29         30
     1  C    0.000000  -0.000000  -0.000000  -0.000000  -0.000000  -0.000136
     2  O   -0.000000   0.000000  -0.000000   0.000000   0.000007  -0.000071
     3  C    0.000024  -0.000000  -0.000000  -0.000017  -0.003676   0.008699
     4  C   -0.000087   0.000001  -0.000004   0.000350   0.009678  -0.002572
     5  C    0.000090   0.000001   0.000027  -0.001354  -0.057477   0.012034
     6  N   -0.000158   0.000019  -0.000115  -0.004936   0.006667  -0.000230
     7  C    0.000016  -0.000001  -0.000025   0.005163  -0.002763   0.000019
     8  C    0.013233  -0.003608   0.012940  -0.058007   0.000790  -0.000019
     9  C   -0.056152   0.012175  -0.002713   0.003177  -0.000040   0.000006
    10  C    0.440534  -0.059587   0.009984  -0.000385   0.000012   0.000000
    11  C   -0.057620   0.446218  -0.054637   0.005563   0.000000  -0.000000
    12  C    0.010929  -0.058961   0.436287  -0.023473  -0.000004   0.000000
    13  C   -0.003465   0.012804  -0.054709   0.430544  -0.000030  -0.000002
    14  C   -0.000011   0.000000   0.000000  -0.000075   0.429828  -0.048530
    15  C    0.000003  -0.000000   0.000000   0.000007  -0.035159   0.429807
    16  C   -0.000005   0.000000   0.000000   0.000001   0.010863  -0.048507
    17  H    0.000000  -0.000000   0.000000  -0.000000  -0.000000   0.000002
    18  H   -0.000000  -0.000000  -0.000000  -0.000000  -0.000001  -0.000020
    19  H   -0.000000   0.000000   0.000000   0.000000   0.000003  -0.000029
    20  H   -0.000010   0.000002  -0.000001   0.000026  -0.000053   0.000008
    21  H   -0.000000  -0.000000  -0.000001   0.000398  -0.003202   0.000030
    22  H    0.000000  -0.000000  -0.000016  -0.007569  -0.000726   0.000006
    23  H   -0.000000   0.000001  -0.000000   0.003518   0.000687  -0.000009
    24  H   -0.007165  -0.000101   0.000032  -0.000153  -0.000050  -0.000004
    25  H    0.551557  -0.006961  -0.000178   0.000039  -0.000000   0.000000
    26  H   -0.006961   0.552432  -0.006996  -0.000150   0.000000  -0.000000
    27  H   -0.000178  -0.006996   0.553255  -0.006694   0.000000  -0.000000
    28  H    0.000039  -0.000150  -0.006694   0.524665   0.000003  -0.000000
    29  H   -0.000000   0.000000   0.000000   0.000003   0.513514  -0.006886
    30  H    0.000000  -0.000000  -0.000000  -0.000000  -0.006886   0.541897
    31  H   -0.000000   0.000000   0.000000   0.000000  -0.000092  -0.005067
              31
     1  C    0.008934
     2  O   -0.005760
     3  C   -0.063006
     4  C    0.006693
     5  C   -0.001958
     6  N    0.000001
     7  C    0.000001
     8  C    0.000009
     9  C    0.000006
    10  C   -0.000001
    11  C    0.000000
    12  C   -0.000000
    13  C    0.000001
    14  C    0.006442
    15  C   -0.024478
    16  C    0.432823
    17  H   -0.000240
    18  H    0.000116
    19  H    0.000326
    20  H    0.000041
    21  H   -0.000002
    22  H   -0.000000
    23  H    0.000001
    24  H    0.000005
    25  H   -0.000000
    26  H    0.000000
    27  H    0.000000
    28  H    0.000000
    29  H   -0.000092
    30  H   -0.005067
    31  H    0.512390
 Mulliken charges:
               1
     1  C   -0.212393
     2  O   -0.280122
     3  C    0.431009
     4  C   -0.409483
     5  C    0.262268
     6  N   -0.060296
     7  C   -0.313184
     8  C    0.231245
     9  C   -0.249722
    10  C   -0.090556
    11  C   -0.166762
    12  C   -0.098004
    13  C   -0.299469
    14  C   -0.316060
    15  C   -0.074435
    16  C   -0.304381
    17  H    0.141777
    18  H    0.121849
    19  H    0.121993
    20  H    0.146486
    21  H    0.145679
    22  H    0.139604
    23  H    0.125369
    24  H    0.146075
    25  H    0.115386
    26  H    0.112711
    27  H    0.113564
    28  H    0.129358
    29  H    0.138106
    30  H    0.119574
    31  H    0.132816
 Sum of Mulliken charges =   0.00000
 Mulliken charges with hydrogens summed into heavy atoms:
               1
     1  C    0.173225
     2  O   -0.280122
     3  C    0.431009
     4  C   -0.262997
     5  C    0.262268
     6  N   -0.060296
     7  C    0.097468
     8  C    0.231245
     9  C   -0.103648
    10  C    0.024831
    11  C   -0.054051
    12  C    0.015559
    13  C   -0.170111
    14  C   -0.177954
    15  C    0.045139
    16  C   -0.171565
 Electronic spatial extent (au):  <R**2>=           4284.8072
 Charge=              0.0000 electrons
 Dipole moment (field-independent basis, Debye):
    X=              2.0764    Y=              0.7032    Z=             -0.1721  Tot=              2.1990
 Quadrupole moment (field-independent basis, Debye-Ang):
   XX=            -82.3321   YY=            -88.3695   ZZ=            -95.9087
   XY=             -3.8896   XZ=              4.1086   YZ=             -1.8795
 Traceless Quadrupole moment (field-independent basis, Debye-Ang):
   XX=              6.5380   YY=              0.5006   ZZ=             -7.0386
   XY=             -3.8896   XZ=              4.1086   YZ=             -1.8795
 Octapole moment (field-independent basis, Debye-Ang**2):
  XXX=             73.4213  YYY=              2.5484  ZZZ=             -7.3170  XYY=              8.0482
  XXY=            -28.6657  XXZ=            -12.8946  XZZ=              5.8759  YZZ=             -0.6702
  YYZ=              5.5680  XYZ=             15.7413
 Hexadecapole moment (field-independent basis, Debye-Ang**3):
 XXXX=          -3811.6229 YYYY=          -1208.6120 ZZZZ=           -433.0848 XXXY=            -90.7381
 XXXZ=             59.6903 YYYX=            -54.9176 YYYZ=              5.0185 ZZZX=             -3.7235
 ZZZY=             -2.1750 XXYY=           -828.5778 XXZZ=           -776.1741 YYZZ=           -262.9705
 XXYZ=              9.6331 YYXZ=            -10.4032 ZZXY=            -11.2032
 N-N= 1.029577245324D+03 E-N=-3.622535282762D+03  KE= 6.688021662460D+02
 Breneman (CHELPG) radii used.
 Read replacement radii for each type of atom:
 Atom Element Radius
    1     6    1.50
    2     8    1.70
    3     6    1.50
    4     6    1.50
    5     6    1.50
    6     7    1.70
    7     6    1.50
    8     6    1.50
    9     6    1.50
   10     6    1.50
   11     6    1.50
   12     6    1.50
   13     6    1.50
   14     6    1.50
   15     6    1.50
   16     6    1.50
   17     1    1.45
   18     1    1.45
   19     1    1.45
   20     1    1.45
   21     1    1.45
   22     1    1.45
   23     1    1.45
   24     1    1.45
   25     1    1.45
   26     1    1.45
   27     1    1.45
   28     1    1.45
   29     1    1.45
   30     1    1.45
   31     1    1.45
 Generate Potential Derived Charges using the Breneman model, NDens= 1.
 Grid spacing= 0.300 Box extension= 2.800
 NStep X,Y,Z=   52     40     32   Total possible points=       66560
 Number of Points to Fit=   18965

 **********************************************************************

            Electrostatic Properties Using The SCF Density.

 **********************************************************************

       Atomic Center    1 is at   4.237055 -1.946056 -0.589479
       Atomic Center    2 is at   2.887909 -1.610770 -0.759888
       Atomic Center    3 is at   2.421911 -0.466698 -0.215488
       Atomic Center    4 is at   1.070031 -0.187550 -0.449892
       Atomic Center    5 is at   0.479372  0.961672  0.073732
       Atomic Center    6 is at  -0.886607  1.249536 -0.170912
       Atomic Center    7 is at  -1.196195  2.456160 -0.906875
       Atomic Center    8 is at  -1.870635  0.272002 -0.014140
       Atomic Center    9 is at  -1.698951 -0.782657  0.906030
       Atomic Center   10 is at  -2.691338 -1.736500  1.086145
       Atomic Center   11 is at  -3.890034 -1.671148  0.372104
       Atomic Center   12 is at  -4.073102 -0.627187 -0.528423
       Atomic Center   13 is at  -3.081093  0.333109 -0.726993
       Atomic Center   14 is at   1.257764  1.853018  0.829221
       Atomic Center   15 is at   2.603425  1.582256  1.037756
       Atomic Center   16 is at   3.200299  0.426961  0.528648
       Atomic Center   17 is at   4.393088 -2.897854 -1.111704
       Atomic Center   18 is at   4.496215 -2.078194  0.475706
       Atomic Center   19 is at   4.907810 -1.185706 -1.026831
       Atomic Center   20 is at   0.487414 -0.893431 -1.043456
       Atomic Center   21 is at  -0.375063  3.173396 -0.790788
       Atomic Center   22 is at  -2.116807  2.923475 -0.524030
       Atomic Center   23 is at  -1.326325  2.270502 -1.990183
       Atomic Center   24 is at  -0.777979 -0.844341  1.487248
       Atomic Center   25 is at  -2.528271 -2.540654  1.807709
       Atomic Center   26 is at  -4.668004 -2.422123  0.520677
       Atomic Center   27 is at  -5.001993 -0.553441 -1.099133
       Atomic Center   28 is at  -3.256893  1.127903 -1.451551
       Atomic Center   29 is at   0.795627  2.743029  1.259754
       Atomic Center   30 is at   3.207270  2.275768  1.627325
       Atomic Center   31 is at   4.255841  0.236801  0.720677
   18965 points will be used for fitting atomic charges
 Fitting point charges to electrostatic potential
 Charges from ESP fit, RMS=   0.00372 RRMS=   0.32538:
 ESP charges:
               1
     1  C    0.109621
     2  O   -0.342129
     3  C    0.401102
     4  C   -0.329351
     5  C    0.416383
     6  N   -0.441011
     7  C    0.075326
     8  C    0.388702
     9  C   -0.233677
    10  C   -0.047244
    11  C   -0.163743
    12  C   -0.081348
    13  C   -0.238727
    14  C   -0.326361
    15  C   -0.030834
    16  C   -0.311596
    17  H    0.056933
    18  H    0.021002
    19  H    0.013820
    20  H    0.117626
    21  H    0.029665
    22  H    0.023315
    23  H    0.016881
    24  H    0.084613
    25  H    0.093338
    26  H    0.094922
    27  H    0.096357
    28  H    0.116976
    29  H    0.150645
    30  H    0.099594
    31  H    0.139200
 Sum of ESP charges =   0.00000
 ESP charges with hydrogens summed into heavy atoms:
               1
     1  C    0.201376
     2  O   -0.342129
     3  C    0.401102
     4  C   -0.211724
     5  C    0.416383
     6  N   -0.441011
     7  C    0.145187
     8  C    0.388702
     9  C   -0.149064
    10  C    0.046094
    11  C   -0.068821
    12  C    0.015009
    13  C   -0.121751
    14  C   -0.175715
    15  C    0.068760
    16  C   -0.172396
 Charge=   0.00000 Dipole=     2.0151     0.7657    -0.1175 Tot=     2.1589
 -----------------------------------------------------------------

              Electrostatic Properties (Atomic Units)

 -----------------------------------------------------------------
    Center     Electric         -------- Electric Field --------
               Potential          X             Y             Z
 -----------------------------------------------------------------
    1 Atom    -14.711579
    2 Atom    -22.323365
    3 Atom    -14.704766
    4 Atom    -14.776311
    5 Atom    -14.726090
    6 Atom    -18.361752
    7 Atom    -14.737518
    8 Atom    -14.730327
    9 Atom    -14.781886
   10 Atom    -14.777083
   11 Atom    -14.785179
   12 Atom    -14.776383
   13 Atom    -14.779930
   14 Atom    -14.775518
   15 Atom    -14.763957
   16 Atom    -14.770822
   17 Atom     -1.102472
   18 Atom     -1.104123
   19 Atom     -1.104014
   20 Atom     -1.104101
   21 Atom     -1.106080
   22 Atom     -1.112216
   23 Atom     -1.116695
   24 Atom     -1.115847
   25 Atom     -1.116525
   26 Atom     -1.118985
   27 Atom     -1.115573
   28 Atom     -1.111648
   29 Atom     -1.105272
   30 Atom     -1.104657
   31 Atom     -1.098463
 -----------------------------------------------------------------
 Unable to Open any file for archive entry.
 1\1\GINC-NOTCH479\SP\RwB97XD\def2TZVP\C14H15N1O1\U1366379\17-Feb-2026\
 0\\#N Guess=Read Geom=Check Integral(Ultrafine) Density Pop=(ChelpG,Re
 adRadii) NMR wB97XD def2TZVP\\prod_5g_4\\0,1\C,0,-3.8971299769,2.56170
 24828,-0.5476291589\O,0,-2.6076811946,2.0393844344,-0.7093498109\C,0,-
 2.3309689221,0.8111897794,-0.2221184443\C,0,-1.028714893,0.3473382192,
 -0.4444354089\C,0,-0.6289111407,-0.9033424506,0.0243158516\N,0,0.68629
 4117,-1.3773444037,-0.2084336857\C,0,0.8359674411,-2.5752370735,-1.005
 9780328\C,0,1.7985478441,-0.5666811309,0.024328874\C,0,1.7575593336,0.
 4507673305,0.9998355948\C,0,2.8739208194,1.2355397704,1.2547085483\C,0
 ,4.0699746329,1.0313399907,0.5627872629\C,0,4.1232271159,0.0217075213,
 -0.3922641654\C,0,3.0068214875,-0.7684998864,-0.6659220177\C,0,-1.5513
 969981,-1.7084887626,0.7112763514\C,0,-2.847992209,-1.2524517616,0.907
 4181343\C,0,-3.2534641991,0.0043682898,0.4533774609\H,0,-3.8963151767,
 3.5528022679,-1.0174208584\H,0,-4.1645366053,2.6734111344,0.5178562038
 \H,0,-4.6596253357,1.9340475218,-1.0415638155\H,0,-0.331740105,0.98972
 38998,-0.9844308325\H,0,-0.0847703737,-3.1677366981,-0.9481078594\H,0,
 1.666392546,-3.194016113,-0.6318302222\H,0,1.0230921915,-2.3530000502,
 -2.0739458939\H,0,0.8393679845,0.6172318127,1.5646562514\H,0,2.8102957
 694,2.0150258526,2.0177697996\H,0,4.9453938665,1.6493373628,0.77013787
 71\H,0,5.0471711169,-0.1584091034,-0.9471276271\H,0,3.084498648,-1.540
 4743897,-1.431172219\H,0,-1.2378398303,-2.6791178929,1.0993628869\H,0,
 -3.5640200613,-1.8792561609,1.4437022231\H,0,-4.2746078927,0.338608207
 1,0.6343567327\\Version=ES64L-G16RevC.01\State=1-A\HF=-672.4936793\RMS
 D=1.145e-09\Dipole=-0.8464402,-0.1482079,-0.1002071\Quadrupole=4.07554
 92,1.1062142,-5.1817634,-3.3293054,-2.7309587,2.0825487\PG=C01 [X(C14H
 15N1O1)]\\@
 The archive entry for this job was punched.


 THE ONLY DIFFERENCE BETWEEN ECCENTRICS AND JOGGERS
 IS THAT JOGGERS WEAR SWEATBANDS WHEN THEY RUN IN THE RAIN.
 Job cpu time:       0 days  0 hours 55 minutes 37.0 seconds.
 Elapsed time:       0 days  0 hours  7 minutes  9.7 seconds.
 File lengths (MBytes):  RWF=    209 Int=      0 D2E=      0 Chk=     32 Scr=      2
 Normal termination of Gaussian 16 at Tue Feb 17 16:20:57 2026.
