 Entering Gaussian System, Link 0=g16
 Input=prod_5a_1.com
 Output=prod_5a_1.log
 Initial command:
 /uufs/chpc.utah.edu/sys/installdir/gaussian16/C01/AVX/g16/l1.exe "/scratch/general/vast/u1366379/GAUSSSCRDIR/11028627-notchpeak.peaks/Gau-2467813.inp" -scrdir="/scratch/general/vast/u1366379/GAUSSSCRDIR/11028627-notchpeak.peaks/"
 Entering Link 1 = /uufs/chpc.utah.edu/sys/installdir/gaussian16/C01/AVX/g16/l1.exe PID=   2467818.
  
 Copyright (c) 1988-2019, Gaussian, Inc.  All Rights Reserved.
  
 This is part of the Gaussian(R) 16 program.  It is based on
 the Gaussian(R) 09 system (copyright 2009, Gaussian, Inc.),
 the Gaussian(R) 03 system (copyright 2003, Gaussian, Inc.),
 the Gaussian(R) 98 system (copyright 1998, Gaussian, Inc.),
 the Gaussian(R) 94 system (copyright 1995, Gaussian, Inc.),
 the Gaussian 92(TM) system (copyright 1992, Gaussian, Inc.),
 the Gaussian 90(TM) system (copyright 1990, Gaussian, Inc.),
 the Gaussian 88(TM) system (copyright 1988, Gaussian, Inc.),
 the Gaussian 86(TM) system (copyright 1986, Carnegie Mellon
 University), and the Gaussian 82(TM) system (copyright 1983,
 Carnegie Mellon University). Gaussian is a federally registered
 trademark of Gaussian, Inc.
  
 This software contains proprietary and confidential information,
 including trade secrets, belonging to Gaussian, Inc.
  
 This software is provided under written license and may be
 used, copied, transmitted, or stored only in accord with that
 written license.
  
 The following legend is applicable only to US Government
 contracts under FAR:
  
                    RESTRICTED RIGHTS LEGEND
  
 Use, reproduction and disclosure by the US Government is
 subject to restrictions as set forth in subparagraphs (a)
 and (c) of the Commercial Computer Software - Restricted
 Rights clause in FAR 52.227-19.
  
 Gaussian, Inc.
 340 Quinnipiac St., Bldg. 40, Wallingford CT 06492
  
  
 ---------------------------------------------------------------
 Warning -- This program may not be used in any manner that
 competes with the business of Gaussian, Inc. or will provide
 assistance to any competitor of Gaussian, Inc.  The licensee
 of this program is prohibited from giving any competitor of
 Gaussian, Inc. access to this program.  By using this program,
 the user acknowledges that Gaussian, Inc. is engaged in the
 business of creating and licensing software in the field of
 computational chemistry and represents and warrants to the
 licensee that it is not a competitor of Gaussian, Inc. and that
 it will not use this program in any manner prohibited above.
 ---------------------------------------------------------------
  

 Cite this work as:
 Gaussian 16, Revision C.01,
 M. J. Frisch, G. W. Trucks, H. B. Schlegel, G. E. Scuseria, 
 M. A. Robb, J. R. Cheeseman, G. Scalmani, V. Barone, 
 G. A. Petersson, H. Nakatsuji, X. Li, M. Caricato, A. V. Marenich, 
 J. Bloino, B. G. Janesko, R. Gomperts, B. Mennucci, H. P. Hratchian, 
 J. V. Ortiz, A. F. Izmaylov, J. L. Sonnenberg, D. Williams-Young, 
 F. Ding, F. Lipparini, F. Egidi, J. Goings, B. Peng, A. Petrone, 
 T. Henderson, D. Ranasinghe, V. G. Zakrzewski, J. Gao, N. Rega, 
 G. Zheng, W. Liang, M. Hada, M. Ehara, K. Toyota, R. Fukuda, 
 J. Hasegawa, M. Ishida, T. Nakajima, Y. Honda, O. Kitao, H. Nakai, 
 T. Vreven, K. Throssell, J. A. Montgomery, Jr., J. E. Peralta, 
 F. Ogliaro, M. J. Bearpark, J. J. Heyd, E. N. Brothers, K. N. Kudin, 
 V. N. Staroverov, T. A. Keith, R. Kobayashi, J. Normand, 
 K. Raghavachari, A. P. Rendell, J. C. Burant, S. S. Iyengar, 
 J. Tomasi, M. Cossi, J. M. Millam, M. Klene, C. Adamo, R. Cammi, 
 J. W. Ochterski, R. L. Martin, K. Morokuma, O. Farkas, 
 J. B. Foresman, and D. J. Fox, Gaussian, Inc., Wallingford CT, 2019.
 
 ******************************************
 Gaussian 16:  ES64L-G16RevC.01  3-Jul-2019
                17-Feb-2026 
 ******************************************
 %NProcShared=8
 Will use up to    8 processors via shared memory.
 %Mem=8GB
 %chk=prod_5a_1.chk
 ------------------------------------------------------
 #N OPT FREQ=NORAMAN Integral(Ultrafine) wB97XD def2SVP
 ------------------------------------------------------
 1/18=20,19=15,26=4,38=1/1,3;
 2/9=110,12=2,17=6,18=5,40=1/2;
 3/5=43,7=101,11=2,25=1,30=1,71=1,74=-58,75=-5/1,2,3;
 4//1;
 5/5=2,38=5/2;
 6/7=2,8=2,9=2,10=2,28=1/1;
 7//1,2,3,16;
 1/18=20,19=15,26=4/3(2);
 2/9=110/2;
 99//99;
 2/9=110/2;
 3/5=43,7=101,11=2,25=1,30=1,71=1,74=-58,75=-5/1,2,3;
 4/5=5,16=3,69=1/1;
 5/5=2,38=5/2;
 7//1,2,3,16;
 1/18=20,19=15,26=4/3(-5);
 2/9=110/2;
 6/7=2,8=2,9=2,10=2,19=2,28=1/1;
 99/9=1/99;
 ---------
 prod_5a_1
 ---------
 Symbolic Z-matrix:
 Charge =  0 Multiplicity = 1
 C                    -0.03374  -2.49726   0.17297 
 N                    -0.01897  -1.03917   0.05719 
 C                    -1.25714  -0.33581  -0.0129 
 C                    -1.3024    0.96291  -0.51978 
 C                    -2.49236   1.64995  -0.60466 
 C                    -3.66665   1.05449  -0.18807 
 C                    -3.64415  -0.23343   0.31034 
 C                    -2.45503  -0.92313   0.39545 
 C                     1.24592  -0.36423   0.05403 
 C                     1.44657   0.76893   0.84248 
 C                     2.66026   1.41847   0.84712 
 C                     3.69915   0.95071   0.06585 
 C                     3.51866  -0.17066  -0.72079 
 C                     2.30632  -0.82353  -0.72758 
 H                    -0.43068  -2.79157   1.14268 
 H                     0.97199  -2.90321   0.08734 
 H                    -0.65034  -2.92999  -0.61285 
 H                    -0.39085   1.41963  -0.86282 
 H                    -2.50807   2.65283  -0.99943 
 H                    -4.59841   1.59231  -0.25413 
 H                    -4.56053  -0.69979   0.63392 
 H                    -2.44631  -1.92356   0.78975 
 H                     0.63825   1.12008   1.46005 
 H                     2.80086   2.29195   1.46281 
 H                     4.64902   1.46012   0.06969 
 H                     4.32812  -0.53325  -1.33331 
 H                     2.15759  -1.68197  -1.35892 
 

 GradGradGradGradGradGradGradGradGradGradGradGradGradGradGradGradGradGrad
 Berny optimization.
 Initialization pass.
                           ----------------------------
                           !    Initial Parameters    !
                           ! (Angstroms and Degrees)  !
 --------------------------                            --------------------------
 ! Name  Definition              Value          Derivative Info.                !
 --------------------------------------------------------------------------------
 ! R1    R(1,2)                  1.4628         estimate D2E/DX2                !
 ! R2    R(1,15)                 1.0884         estimate D2E/DX2                !
 ! R3    R(1,16)                 1.0879         estimate D2E/DX2                !
 ! R4    R(1,17)                 1.0886         estimate D2E/DX2                !
 ! R5    R(2,3)                  1.4257         estimate D2E/DX2                !
 ! R6    R(2,9)                  1.4337         estimate D2E/DX2                !
 ! R7    R(3,4)                  1.3949         estimate D2E/DX2                !
 ! R8    R(3,8)                  1.3952         estimate D2E/DX2                !
 ! R9    R(4,5)                  1.3767         estimate D2E/DX2                !
 ! R10   R(4,18)                 1.0757         estimate D2E/DX2                !
 ! R11   R(5,6)                  1.381          estimate D2E/DX2                !
 ! R12   R(5,19)                 1.0779         estimate D2E/DX2                !
 ! R13   R(6,7)                  1.3812         estimate D2E/DX2                !
 ! R14   R(6,20)                 1.0779         estimate D2E/DX2                !
 ! R15   R(7,8)                  1.3773         estimate D2E/DX2                !
 ! R16   R(7,21)                 1.0779         estimate D2E/DX2                !
 ! R17   R(8,22)                 1.0754         estimate D2E/DX2                !
 ! R18   R(9,10)                 1.395          estimate D2E/DX2                !
 ! R19   R(9,14)                 1.3951         estimate D2E/DX2                !
 ! R20   R(10,11)                1.3766         estimate D2E/DX2                !
 ! R21   R(10,23)                1.0761         estimate D2E/DX2                !
 ! R22   R(11,12)                1.3815         estimate D2E/DX2                !
 ! R23   R(11,24)                1.0779         estimate D2E/DX2                !
 ! R24   R(12,13)                1.3816         estimate D2E/DX2                !
 ! R25   R(12,25)                1.0779         estimate D2E/DX2                !
 ! R26   R(13,14)                1.377          estimate D2E/DX2                !
 ! R27   R(13,26)                1.0779         estimate D2E/DX2                !
 ! R28   R(14,27)                1.0759         estimate D2E/DX2                !
 ! A1    A(2,1,15)             110.1062         estimate D2E/DX2                !
 ! A2    A(2,1,16)             110.8781         estimate D2E/DX2                !
 ! A3    A(2,1,17)             110.1719         estimate D2E/DX2                !
 ! A4    A(15,1,16)            107.8412         estimate D2E/DX2                !
 ! A5    A(15,1,17)            109.2146         estimate D2E/DX2                !
 ! A6    A(16,1,17)            108.5712         estimate D2E/DX2                !
 ! A7    A(1,2,3)              119.136          estimate D2E/DX2                !
 ! A8    A(1,2,9)              118.5776         estimate D2E/DX2                !
 ! A9    A(3,2,9)              122.2652         estimate D2E/DX2                !
 ! A10   A(2,3,4)              120.3562         estimate D2E/DX2                !
 ! A11   A(2,3,8)              121.5716         estimate D2E/DX2                !
 ! A12   A(4,3,8)              118.0625         estimate D2E/DX2                !
 ! A13   A(3,4,5)              121.0048         estimate D2E/DX2                !
 ! A14   A(3,4,18)             118.9266         estimate D2E/DX2                !
 ! A15   A(5,4,18)             120.0599         estimate D2E/DX2                !
 ! A16   A(4,5,6)              120.0808         estimate D2E/DX2                !
 ! A17   A(4,5,19)             119.9673         estimate D2E/DX2                !
 ! A18   A(6,5,19)             119.9517         estimate D2E/DX2                !
 ! A19   A(5,6,7)              119.8071         estimate D2E/DX2                !
 ! A20   A(5,6,20)             120.0951         estimate D2E/DX2                !
 ! A21   A(7,6,20)             120.0977         estimate D2E/DX2                !
 ! A22   A(6,7,8)              120.2197         estimate D2E/DX2                !
 ! A23   A(6,7,21)             119.8614         estimate D2E/DX2                !
 ! A24   A(8,7,21)             119.9189         estimate D2E/DX2                !
 ! A25   A(3,8,7)              120.8226         estimate D2E/DX2                !
 ! A26   A(3,8,22)             119.4703         estimate D2E/DX2                !
 ! A27   A(7,8,22)             119.7047         estimate D2E/DX2                !
 ! A28   A(2,9,10)             120.5351         estimate D2E/DX2                !
 ! A29   A(2,9,14)             121.1203         estimate D2E/DX2                !
 ! A30   A(10,9,14)            118.3438         estimate D2E/DX2                !
 ! A31   A(9,10,11)            120.798          estimate D2E/DX2                !
 ! A32   A(9,10,23)            118.7755         estimate D2E/DX2                !
 ! A33   A(11,10,23)           120.4208         estimate D2E/DX2                !
 ! A34   A(10,11,12)           120.0899         estimate D2E/DX2                !
 ! A35   A(10,11,24)           119.9543         estimate D2E/DX2                !
 ! A36   A(12,11,24)           119.9557         estimate D2E/DX2                !
 ! A37   A(11,12,13)           119.9054         estimate D2E/DX2                !
 ! A38   A(11,12,25)           120.0451         estimate D2E/DX2                !
 ! A39   A(13,12,25)           120.0495         estimate D2E/DX2                !
 ! A40   A(12,13,14)           120.1756         estimate D2E/DX2                !
 ! A41   A(12,13,26)           119.8982         estimate D2E/DX2                !
 ! A42   A(14,13,26)           119.9258         estimate D2E/DX2                !
 ! A43   A(9,14,13)            120.6872         estimate D2E/DX2                !
 ! A44   A(9,14,27)            119.1009         estimate D2E/DX2                !
 ! A45   A(13,14,27)           120.1915         estimate D2E/DX2                !
 ! D1    D(15,1,2,3)           -68.0275         estimate D2E/DX2                !
 ! D2    D(15,1,2,9)           110.3371         estimate D2E/DX2                !
 ! D3    D(16,1,2,3)           172.7094         estimate D2E/DX2                !
 ! D4    D(16,1,2,9)            -8.926          estimate D2E/DX2                !
 ! D5    D(17,1,2,3)            52.4934         estimate D2E/DX2                !
 ! D6    D(17,1,2,9)          -129.1421         estimate D2E/DX2                !
 ! D7    D(1,2,3,4)           -160.4994         estimate D2E/DX2                !
 ! D8    D(1,2,3,8)             18.3453         estimate D2E/DX2                !
 ! D9    D(9,2,3,4)             21.1991         estimate D2E/DX2                !
 ! D10   D(9,2,3,8)           -159.9562         estimate D2E/DX2                !
 ! D11   D(1,2,9,10)          -133.7874         estimate D2E/DX2                !
 ! D12   D(1,2,9,14)            45.8784         estimate D2E/DX2                !
 ! D13   D(3,2,9,10)            44.5232         estimate D2E/DX2                !
 ! D14   D(3,2,9,14)          -135.8109         estimate D2E/DX2                !
 ! D15   D(2,3,4,5)            179.4142         estimate D2E/DX2                !
 ! D16   D(2,3,4,18)             0.4788         estimate D2E/DX2                !
 ! D17   D(8,3,4,5)              0.5296         estimate D2E/DX2                !
 ! D18   D(8,3,4,18)          -178.4058         estimate D2E/DX2                !
 ! D19   D(2,3,8,7)           -179.4408         estimate D2E/DX2                !
 ! D20   D(2,3,8,22)             1.1295         estimate D2E/DX2                !
 ! D21   D(4,3,8,7)             -0.5706         estimate D2E/DX2                !
 ! D22   D(4,3,8,22)           179.9998         estimate D2E/DX2                !
 ! D23   D(3,4,5,6)             -0.1606         estimate D2E/DX2                !
 ! D24   D(3,4,5,19)          -179.9814         estimate D2E/DX2                !
 ! D25   D(18,4,5,6)           178.7628         estimate D2E/DX2                !
 ! D26   D(18,4,5,19)           -1.058          estimate D2E/DX2                !
 ! D27   D(4,5,6,7)             -0.1818         estimate D2E/DX2                !
 ! D28   D(4,5,6,20)           179.9804         estimate D2E/DX2                !
 ! D29   D(19,5,6,7)           179.639          estimate D2E/DX2                !
 ! D30   D(19,5,6,20)           -0.1988         estimate D2E/DX2                !
 ! D31   D(5,6,7,8)              0.1403         estimate D2E/DX2                !
 ! D32   D(5,6,7,21)          -179.8774         estimate D2E/DX2                !
 ! D33   D(20,6,7,8)           179.9781         estimate D2E/DX2                !
 ! D34   D(20,6,7,21)           -0.0396         estimate D2E/DX2                !
 ! D35   D(6,7,8,3)              0.244          estimate D2E/DX2                !
 ! D36   D(6,7,8,22)           179.6723         estimate D2E/DX2                !
 ! D37   D(21,7,8,3)          -179.7383         estimate D2E/DX2                !
 ! D38   D(21,7,8,22)           -0.31           estimate D2E/DX2                !
 ! D39   D(2,9,10,11)          179.7738         estimate D2E/DX2                !
 ! D40   D(2,9,10,23)            0.6372         estimate D2E/DX2                !
 ! D41   D(14,9,10,11)           0.0989         estimate D2E/DX2                !
 ! D42   D(14,9,10,23)        -179.0378         estimate D2E/DX2                !
 ! D43   D(2,9,14,13)         -179.8065         estimate D2E/DX2                !
 ! D44   D(2,9,14,27)            1.8332         estimate D2E/DX2                !
 ! D45   D(10,9,14,13)          -0.1335         estimate D2E/DX2                !
 ! D46   D(10,9,14,27)        -178.4938         estimate D2E/DX2                !
 ! D47   D(9,10,11,12)          -0.032          estimate D2E/DX2                !
 ! D48   D(9,10,11,24)        -179.8983         estimate D2E/DX2                !
 ! D49   D(23,10,11,12)        179.0904         estimate D2E/DX2                !
 ! D50   D(23,10,11,24)         -0.7758         estimate D2E/DX2                !
 ! D51   D(10,11,12,13)         -0.0028         estimate D2E/DX2                !
 ! D52   D(10,11,12,25)        179.9719         estimate D2E/DX2                !
 ! D53   D(24,11,12,13)        179.8634         estimate D2E/DX2                !
 ! D54   D(24,11,12,25)         -0.1618         estimate D2E/DX2                !
 ! D55   D(11,12,13,14)         -0.0318         estimate D2E/DX2                !
 ! D56   D(11,12,13,26)        179.7583         estimate D2E/DX2                !
 ! D57   D(25,12,13,14)        179.9934         estimate D2E/DX2                !
 ! D58   D(25,12,13,26)         -0.2165         estimate D2E/DX2                !
 ! D59   D(12,13,14,9)           0.1016         estimate D2E/DX2                !
 ! D60   D(12,13,14,27)        178.444          estimate D2E/DX2                !
 ! D61   D(26,13,14,9)        -179.6885         estimate D2E/DX2                !
 ! D62   D(26,13,14,27)         -1.346          estimate D2E/DX2                !
 --------------------------------------------------------------------------------
 Trust Radius=3.00D-01 FncErr=1.00D-07 GrdErr=1.00D-06 EigMax=2.50D+02 EigMin=1.00D-04
 Number of steps in this run=    145 maximum allowed number of steps=    162.
 GradGradGradGradGradGradGradGradGradGradGradGradGradGradGradGradGradGrad

                          Input orientation:                          
 ---------------------------------------------------------------------
 Center     Atomic      Atomic             Coordinates (Angstroms)
 Number     Number       Type             X           Y           Z
 ---------------------------------------------------------------------
      1          6           0       -0.033740   -2.497260    0.172970
      2          7           0       -0.018970   -1.039170    0.057190
      3          6           0       -1.257140   -0.335810   -0.012900
      4          6           0       -1.302400    0.962910   -0.519780
      5          6           0       -2.492360    1.649950   -0.604660
      6          6           0       -3.666650    1.054490   -0.188070
      7          6           0       -3.644150   -0.233430    0.310340
      8          6           0       -2.455030   -0.923130    0.395450
      9          6           0        1.245920   -0.364230    0.054030
     10          6           0        1.446570    0.768930    0.842480
     11          6           0        2.660260    1.418470    0.847120
     12          6           0        3.699150    0.950710    0.065850
     13          6           0        3.518660   -0.170660   -0.720790
     14          6           0        2.306320   -0.823530   -0.727580
     15          1           0       -0.430680   -2.791570    1.142680
     16          1           0        0.971990   -2.903210    0.087340
     17          1           0       -0.650340   -2.929990   -0.612850
     18          1           0       -0.390850    1.419630   -0.862820
     19          1           0       -2.508070    2.652830   -0.999430
     20          1           0       -4.598410    1.592310   -0.254130
     21          1           0       -4.560530   -0.699790    0.633920
     22          1           0       -2.446310   -1.923560    0.789750
     23          1           0        0.638250    1.120080    1.460050
     24          1           0        2.800860    2.291950    1.462810
     25          1           0        4.649020    1.460120    0.069690
     26          1           0        4.328120   -0.533250   -1.333310
     27          1           0        2.157590   -1.681970   -1.358920
 ---------------------------------------------------------------------
                    Distance matrix (angstroms):
                    1          2          3          4          5
     1  C    0.000000
     2  N    1.462754   0.000000
     3  C    2.490607   1.425725   0.000000
     4  C    3.749957   2.447123   1.394865   0.000000
     5  C    4.883531   3.713094   2.412300   1.376675   0.000000
     6  C    5.093458   4.212972   2.787357   2.389162   1.380970
     7  C    4.263667   3.722262   2.410971   2.757557   2.389763
     8  C    2.896554   2.462168   1.395219   2.392352   2.760861
     9  C    2.490280   1.433702   2.504116   2.929931   4.297154
    10  C    3.647953   2.456362   3.043382   3.074120   4.287841
    11  C    4.800527   3.720518   4.377574   4.216471   5.358240
    12  C    5.082759   4.217121   5.121147   5.035734   6.266843
    13  C    4.339518   3.724834   4.830802   4.956612   6.281757
    14  C    3.014671   2.463603   3.667000   4.032048   5.400050
    15  H    1.088355   2.102070   2.837104   4.197593   5.199117
    16  H    1.087943   2.111292   3.401560   4.526403   5.762972
    17  H    1.088560   2.103041   2.730919   3.948229   4.936492
    18  H    4.067237   2.651492   2.134102   1.075729   2.129798
    19  H    5.832689   4.576344   3.386744   2.130618   1.077895
    20  H    6.143550   5.290830   3.865220   3.366065   2.135800
    21  H    4.892361   4.590595   3.385741   3.835493   3.366405
    22  H    2.555395   2.685288   2.139935   3.369734   3.836206
    23  H    3.897858   2.657502   2.807437   2.776788   3.787414
    24  H    5.712721   4.585147   5.054721   4.746973   5.718809
    25  H    6.131865   5.294973   6.173728   6.001174   7.175660
    26  H    5.015181   4.592019   5.742612   5.882438   7.198350
    27  H    2.795230   2.675065   3.909514   4.435209   5.769977
                    6          7          8          9         10
     6  C    0.000000
     7  C    1.381179   0.000000
     8  C    2.391548   1.377293   0.000000
     9  C    5.119055   4.898529   3.758453   0.000000
    10  C    5.223849   5.215681   4.276141   1.394979   0.000000
    11  C    6.421362   6.539304   5.643872   2.409848   1.376578
    12  C    7.370906   7.442178   6.441572   2.783441   2.389626
    13  C    7.308451   7.236920   6.123494   2.408975   2.760471
    14  C    6.284457   6.069068   4.893012   1.395105   2.395869
    15  H    5.199478   4.190854   2.854367   3.144539   4.036254
    16  H    6.103787   5.337247   3.969901   2.553932   3.778899
    17  H    5.015441   4.133596   2.881156   3.259395   4.494110
    18  H    3.364444   3.833128   3.366394   2.588781   2.589898
    19  H    2.134316   3.366997   3.838749   4.929997   4.751935
    20  H    1.077864   2.136016   3.368007   6.170835   6.198572
    21  H    2.133586   1.077937   2.130699   5.844975   6.187559
    22  H    3.363650   2.126310   1.075364   4.074967   4.733582
    23  H    4.610072   4.636030   3.857002   2.132916   1.076141
    24  H    6.788623   7.017399   6.253029   3.384936   2.130376
    25  H    8.329546   8.467744   7.500235   3.861294   3.366101
    26  H    8.230968   8.145463   7.010830   3.384263   3.838368
    27  H    6.540709   6.208453   4.992987   2.136354   3.370256
                   11         12         13         14         15
    11  C    0.000000
    12  C    1.381476   0.000000
    13  C    2.391762   1.381611   0.000000
    14  C    2.762520   2.391116   1.376973   0.000000
    15  H    5.231224   5.676242   5.093032   3.855155   0.000000
    16  H    4.701536   4.721288   3.821705   2.601846   1.758889
    17  H    5.656915   5.868435   5.000611   3.632103   1.774626
    18  H    3.497595   4.220239   4.222969   3.510667   4.664528
    19  H    5.625391   6.523926   6.661172   5.944521   6.208516
    20  H    7.343791   8.328478   8.319415   7.330466   6.208015
    21  H    7.528100   8.442107   8.209052   7.001616   4.657257
    22  H    6.103238   6.822913   6.398067   5.108801   2.222783
    23  H    2.133833   3.367728   3.836513   3.368353   4.067474
    24  H    1.077873   2.134794   3.368649   3.840390   6.032206
    25  H    2.135720   1.077853   2.135888   3.367334   6.710553
    26  H    3.368270   2.134336   1.077904   2.130457   5.820371
    27  H    3.838231   3.367103   2.131614   1.075932   3.766743
                   16         17         18         19         20
    16  H    0.000000
    17  H    1.767184   0.000000
    18  H    4.631099   4.364518   0.000000
    19  H    6.645409   5.896481   2.453990   0.000000
    20  H    7.166286   6.013912   4.254866   2.459613   0.000000
    21  H    5.980183   4.670954   4.911049   4.256816   2.458412
    22  H    3.624620   2.491124   4.258265   4.914095   4.252360
    23  H    4.264103   4.728683   2.558222   4.277580   5.530282
    24  H    5.676828   6.594528   4.044318   5.863241   7.628013
    25  H    5.706094   6.915356   5.125574   7.334133   9.254042
    26  H    4.347248   5.572117   5.128721   7.549575   9.239349
    27  H    2.233549   3.162063   4.044822   6.378723   7.588479
                   21         22         23         24         25
    21  H    0.000000
    22  H    2.447820   0.000000
    23  H    5.569716   4.384924   0.000000
    24  H    7.989220   6.764342   2.459709   0.000000
    25  H    9.476253   7.893762   4.258521   2.459354   0.000000
    26  H    9.105264   7.234172   4.914418   4.258235   2.458640
    27  H    7.075961   5.086359   4.255170   4.916096   4.256863
                   26         27
    26  H    0.000000
    27  H    2.455894   0.000000
 Stoichiometry    C13H13N
 Framework group  C1[X(C13H13N)]
 Deg. of freedom    75
 Full point group                 C1      NOp   1
 Largest Abelian subgroup         C1      NOp   1
 Largest concise Abelian subgroup C1      NOp   1
                         Standard orientation:                         
 ---------------------------------------------------------------------
 Center     Atomic      Atomic             Coordinates (Angstroms)
 Number     Number       Type             X           Y           Z
 ---------------------------------------------------------------------
      1          6           0        0.038563    2.482197    0.173720
      2          7           0        0.020789    1.024230    0.056812
      3          6           0        1.257450    0.318731   -0.018251
      4          6           0        1.298599   -0.979652   -0.526342
      5          6           0        2.487026   -1.668734   -0.616010
      6          6           0        3.663847   -1.075699   -0.203116
      7          6           0        3.645408    0.211851    0.296415
      8          6           0        2.457826    0.903591    0.386312
      9          6           0       -1.245302    0.351539    0.057603
     10          6           0       -1.445162   -0.781907    0.845843
     11          6           0       -2.659981   -1.429295    0.854272
     12          6           0       -3.700808   -0.959054    0.077081
     13          6           0       -3.521122    0.162636   -0.709287
     14          6           0       -2.307656    0.813359   -0.719859
     15          1           0        0.439470    2.775010    1.142251
     16          1           0       -0.966742    2.890001    0.091996
     17          1           0        0.653134    2.914473   -0.613937
     18          1           0        0.385025   -1.434474   -0.866508
     19          1           0        2.499550   -2.671317   -1.011646
     20          1           0        4.594408   -1.615118   -0.272925
     21          1           0        4.563760    0.676319    0.617112
     22          1           0        2.452286    1.903712    0.781451
     23          1           0       -0.635277   -1.134995    1.460249
     24          1           0       -2.799944   -2.303027    1.469750
     25          1           0       -4.651563   -1.466780    0.083886
     26          1           0       -4.332109    0.527162   -1.318630
     27          1           0       -2.159645    1.672049   -1.351028
 ---------------------------------------------------------------------
 Rotational constants (GHZ):           1.5889582           0.4297394           0.3645162
 Standard basis: def2SVP (5D, 7F)
 There are   275 symmetry adapted cartesian basis functions of A   symmetry.
 There are   261 symmetry adapted basis functions of A   symmetry.
   261 basis functions,   441 primitive gaussians,   275 cartesian basis functions
    49 alpha electrons       49 beta electrons
       nuclear repulsion energy       816.1467146093 Hartrees.
 NAtoms=   27 NActive=   27 NUniq=   27 SFac= 1.00D+00 NAtFMM=   60 NAOKFM=F Big=F
 Integral buffers will be    131072 words long.
 Raffenetti 2 integral format.
 Two-electron integral symmetry is turned on.
 Nuclear repulsion after empirical dispersion term =      816.1293128831 Hartrees.
 One-electron integrals computed using PRISM.
   1 Symmetry operations used in ECPInt.
 ECPInt:  NShTT=    7626 NPrTT=   27482 LenC2=    7295 LenP2D=   19514.
 LDataN:  DoStor=T MaxTD1= 4 Len=   56
 NBasis=   261 RedAO= T EigKep=  2.44D-04  NBF=   261
 NBsUse=   261 1.00D-06 EigRej= -1.00D+00 NBFU=   261
 ExpMin= 1.22D-01 ExpMax= 1.71D+03 ExpMxC= 2.58D+02 IAcc=3 IRadAn=         5 AccDes= 0.00D+00
 Harris functional with IExCor= 4639 and IRadAn=       5 diagonalized for initial guess.
 HarFok:  IExCor= 4639 AccDes= 0.00D+00 IRadAn=         5 IDoV= 1 UseB2=F ITyADJ=14
 ICtDFT=  3500011 ScaDFX=  1.000000  1.000000  1.000000  1.000000
 FoFCou: FMM=F IPFlag=           0 FMFlag=      100000 FMFlg1=           0
         NFxFlg=           0 DoJE=T BraDBF=F KetDBF=T FulRan=T
         wScrn=  0.000000 ICntrl=       500 IOpCl=  0 I1Cent=   200000004 NGrid=           0
         NMat0=    1 NMatS0=      1 NMatT0=    0 NMatD0=    1 NMtDS0=    0 NMtDT0=    0
 Petite list used in FoFCou.
 Requested convergence on RMS density matrix=1.00D-08 within 128 cycles.
 Requested convergence on MAX density matrix=1.00D-06.
 Requested convergence on             energy=1.00D-06.
 No special actions if energy rises.
 Integral accuracy reduced to 1.0D-05 until final iterations.
 Initial convergence to 1.0D-05 achieved.  Increase integral accuracy.
 SCF Done:  E(RwB97XD) =  -557.370193999     A.U. after   15 cycles
            NFock= 15  Conv=0.67D-08     -V/T= 2.0107

 **********************************************************************

            Population analysis using the SCF Density.

 **********************************************************************

 Orbital symmetries:
       Occupied  (A) (A) (A) (A) (A) (A) (A) (A) (A) (A) (A) (A)
                 (A) (A) (A) (A) (A) (A) (A) (A) (A) (A) (A) (A)
                 (A) (A) (A) (A) (A) (A) (A) (A) (A) (A) (A) (A)
                 (A) (A) (A) (A) (A) (A) (A) (A) (A) (A) (A) (A)
                 (A)
       Virtual   (A) (A) (A) (A) (A) (A) (A) (A) (A) (A) (A) (A)
                 (A) (A) (A) (A) (A) (A) (A) (A) (A) (A) (A) (A)
                 (A) (A) (A) (A) (A) (A) (A) (A) (A) (A) (A) (A)
                 (A) (A) (A) (A) (A) (A) (A) (A) (A) (A) (A) (A)
                 (A) (A) (A) (A) (A) (A) (A) (A) (A) (A) (A) (A)
                 (A) (A) (A) (A) (A) (A) (A) (A) (A) (A) (A) (A)
                 (A) (A) (A) (A) (A) (A) (A) (A) (A) (A) (A) (A)
                 (A) (A) (A) (A) (A) (A) (A) (A) (A) (A) (A) (A)
                 (A) (A) (A) (A) (A) (A) (A) (A) (A) (A) (A) (A)
                 (A) (A) (A) (A) (A) (A) (A) (A) (A) (A) (A) (A)
                 (A) (A) (A) (A) (A) (A) (A) (A) (A) (A) (A) (A)
                 (A) (A) (A) (A) (A) (A) (A) (A) (A) (A) (A) (A)
                 (A) (A) (A) (A) (A) (A) (A) (A) (A) (A) (A) (A)
                 (A) (A) (A) (A) (A) (A) (A) (A) (A) (A) (A) (A)
                 (A) (A) (A) (A) (A) (A) (A) (A) (A) (A) (A) (A)
                 (A) (A) (A) (A) (A) (A) (A) (A) (A) (A) (A) (A)
                 (A) (A) (A) (A) (A) (A) (A) (A) (A) (A) (A) (A)
                 (A) (A) (A) (A) (A) (A) (A) (A)
 The electronic state is 1-A.
 Alpha  occ. eigenvalues --  -14.46526 -10.34103 -10.33895 -10.33006 -10.30003
 Alpha  occ. eigenvalues --  -10.29903 -10.29774 -10.29526 -10.29403 -10.29401
 Alpha  occ. eigenvalues --  -10.29299 -10.29006 -10.28715 -10.28431  -1.04156
 Alpha  occ. eigenvalues --   -0.95642  -0.93929  -0.84965  -0.84890  -0.83742
 Alpha  occ. eigenvalues --   -0.82803  -0.77157  -0.71099  -0.70038  -0.68974
 Alpha  occ. eigenvalues --   -0.66343  -0.62997  -0.60473  -0.56701  -0.56283
 Alpha  occ. eigenvalues --   -0.55385  -0.53425  -0.53038  -0.52065  -0.51244
 Alpha  occ. eigenvalues --   -0.50979  -0.50416  -0.47806  -0.46363  -0.46172
 Alpha  occ. eigenvalues --   -0.44701  -0.43666  -0.42772  -0.41876  -0.38240
 Alpha  occ. eigenvalues --   -0.33757  -0.33454  -0.32903  -0.26140
 Alpha virt. eigenvalues --    0.05409   0.05854   0.07391   0.09149   0.13892
 Alpha virt. eigenvalues --    0.15199   0.16425   0.18273   0.18962   0.20440
 Alpha virt. eigenvalues --    0.20621   0.20808   0.21863   0.22669   0.23616
 Alpha virt. eigenvalues --    0.23827   0.24295   0.25056   0.26158   0.26594
 Alpha virt. eigenvalues --    0.31644   0.34481   0.36228   0.37170   0.37782
 Alpha virt. eigenvalues --    0.37818   0.39775   0.40646   0.41389   0.43004
 Alpha virt. eigenvalues --    0.43901   0.44981   0.47615   0.48660   0.49639
 Alpha virt. eigenvalues --    0.49792   0.50713   0.51962   0.53892   0.54067
 Alpha virt. eigenvalues --    0.55996   0.56610   0.57687   0.58156   0.58240
 Alpha virt. eigenvalues --    0.58587   0.59055   0.60578   0.61278   0.63402
 Alpha virt. eigenvalues --    0.64421   0.65115   0.65795   0.66902   0.67387
 Alpha virt. eigenvalues --    0.69288   0.71061   0.72277   0.72912   0.73439
 Alpha virt. eigenvalues --    0.74080   0.74472   0.74820   0.75428   0.75707
 Alpha virt. eigenvalues --    0.76476   0.77179   0.77853   0.78841   0.79685
 Alpha virt. eigenvalues --    0.81304   0.82004   0.82561   0.83617   0.84301
 Alpha virt. eigenvalues --    0.84772   0.85576   0.86861   0.88142   0.89323
 Alpha virt. eigenvalues --    0.91059   0.91813   0.92921   0.93969   0.96601
 Alpha virt. eigenvalues --    0.99894   1.02556   1.03927   1.04333   1.07203
 Alpha virt. eigenvalues --    1.10269   1.16663   1.17903   1.18583   1.20556
 Alpha virt. eigenvalues --    1.26365   1.27551   1.28994   1.32118   1.32861
 Alpha virt. eigenvalues --    1.33820   1.34804   1.35581   1.36890   1.37299
 Alpha virt. eigenvalues --    1.38598   1.39029   1.40166   1.41105   1.41775
 Alpha virt. eigenvalues --    1.44515   1.46908   1.57426   1.60342   1.63083
 Alpha virt. eigenvalues --    1.63930   1.67515   1.70842   1.75780   1.76446
 Alpha virt. eigenvalues --    1.77543   1.78013   1.79310   1.81044   1.81725
 Alpha virt. eigenvalues --    1.82872   1.83576   1.84435   1.85097   1.86075
 Alpha virt. eigenvalues --    1.86483   1.86775   1.87149   1.88624   1.89363
 Alpha virt. eigenvalues --    1.90430   1.90966   1.91543   1.92544   1.93374
 Alpha virt. eigenvalues --    1.94612   1.97530   1.98625   2.01523   2.03968
 Alpha virt. eigenvalues --    2.04801   2.05278   2.07769   2.08737   2.08932
 Alpha virt. eigenvalues --    2.10405   2.11608   2.13614   2.14862   2.16444
 Alpha virt. eigenvalues --    2.19744   2.22231   2.23640   2.24520   2.25607
 Alpha virt. eigenvalues --    2.26762   2.28158   2.28503   2.29884   2.29979
 Alpha virt. eigenvalues --    2.33367   2.38194   2.38823   2.40676   2.41080
 Alpha virt. eigenvalues --    2.41698   2.43286   2.44180   2.45665   2.45884
 Alpha virt. eigenvalues --    2.47081   2.49422   2.56182   2.58175   2.63862
 Alpha virt. eigenvalues --    2.65933   2.69944   2.70616   2.71660   2.73923
 Alpha virt. eigenvalues --    2.75284   2.75436   2.77168   2.78584   2.84536
 Alpha virt. eigenvalues --    2.85101   2.85295   2.85819   2.87990   2.91783
 Alpha virt. eigenvalues --    2.96331   2.98591   3.00453   3.01148   3.02561
 Alpha virt. eigenvalues --    3.05068   3.06021   3.10217   3.14767   3.24156
 Alpha virt. eigenvalues --    3.24895   3.28903   3.30093   3.40158   3.48024
 Alpha virt. eigenvalues --    3.78738   3.80570
          Condensed to atoms (all electrons):
               1          2          3          4          5          6
     1  C    4.434143   0.339363  -0.051583   0.006388  -0.000246   0.000087
     2  N    0.339363   6.811967   0.336518  -0.085520   0.008604  -0.000640
     3  C   -0.051583   0.336518   5.062015   0.269037   0.121603  -0.165750
     4  C    0.006388  -0.085520   0.269037   5.191711   0.281232   0.089098
     5  C   -0.000246   0.008604   0.121603   0.281232   5.049624   0.271464
     6  C    0.000087  -0.000640  -0.165750   0.089098   0.271464   5.114880
     7  C    0.000386   0.008120   0.120844  -0.155961   0.103128   0.280891
     8  C    0.003965  -0.088233   0.260981   0.071198  -0.153666   0.088215
     9  C   -0.049883   0.306990  -0.045801  -0.006424  -0.000228   0.000014
    10  C    0.003959  -0.077129  -0.006349  -0.004955  -0.000482  -0.000003
    11  C   -0.000106   0.009178   0.000105  -0.001702   0.000029  -0.000002
    12  C    0.000005  -0.000409   0.000025   0.000039  -0.000003   0.000000
    13  C    0.000422   0.008368  -0.000177   0.000049   0.000004  -0.000000
    14  C   -0.008170  -0.075602   0.004234   0.000899  -0.000053  -0.000000
    15  H    0.400563  -0.032184  -0.011318  -0.000645   0.000071  -0.000064
    16  H    0.400166  -0.017848   0.005961  -0.000135   0.000004   0.000004
    17  H    0.401846  -0.029088  -0.005656   0.000344  -0.000066  -0.000075
    18  H   -0.000099  -0.015024  -0.068576   0.459630  -0.069905   0.014877
    19  H    0.000006  -0.000113   0.015314  -0.068552   0.453778  -0.072357
    20  H   -0.000000   0.000011  -0.001483   0.014912  -0.070541   0.452470
    21  H   -0.000035  -0.000097   0.015349  -0.001972   0.014256  -0.070780
    22  H    0.011080  -0.016267  -0.077868   0.016948  -0.002592   0.015798
    23  H   -0.000144  -0.011735   0.003922   0.002542  -0.000147  -0.000015
    24  H    0.000005  -0.000135  -0.000020   0.000037   0.000002  -0.000000
    25  H    0.000000   0.000008   0.000001  -0.000001  -0.000000   0.000000
    26  H   -0.000013  -0.000142   0.000007  -0.000002  -0.000000   0.000000
    27  H    0.001167  -0.010044  -0.000320  -0.000032   0.000002   0.000000
               7          8          9         10         11         12
     1  C    0.000386   0.003965  -0.049883   0.003959  -0.000106   0.000005
     2  N    0.008120  -0.088233   0.306990  -0.077129   0.009178  -0.000409
     3  C    0.120844   0.260981  -0.045801  -0.006349   0.000105   0.000025
     4  C   -0.155961   0.071198  -0.006424  -0.004955  -0.001702   0.000039
     5  C    0.103128  -0.153666  -0.000228  -0.000482   0.000029  -0.000003
     6  C    0.280891   0.088215   0.000014  -0.000003  -0.000002   0.000000
     7  C    5.050364   0.269362  -0.000068  -0.000024   0.000002  -0.000000
     8  C    0.269362   5.204273   0.006813   0.000428  -0.000037   0.000001
     9  C   -0.000068   0.006813   5.123504   0.273338   0.119674  -0.165606
    10  C   -0.000024   0.000428   0.273338   5.163366   0.265005   0.088743
    11  C    0.000002  -0.000037   0.119674   0.265005   5.071259   0.273263
    12  C   -0.000000   0.000001  -0.165606   0.088743   0.273263   5.104860
    13  C   -0.000000   0.000001   0.113402  -0.148193   0.098828   0.282813
    14  C    0.000002  -0.000428   0.279899   0.058769  -0.148660   0.086020
    15  H    0.000875   0.002912   0.004286   0.001001  -0.000071  -0.000004
    16  H   -0.000047   0.000572  -0.008159  -0.000056   0.000006  -0.000071
    17  H    0.000745   0.004780   0.002418  -0.000574   0.000029   0.000000
    18  H   -0.002417   0.015936   0.006525   0.002626  -0.000498   0.000040
    19  H    0.014284  -0.001954  -0.000016   0.000036   0.000001  -0.000000
    20  H   -0.070322   0.014834   0.000001   0.000000   0.000000  -0.000000
    21  H    0.452870  -0.068929   0.000007  -0.000000  -0.000000   0.000000
    22  H   -0.071863   0.459449  -0.000163  -0.000017  -0.000000   0.000000
    23  H    0.000021  -0.000733  -0.069271   0.461041  -0.070286   0.014823
    24  H    0.000000  -0.000000   0.015290  -0.067005   0.453113  -0.072334
    25  H   -0.000000   0.000000  -0.001693   0.014753  -0.069534   0.452995
    26  H    0.000000  -0.000000   0.015219  -0.002040   0.014091  -0.070675
    27  H    0.000000  -0.000020  -0.071247   0.016425  -0.002601   0.014954
              13         14         15         16         17         18
     1  C    0.000422  -0.008170   0.400563   0.400166   0.401846  -0.000099
     2  N    0.008368  -0.075602  -0.032184  -0.017848  -0.029088  -0.015024
     3  C   -0.000177   0.004234  -0.011318   0.005961  -0.005656  -0.068576
     4  C    0.000049   0.000899  -0.000645  -0.000135   0.000344   0.459630
     5  C    0.000004  -0.000053   0.000071   0.000004  -0.000066  -0.069905
     6  C   -0.000000  -0.000000  -0.000064   0.000004  -0.000075   0.014877
     7  C   -0.000000   0.000002   0.000875  -0.000047   0.000745  -0.002417
     8  C    0.000001  -0.000428   0.002912   0.000572   0.004780   0.015936
     9  C    0.113402   0.279899   0.004286  -0.008159   0.002418   0.006525
    10  C   -0.148193   0.058769   0.001001  -0.000056  -0.000574   0.002626
    11  C    0.098828  -0.148660  -0.000071   0.000006   0.000029  -0.000498
    12  C    0.282813   0.086020  -0.000004  -0.000071   0.000000   0.000040
    13  C    5.047368   0.278790   0.000035   0.000451  -0.000062   0.000043
    14  C    0.278790   5.156198   0.000042   0.003669   0.001176  -0.001152
    15  H    0.000035   0.000042   0.655552  -0.021303  -0.039407  -0.000031
    16  H    0.000451   0.003669  -0.021303   0.604454  -0.018995  -0.000009
    17  H   -0.000062   0.001176  -0.039407  -0.018995   0.643043   0.000035
    18  H    0.000043  -0.001152  -0.000031  -0.000009   0.000035   0.657466
    19  H   -0.000000   0.000001  -0.000000  -0.000000   0.000001  -0.012935
    20  H   -0.000000   0.000000   0.000000  -0.000000  -0.000000  -0.000242
    21  H    0.000000  -0.000000   0.000027  -0.000001  -0.000000   0.000019
    22  H    0.000000   0.000013  -0.001701   0.000021  -0.001296  -0.000178
    23  H   -0.002523   0.016218   0.000019  -0.000034   0.000001  -0.002658
    24  H    0.014355  -0.002187   0.000001   0.000001  -0.000000   0.000024
    25  H   -0.069704   0.014629  -0.000000  -0.000001   0.000000   0.000000
    26  H    0.450093  -0.065349  -0.000002   0.000050   0.000002  -0.000004
    27  H   -0.066548   0.452281   0.000307   0.000784  -0.000706  -0.000043
              19         20         21         22         23         24
     1  C    0.000006  -0.000000  -0.000035   0.011080  -0.000144   0.000005
     2  N   -0.000113   0.000011  -0.000097  -0.016267  -0.011735  -0.000135
     3  C    0.015314  -0.001483   0.015349  -0.077868   0.003922  -0.000020
     4  C   -0.068552   0.014912  -0.001972   0.016948   0.002542   0.000037
     5  C    0.453778  -0.070541   0.014256  -0.002592  -0.000147   0.000002
     6  C   -0.072357   0.452470  -0.070780   0.015798  -0.000015  -0.000000
     7  C    0.014284  -0.070322   0.452870  -0.071863   0.000021   0.000000
     8  C   -0.001954   0.014834  -0.068929   0.459449  -0.000733  -0.000000
     9  C   -0.000016   0.000001   0.000007  -0.000163  -0.069271   0.015290
    10  C    0.000036   0.000000  -0.000000  -0.000017   0.461041  -0.067005
    11  C    0.000001   0.000000  -0.000000  -0.000000  -0.070286   0.453113
    12  C   -0.000000  -0.000000   0.000000   0.000000   0.014823  -0.072334
    13  C   -0.000000  -0.000000   0.000000   0.000000  -0.002523   0.014355
    14  C    0.000001   0.000000  -0.000000   0.000013   0.016218  -0.002187
    15  H   -0.000000   0.000000   0.000027  -0.001701   0.000019   0.000001
    16  H   -0.000000  -0.000000  -0.000001   0.000021  -0.000034   0.000001
    17  H    0.000001  -0.000000  -0.000000  -0.001296   0.000001  -0.000000
    18  H   -0.012935  -0.000242   0.000019  -0.000178  -0.002658   0.000024
    19  H    0.675757  -0.012435  -0.000270   0.000023   0.000023  -0.000000
    20  H   -0.012435   0.681023  -0.012449  -0.000258   0.000000   0.000000
    21  H   -0.000270  -0.012449   0.677082  -0.013740  -0.000002   0.000000
    22  H    0.000023  -0.000258  -0.013740   0.697281  -0.000009  -0.000000
    23  H    0.000023   0.000000  -0.000002  -0.000009   0.656648  -0.012524
    24  H   -0.000000   0.000000   0.000000  -0.000000  -0.012524   0.671023
    25  H    0.000000  -0.000000   0.000000   0.000000  -0.000223  -0.012305
    26  H    0.000000   0.000000  -0.000000  -0.000000   0.000021  -0.000266
    27  H   -0.000000   0.000000  -0.000000  -0.000003  -0.000196   0.000026
              25         26         27
     1  C    0.000000  -0.000013   0.001167
     2  N    0.000008  -0.000142  -0.010044
     3  C    0.000001   0.000007  -0.000320
     4  C   -0.000001  -0.000002  -0.000032
     5  C   -0.000000  -0.000000   0.000002
     6  C    0.000000   0.000000   0.000000
     7  C   -0.000000   0.000000   0.000000
     8  C    0.000000  -0.000000  -0.000020
     9  C   -0.001693   0.015219  -0.071247
    10  C    0.014753  -0.002040   0.016425
    11  C   -0.069534   0.014091  -0.002601
    12  C    0.452995  -0.070675   0.014954
    13  C   -0.069704   0.450093  -0.066548
    14  C    0.014629  -0.065349   0.452281
    15  H   -0.000000  -0.000002   0.000307
    16  H   -0.000001   0.000050   0.000784
    17  H    0.000000   0.000002  -0.000706
    18  H    0.000000  -0.000004  -0.000043
    19  H    0.000000   0.000000  -0.000000
    20  H   -0.000000   0.000000   0.000000
    21  H    0.000000  -0.000000  -0.000000
    22  H    0.000000  -0.000000  -0.000003
    23  H   -0.000223   0.000021  -0.000196
    24  H   -0.012305  -0.000266   0.000026
    25  H    0.673795  -0.012318  -0.000229
    26  H   -0.012318   0.672859  -0.013110
    27  H   -0.000229  -0.013110   0.678819
 Mulliken charges:
               1
     1  C    0.106727
     2  N   -0.368917
     3  C    0.218985
     4  C   -0.078166
     5  C   -0.005871
     6  C   -0.018111
     7  C   -0.001193
     8  C   -0.089721
     9  C    0.151177
    10  C   -0.042662
    11  C   -0.011086
    12  C   -0.009479
    13  C   -0.007815
    14  C   -0.051240
    15  H    0.041040
    16  H    0.050518
    17  H    0.041506
    18  H    0.016549
    19  H    0.009409
    20  H    0.004482
    21  H    0.008667
    22  H   -0.014657
    23  H    0.015220
    24  H    0.012900
    25  H    0.009826
    26  H    0.011578
    27  H    0.000332
 Sum of Mulliken charges =  -0.00000
 Mulliken charges with hydrogens summed into heavy atoms:
               1
     1  C    0.239791
     2  N   -0.368917
     3  C    0.218985
     4  C   -0.061617
     5  C    0.003537
     6  C   -0.013629
     7  C    0.007474
     8  C   -0.104378
     9  C    0.151177
    10  C   -0.027442
    11  C    0.001815
    12  C    0.000348
    13  C    0.003764
    14  C   -0.050907
 Electronic spatial extent (au):  <R**2>=           3056.0596
 Charge=             -0.0000 electrons
 Dipole moment (field-independent basis, Debye):
    X=             -0.6116    Y=              0.8653    Z=              0.0904  Tot=              1.0634
 Quadrupole moment (field-independent basis, Debye-Ang):
   XX=            -77.7130   YY=            -74.7819   ZZ=            -84.7436
   XY=              0.8313   XZ=              2.4960   YZ=             -0.6452
 Traceless Quadrupole moment (field-independent basis, Debye-Ang):
   XX=              1.3665   YY=              4.2976   ZZ=             -5.6641
   XY=              0.8313   XZ=              2.4960   YZ=             -0.6452
 Octapole moment (field-independent basis, Debye-Ang**2):
  XXX=             -3.0432  YYY=              9.3736  ZZZ=              1.3507  XYY=              0.9509
  XXY=             -5.5812  XXZ=             -3.8364  XZZ=             -5.5599  YZZ=              1.7306
  YYZ=              0.4893  XYZ=             13.1715
 Hexadecapole moment (field-independent basis, Debye-Ang**3):
 XXXX=          -2937.0752 YYYY=           -802.1735 ZZZZ=           -256.6489 XXXY=             23.3096
 XXXZ=             63.4161 YYYX=             -4.3021 YYYZ=              2.0900 ZZZX=              6.8636
 ZZZY=             -6.5280 XXYY=           -631.4129 XXZZ=           -592.7229 YYZZ=           -173.0019
 XXYZ=             -5.0578 YYXZ=            -11.5563 ZZXY=              2.0002
 N-N= 8.161293128831D+02 E-N=-2.922122940293D+03  KE= 5.514784743275D+02
   1 Symmetry operations used in ECPInt.
 ECPInt:  NShTT=    7626 NPrTT=   27482 LenC2=    7295 LenP2D=   19514.
 LDataN:  DoStor=T MaxTD1= 5 Len=  102
 Calling FoFJK, ICntrl=      2127 FMM=F ISym2X=0 I1Cent= 0 IOpClX= 0 NMat=1 NMatS=1 NMatT=0.
 ***** Axes restored to original set *****
 -------------------------------------------------------------------
 Center     Atomic                   Forces (Hartrees/Bohr)
 Number     Number              X              Y              Z
 -------------------------------------------------------------------
      1        6          -0.002311771    0.019912110   -0.001316090
      2        7           0.001953014    0.004726112   -0.002688630
      3        6           0.026586254   -0.011468611    0.002802019
      4        6           0.004605298    0.000136459   -0.002516810
      5        6           0.000304868   -0.000618116    0.001021969
      6        6          -0.008754046    0.002579736    0.000734979
      7        6          -0.002043586    0.003611462   -0.001977668
      8        6           0.008571168   -0.007111986    0.001095781
      9        6          -0.019959864   -0.006963826   -0.000105322
     10        6          -0.005369094   -0.005521328    0.001266180
     11        6           0.001415733    0.001737010   -0.000969017
     12        6           0.006177701    0.002581315   -0.000721160
     13        6           0.003771436    0.000991989    0.001700961
     14        6          -0.010172108   -0.002243976    0.000489357
     15        1          -0.003538240   -0.006005437    0.008512661
     16        1           0.005254112    0.000247712   -0.000173806
     17        1          -0.005297013   -0.005479633   -0.005464923
     18        1           0.008305400    0.005697918   -0.003870756
     19        1           0.000737037    0.009416109   -0.004232027
     20        1          -0.008987417    0.005065861   -0.000552797
     21        1          -0.008263542   -0.005209517    0.003311955
     22        1          -0.001295840   -0.010237999    0.004218445
     23        1          -0.008162313    0.004196541    0.006591452
     24        1           0.000840656    0.008135951    0.006372214
     25        1           0.009131774    0.004862018   -0.000057378
     26        1           0.007320475   -0.003846000   -0.006198396
     27        1          -0.000820092   -0.009191873   -0.007273193
 -------------------------------------------------------------------
 Cartesian Forces:  Max     0.026586254 RMS     0.006678848

 GradGradGradGradGradGradGradGradGradGradGradGradGradGradGradGradGradGrad
 Berny optimization.
 FormGI is forming the generalized inverse of G from B-inverse, IUseBI=4.
 Internal  Forces:  Max     0.021181053 RMS     0.005766729
 Search for a local minimum.
 Step number   1 out of a maximum of  145
 All quantities printed in internal units (Hartrees-Bohrs-Radians)
 Mixed Optimization -- RFO/linear search
 Second derivative matrix not updated -- first step.
 ITU=  0
     Eigenvalues ---    0.00862   0.01121   0.01246   0.01351   0.01879
     Eigenvalues ---    0.01912   0.02182   0.02183   0.02261   0.02264
     Eigenvalues ---    0.02283   0.02285   0.02332   0.02332   0.02333
     Eigenvalues ---    0.02339   0.02351   0.02354   0.02365   0.02366
     Eigenvalues ---    0.02371   0.02372   0.07385   0.07439   0.15994
     Eigenvalues ---    0.15997   0.15998   0.15999   0.16000   0.16000
     Eigenvalues ---    0.16000   0.16000   0.16000   0.16000   0.16000
     Eigenvalues ---    0.16000   0.16000   0.22000   0.22000   0.22000
     Eigenvalues ---    0.22000   0.23465   0.23468   0.24991   0.24994
     Eigenvalues ---    0.24995   0.25000   0.34980   0.35003   0.35051
     Eigenvalues ---    0.36245   0.36249   0.36250   0.36253   0.36254
     Eigenvalues ---    0.36255   0.36465   0.36490   0.36515   0.36560
     Eigenvalues ---    0.36622   0.40462   0.41610   0.43027   0.43059
     Eigenvalues ---    0.43714   0.43737   0.47296   0.47300   0.47878
     Eigenvalues ---    0.47937   0.49036   0.49085   0.49660   0.49697
 RFO step:  Lambda=-1.14038020D-02 EMin= 8.61663716D-03
 Linear search not attempted -- first point.
 Iteration  1 RMS(Cart)=  0.05561390 RMS(Int)=  0.00061299
 Iteration  2 RMS(Cart)=  0.00131997 RMS(Int)=  0.00009918
 Iteration  3 RMS(Cart)=  0.00000114 RMS(Int)=  0.00009918
 Iteration  4 RMS(Cart)=  0.00000000 RMS(Int)=  0.00009918
 Variable       Old X    -DE/DX   Delta X   Delta X   Delta X     New X
                                 (Linear)    (Quad)   (Total)
    R1        2.76420  -0.00846   0.00000  -0.02241  -0.02241   2.74179
    R2        2.05669   0.01050   0.00000   0.02905   0.02905   2.08574
    R3        2.05591   0.00478   0.00000   0.01320   0.01320   2.06912
    R4        2.05708   0.00912   0.00000   0.02526   0.02526   2.08234
    R5        2.69423  -0.02118   0.00000  -0.04955  -0.04955   2.64468
    R6        2.70930  -0.01644   0.00000  -0.03952  -0.03952   2.66978
    R7        2.63591   0.01257   0.00000   0.02617   0.02617   2.66209
    R8        2.63658   0.00966   0.00000   0.02004   0.02004   2.65662
    R9        2.60154   0.01421   0.00000   0.02799   0.02799   2.62953
   R10        2.03283   0.01069   0.00000   0.02839   0.02839   2.06123
   R11        2.60965   0.01488   0.00000   0.02998   0.02998   2.63963
   R12        2.03693   0.01030   0.00000   0.02755   0.02755   2.06448
   R13        2.61005   0.01167   0.00000   0.02355   0.02355   2.63360
   R14        2.03687   0.01033   0.00000   0.02763   0.02763   2.06450
   R15        2.60271   0.01665   0.00000   0.03276   0.03277   2.63547
   R16        2.03701   0.01027   0.00000   0.02748   0.02748   2.06448
   R17        2.03214   0.01106   0.00000   0.02934   0.02934   2.06148
   R18        2.63613   0.00826   0.00000   0.01679   0.01678   2.65291
   R19        2.63637   0.00698   0.00000   0.01407   0.01407   2.65044
   R20        2.60136   0.01563   0.00000   0.03076   0.03076   2.63211
   R21        2.03361   0.01128   0.00000   0.03000   0.03000   2.06362
   R22        2.61061   0.01371   0.00000   0.02801   0.02801   2.63862
   R23        2.03688   0.01034   0.00000   0.02766   0.02766   2.06454
   R24        2.61087   0.01234   0.00000   0.02524   0.02525   2.63611
   R25        2.03685   0.01035   0.00000   0.02766   0.02766   2.06451
   R26        2.60210   0.01646   0.00000   0.03237   0.03237   2.63448
   R27        2.03694   0.01031   0.00000   0.02758   0.02758   2.06453
   R28        2.03322   0.01172   0.00000   0.03113   0.03113   2.06435
    A1        1.92172   0.00487   0.00000   0.02969   0.02956   1.95128
    A2        1.93519  -0.00464   0.00000  -0.02975  -0.02959   1.90560
    A3        1.92286   0.00293   0.00000   0.01849   0.01830   1.94117
    A4        1.88218  -0.00075   0.00000  -0.00714  -0.00693   1.87525
    A5        1.90616  -0.00290   0.00000  -0.01172  -0.01215   1.89401
    A6        1.89492   0.00034   0.00000  -0.00044  -0.00034   1.89458
    A7        2.07932  -0.00403   0.00000  -0.01559  -0.01565   2.06367
    A8        2.06957   0.00322   0.00000   0.01215   0.01208   2.08166
    A9        2.13393   0.00081   0.00000   0.00292   0.00286   2.13679
   A10        2.10061   0.00520   0.00000   0.02020   0.02007   2.12069
   A11        2.12183  -0.00669   0.00000  -0.02532  -0.02540   2.09642
   A12        2.06058   0.00148   0.00000   0.00466   0.00456   2.06514
   A13        2.11193  -0.00174   0.00000  -0.00780  -0.00780   2.10413
   A14        2.07566   0.00235   0.00000   0.01254   0.01254   2.08820
   A15        2.09544  -0.00061   0.00000  -0.00470  -0.00471   2.09074
   A16        2.09580   0.00281   0.00000   0.01293   0.01291   2.10872
   A17        2.09382  -0.00237   0.00000  -0.01211  -0.01212   2.08170
   A18        2.09355  -0.00044   0.00000  -0.00084  -0.00085   2.09270
   A19        2.09103  -0.00392   0.00000  -0.01578  -0.01579   2.07524
   A20        2.09605   0.00209   0.00000   0.00864   0.00863   2.10468
   A21        2.09610   0.00183   0.00000   0.00713   0.00712   2.10322
   A22        2.09823   0.00234   0.00000   0.01061   0.01062   2.10884
   A23        2.09198  -0.00023   0.00000   0.00019   0.00019   2.09216
   A24        2.09298  -0.00211   0.00000  -0.01081  -0.01081   2.08217
   A25        2.10875  -0.00097   0.00000  -0.00474  -0.00474   2.10401
   A26        2.08515   0.00190   0.00000   0.01066   0.01065   2.09580
   A27        2.08924  -0.00093   0.00000  -0.00589  -0.00590   2.08335
   A28        2.10373   0.00082   0.00000   0.00414   0.00409   2.10782
   A29        2.11395  -0.00307   0.00000  -0.01073  -0.01078   2.10317
   A30        2.06549   0.00224   0.00000   0.00649   0.00641   2.07190
   A31        2.10832  -0.00096   0.00000  -0.00510  -0.00511   2.10321
   A32        2.07302   0.00110   0.00000   0.00618   0.00618   2.07920
   A33        2.10174  -0.00013   0.00000  -0.00100  -0.00100   2.10074
   A34        2.09596   0.00135   0.00000   0.00730   0.00727   2.10324
   A35        2.09360  -0.00134   0.00000  -0.00752  -0.00754   2.08605
   A36        2.09362  -0.00001   0.00000   0.00019   0.00016   2.09379
   A37        2.09274  -0.00324   0.00000  -0.01141  -0.01141   2.08133
   A38        2.09518   0.00171   0.00000   0.00622   0.00621   2.10140
   A39        2.09526   0.00153   0.00000   0.00520   0.00520   2.10046
   A40        2.09746   0.00102   0.00000   0.00566   0.00563   2.10309
   A41        2.09262   0.00014   0.00000   0.00095   0.00093   2.09355
   A42        2.09310  -0.00116   0.00000  -0.00664  -0.00666   2.08644
   A43        2.10639  -0.00041   0.00000  -0.00292  -0.00295   2.10344
   A44        2.07870   0.00112   0.00000   0.00687   0.00687   2.08557
   A45        2.09774  -0.00070   0.00000  -0.00370  -0.00371   2.09402
    D1       -1.18730  -0.00053   0.00000   0.00013  -0.00014  -1.18744
    D2        1.92575  -0.00097   0.00000  -0.01987  -0.02011   1.90564
    D3        3.01435   0.00022   0.00000   0.00878   0.00881   3.02316
    D4       -0.15579  -0.00022   0.00000  -0.01122  -0.01116  -0.16695
    D5        0.91618   0.00088   0.00000   0.01648   0.01667   0.93286
    D6       -2.25395   0.00044   0.00000  -0.00352  -0.00330  -2.25725
    D7       -2.80124   0.00067   0.00000   0.02238   0.02242  -2.77882
    D8        0.32019  -0.00014   0.00000  -0.00484  -0.00475   0.31544
    D9        0.36999   0.00110   0.00000   0.04302   0.04292   0.41291
   D10       -2.79176   0.00028   0.00000   0.01579   0.01575  -2.77601
   D11       -2.33503   0.00184   0.00000   0.07382   0.07387  -2.26116
   D12        0.80073   0.00122   0.00000   0.05294   0.05306   0.85379
   D13        0.77708   0.00130   0.00000   0.05284   0.05272   0.82980
   D14       -2.37035   0.00068   0.00000   0.03196   0.03191  -2.33844
   D15        3.13137  -0.00037   0.00000  -0.01050  -0.01089   3.12048
   D16        0.00836  -0.00042   0.00000  -0.01306  -0.01337  -0.00502
   D17        0.00924   0.00052   0.00000   0.01614   0.01616   0.02540
   D18       -3.11377   0.00046   0.00000   0.01358   0.01367  -3.10009
   D19       -3.13183   0.00047   0.00000   0.01676   0.01641  -3.11542
   D20        0.01971   0.00039   0.00000   0.01428   0.01398   0.03369
   D21       -0.00996  -0.00028   0.00000  -0.00968  -0.00972  -0.01968
   D22        3.14159  -0.00037   0.00000  -0.01216  -0.01215   3.12944
   D23       -0.00280  -0.00034   0.00000  -0.01008  -0.01010  -0.01291
   D24       -3.14127  -0.00002   0.00000  -0.00086  -0.00085   3.14107
   D25        3.12000  -0.00025   0.00000  -0.00731  -0.00743   3.11257
   D26       -0.01846   0.00007   0.00000   0.00191   0.00183  -0.01664
   D27       -0.00317  -0.00007   0.00000  -0.00273  -0.00266  -0.00583
   D28        3.14125   0.00015   0.00000   0.00422   0.00427  -3.13767
   D29        3.13529  -0.00040   0.00000  -0.01197  -0.01200   3.12330
   D30       -0.00347  -0.00017   0.00000  -0.00502  -0.00507  -0.00854
   D31        0.00245   0.00031   0.00000   0.00914   0.00916   0.01161
   D32       -3.13945   0.00017   0.00000   0.00553   0.00546  -3.13400
   D33        3.14121   0.00009   0.00000   0.00219   0.00224  -3.13974
   D34       -0.00069  -0.00006   0.00000  -0.00142  -0.00147  -0.00216
   D35        0.00426  -0.00013   0.00000  -0.00282  -0.00292   0.00134
   D36        3.13587  -0.00004   0.00000  -0.00024  -0.00042   3.13546
   D37       -3.13703   0.00001   0.00000   0.00078   0.00076  -3.13627
   D38       -0.00541   0.00010   0.00000   0.00337   0.00326  -0.00215
   D39        3.13764  -0.00027   0.00000  -0.00937  -0.00952   3.12812
   D40        0.01112  -0.00048   0.00000  -0.01578  -0.01592  -0.00479
   D41        0.00173   0.00035   0.00000   0.01100   0.01098   0.01271
   D42       -3.12480   0.00014   0.00000   0.00458   0.00459  -3.12021
   D43       -3.13821   0.00080   0.00000   0.02497   0.02486  -3.11335
   D44        0.03200   0.00047   0.00000   0.01506   0.01495   0.04695
   D45       -0.00233   0.00019   0.00000   0.00453   0.00447   0.00214
   D46       -3.11531  -0.00015   0.00000  -0.00538  -0.00544  -3.12075
   D47       -0.00056  -0.00053   0.00000  -0.01571  -0.01572  -0.01628
   D48       -3.13982  -0.00007   0.00000  -0.00218  -0.00219   3.14118
   D49        3.12572  -0.00031   0.00000  -0.00913  -0.00919   3.11653
   D50       -0.01354   0.00016   0.00000   0.00441   0.00434  -0.00920
   D51       -0.00005   0.00017   0.00000   0.00479   0.00482   0.00477
   D52        3.14110   0.00026   0.00000   0.00751   0.00752  -3.13456
   D53        3.13921  -0.00029   0.00000  -0.00875  -0.00879   3.13042
   D54       -0.00282  -0.00021   0.00000  -0.00604  -0.00608  -0.00890
   D55       -0.00056   0.00036   0.00000   0.01066   0.01067   0.01011
   D56        3.13737  -0.00005   0.00000  -0.00121  -0.00126   3.13611
   D57        3.14148   0.00028   0.00000   0.00795   0.00796  -3.13374
   D58       -0.00378  -0.00014   0.00000  -0.00392  -0.00397  -0.00775
   D59        0.00177  -0.00055   0.00000  -0.01534  -0.01537  -0.01360
   D60        3.11444  -0.00018   0.00000  -0.00515  -0.00524   3.10919
   D61       -3.13616  -0.00013   0.00000  -0.00349  -0.00351  -3.13966
   D62       -0.02349   0.00024   0.00000   0.00670   0.00662  -0.01687
         Item               Value     Threshold  Converged?
 Maximum Force            0.021181     0.000450     NO 
 RMS     Force            0.005767     0.000300     NO 
 Maximum Displacement     0.183287     0.001800     NO 
 RMS     Displacement     0.056362     0.001200     NO 
 Predicted change in Energy=-5.978536D-03
 GradGradGradGradGradGradGradGradGradGradGradGradGradGradGradGradGradGrad

                          Input orientation:                          
 ---------------------------------------------------------------------
 Center     Atomic      Atomic             Coordinates (Angstroms)
 Number     Number       Type             X           Y           Z
 ---------------------------------------------------------------------
      1          6           0       -0.057272   -2.450339    0.189813
      2          7           0       -0.016376   -1.006670    0.051120
      3          6           0       -1.230151   -0.313551   -0.019279
      4          6           0       -1.308359    0.979810   -0.572069
      5          6           0       -2.529889    1.641035   -0.655022
      6          6           0       -3.704866    1.032641   -0.207325
      7          6           0       -3.637636   -0.255606    0.320063
      8          6           0       -2.418553   -0.926298    0.414971
      9          6           0        1.233374   -0.347816    0.051668
     10          6           0        1.464708    0.752695    0.892014
     11          6           0        2.704107    1.388203    0.899721
     12          6           0        3.741486    0.928439    0.086019
     13          6           0        3.521913   -0.173138   -0.741182
     14          6           0        2.278140   -0.802366   -0.766254
     15          1           0       -0.454903   -2.756575    1.172831
     16          1           0        0.959438   -2.848530    0.108489
     17          1           0       -0.677478   -2.909206   -0.596970
     18          1           0       -0.405425    1.459844   -0.951574
     19          1           0       -2.566270    2.643755   -1.087141
     20          1           0       -4.662436    1.553832   -0.277615
     21          1           0       -4.547916   -0.749185    0.668313
     22          1           0       -2.392641   -1.931888    0.837057
     23          1           0        0.662357    1.099720    1.546469
     24          1           0        2.866448    2.243491    1.559801
     25          1           0        4.714951    1.424174    0.098283
     26          1           0        4.323975   -0.539298   -1.386304
     27          1           0        2.106355   -1.645353   -1.439466
 ---------------------------------------------------------------------
                    Distance matrix (angstroms):
                    1          2          3          4          5
     1  C    0.000000
     2  N    1.450893   0.000000
     3  C    2.446472   1.399507   0.000000
     4  C    3.729827   2.450242   1.408715   0.000000
     5  C    4.854578   3.718431   2.431851   1.391487   0.000000
     6  C    5.059033   4.222623   2.823440   2.424681   1.396834
     7  C    4.201526   3.708093   2.431974   2.783467   2.403153
     8  C    2.819405   2.430906   1.405821   2.416615   2.783609
     9  C    2.470923   1.412786   2.464785   2.934629   4.314753
    10  C    3.615099   2.448689   3.038025   3.144045   4.374845
    11  C    4.781589   3.722441   4.383938   4.293347   5.465882
    12  C    5.085025   4.226983   5.125504   5.092803   6.355083
    13  C    4.343152   3.720485   4.808635   4.968844   6.318462
    14  C    3.013973   2.444309   3.620085   4.009593   5.394417
    15  H    1.103728   2.124314   2.826747   4.211133   5.194766
    16  H    1.094929   2.085175   3.352125   4.501361   5.737120
    17  H    1.101927   2.115827   2.715990   3.939934   4.913196
    18  H    4.088216   2.690807   2.166628   1.090754   2.152701
    19  H    5.820265   4.595999   3.416315   2.148570   1.092474
    20  H    6.120409   5.315084   3.915922   3.415559   2.167440
    21  H    4.825843   4.580620   3.416156   3.875913   3.396586
    22  H    2.478238   2.668401   2.168803   3.411640   3.874392
    23  H    3.867984   2.670885   2.833811   2.895911   3.915357
    24  H    5.697109   4.598950   5.080756   4.854974   5.864201
    25  H    6.147711   5.319462   6.194977   6.076766   7.287126
    26  H    5.033046   4.596006   5.724337   5.890148   7.229390
    27  H    2.825568   2.671282   3.863017   4.393646   5.736764
                    6          7          8          9         10
     6  C    0.000000
     7  C    1.393643   0.000000
     8  C    2.424726   1.394632   0.000000
     9  C    5.134098   4.879271   3.715267   0.000000
    10  C    5.292580   5.232371   4.257500   1.403859   0.000000
    11  C    6.513594   6.576915   5.642122   2.428170   1.392853
    12  C    7.452856   7.477177   6.441610   2.814361   2.421618
    13  C    7.346104   7.238245   6.098613   2.428278   2.785066
    14  C    6.282994   6.039490   4.844542   1.402551   2.414486
    15  H    5.179310   4.136647   2.789299   3.147922   4.009831
    16  H    6.076098   5.282150   3.898684   2.516315   3.719950
    17  H    4.985485   4.079838   2.826180   3.260799   4.496171
    18  H    3.409211   3.873889   3.407903   2.638142   2.719609
    19  H    2.160131   3.396225   3.876008   4.968267   4.872570
    20  H    1.092484   2.163678   3.415513   6.203650   6.289018
    21  H    2.156938   1.092478   2.151682   5.827921   6.201397
    22  H    3.406039   2.151096   1.090889   4.034118   4.699909
    23  H    4.706690   4.672356   3.857077   2.157742   1.092019
    24  H    6.911661   7.077114   6.268129   3.414127   2.152507
    25  H    8.434454   8.522708   7.517439   3.906853   3.412474
    26  H    8.265789   8.147356   6.989710   3.414123   3.877549
    27  H    6.516143   6.166099   4.942749   2.160828   3.405605
                   11         12         13         14         15
    11  C    0.000000
    12  C    1.396299   0.000000
    13  C    2.408144   1.394972   0.000000
    14  C    2.784873   2.421453   1.394104   0.000000
    15  H    5.218536   5.689479   5.113967   3.879242   0.000000
    16  H    4.649712   4.691033   3.800781   2.586685   1.772468
    17  H    5.669474   5.892473   5.014155   3.633609   1.790261
    18  H    3.619616   4.307651   4.258507   3.514749   4.721624
    19  H    5.770694   6.641264   6.717183   5.953741   6.223256
    20  H    7.461870   8.435001   8.377404   7.345886   6.195703
    21  H    7.563981   8.477480   8.212225   6.975375   4.586600
    22  H    6.083073   6.809776   6.369144   5.065830   2.132530
    23  H    2.161076   3.412226   3.876929   3.402555   4.032231
    24  H    1.092509   2.160344   3.400625   3.877355   6.015129
    25  H    2.164969   1.092492   2.163203   3.412177   6.735036
    26  H    3.400757   2.159000   1.092501   2.153858   5.856891
    27  H    3.877057   3.409569   2.158431   1.092406   3.823474
                   16         17         18         19         20
    16  H    0.000000
    17  H    1.783494   0.000000
    18  H    4.642054   4.391851   0.000000
    19  H    6.635160   5.885846   2.467646   0.000000
    20  H    7.150898   5.991710   4.311055   2.497434   0.000000
    21  H    5.920439   4.609438   4.966293   4.303555   2.492345
    22  H    3.550702   2.439953   4.318804   4.966809   4.306356
    23  H    4.212448   4.739302   2.740451   4.443420   5.646850
    24  H    5.627759   6.615237   4.198365   6.056479   7.780477
    25  H    5.688583   6.952687   5.227019   7.477218   9.385814
    26  H    4.345925   5.590532   5.152939   7.595841   9.293329
    27  H    2.271391   3.171254   4.023596   6.352481   7.576359
                   21         22         23         24         25
    21  H    0.000000
    22  H    2.464238   0.000000
    23  H    5.597905   4.361986   0.000000
    24  H    8.045101   6.753826   2.483226   0.000000
    25  H    9.531481   7.894733   4.315789   2.494851   0.000000
    26  H    9.109113   7.210796   4.969405   4.306720   2.492405
    27  H    7.037412   5.050309   4.305388   4.969552   4.311780
                   26         27
    26  H    0.000000
    27  H    2.478714   0.000000
 Stoichiometry    C13H13N
 Framework group  C1[X(C13H13N)]
 Deg. of freedom    75
 Full point group                 C1      NOp   1
 Largest Abelian subgroup         C1      NOp   1
 Largest concise Abelian subgroup C1      NOp   1
                         Standard orientation:                         
 ---------------------------------------------------------------------
 Center     Atomic      Atomic             Coordinates (Angstroms)
 Number     Number       Type             X           Y           Z
 ---------------------------------------------------------------------
      1          6           0        0.066298    2.438361    0.173080
      2          7           0        0.021032    0.993888    0.044476
      3          6           0        1.232708    0.296425   -0.018824
      4          6           0        1.307774   -1.001040   -0.562355
      5          6           0        2.527330   -1.666724   -0.638420
      6          6           0        3.703438   -1.058940   -0.192870
      7          6           0        3.639379    0.233198    0.325315
      8          6           0        2.422280    0.908424    0.413273
      9          6           0       -1.230819    0.339040    0.047378
     10          6           0       -1.467189   -0.754781    0.895024
     11          6           0       -2.708627   -1.386265    0.904940
     12          6           0       -3.743059   -0.928940    0.086127
     13          6           0       -3.518470    0.166078   -0.748403
     14          6           0       -2.272647    0.791146   -0.775631
     15          1           0        0.463132    2.750244    1.154644
     16          1           0       -0.948985    2.839207    0.087098
     17          1           0        0.689388    2.889695   -0.615779
     18          1           0        0.403996   -1.480855   -0.940122
     19          1           0        2.561282   -2.672574   -1.063404
     20          1           0        4.659461   -1.583662   -0.257741
     21          1           0        4.550604    0.726314    0.671745
     22          1           0        2.398824    1.917040    0.828223
     23          1           0       -0.667135   -1.099743    1.553371
     24          1           0       -2.874896   -2.236361    1.570725
     25          1           0       -4.718127   -1.421471    0.100101
     26          1           0       -4.318191    0.530239   -1.397551
     27          1           0       -2.096950    1.628819   -1.454443
 ---------------------------------------------------------------------
 Rotational constants (GHZ):           1.5944900           0.4240371           0.3640750
 Standard basis: def2SVP (5D, 7F)
 There are   275 symmetry adapted cartesian basis functions of A   symmetry.
 There are   261 symmetry adapted basis functions of A   symmetry.
   261 basis functions,   441 primitive gaussians,   275 cartesian basis functions
    49 alpha electrons       49 beta electrons
       nuclear repulsion energy       812.9790822818 Hartrees.
 NAtoms=   27 NActive=   27 NUniq=   27 SFac= 1.00D+00 NAtFMM=   60 NAOKFM=F Big=F
 Integral buffers will be    131072 words long.
 Raffenetti 2 integral format.
 Two-electron integral symmetry is turned on.
 Nuclear repulsion after empirical dispersion term =      812.9617531336 Hartrees.
 One-electron integrals computed using PRISM.
   1 Symmetry operations used in ECPInt.
 ECPInt:  NShTT=    7626 NPrTT=   27482 LenC2=    7290 LenP2D=   19482.
 LDataN:  DoStor=T MaxTD1= 4 Len=   56
 NBasis=   261 RedAO= T EigKep=  2.71D-04  NBF=   261
 NBsUse=   261 1.00D-06 EigRej= -1.00D+00 NBFU=   261
 Initial guess from the checkpoint file:  "prod_5a_1.chk"
 B after Tr=     0.000000    0.000000   -0.000000
         Rot=    0.999989    0.004083    0.001943    0.000817 Ang=   0.53 deg.
 ExpMin= 1.22D-01 ExpMax= 1.71D+03 ExpMxC= 2.58D+02 IAcc=3 IRadAn=         5 AccDes= 0.00D+00
 Harris functional with IExCor= 4639 and IRadAn=       5 diagonalized for initial guess.
 HarFok:  IExCor= 4639 AccDes= 0.00D+00 IRadAn=         5 IDoV= 1 UseB2=F ITyADJ=14
 ICtDFT=  3500011 ScaDFX=  1.000000  1.000000  1.000000  1.000000
 FoFCou: FMM=F IPFlag=           0 FMFlag=      100000 FMFlg1=           0
         NFxFlg=           0 DoJE=T BraDBF=F KetDBF=T FulRan=T
         wScrn=  0.000000 ICntrl=       500 IOpCl=  0 I1Cent=   200000004 NGrid=           0
         NMat0=    1 NMatS0=      1 NMatT0=    0 NMatD0=    1 NMtDS0=    0 NMtDT0=    0
 Petite list used in FoFCou.
 Requested convergence on RMS density matrix=1.00D-08 within 128 cycles.
 Requested convergence on MAX density matrix=1.00D-06.
 Requested convergence on             energy=1.00D-06.
 No special actions if energy rises.
 Integral accuracy reduced to 1.0D-05 until final iterations.
 Initial convergence to 1.0D-05 achieved.  Increase integral accuracy.
 SCF Done:  E(RwB97XD) =  -557.375600816     A.U. after   13 cycles
            NFock= 13  Conv=0.82D-08     -V/T= 2.0117
   1 Symmetry operations used in ECPInt.
 ECPInt:  NShTT=    7626 NPrTT=   27482 LenC2=    7290 LenP2D=   19482.
 LDataN:  DoStor=T MaxTD1= 5 Len=  102
 Calling FoFJK, ICntrl=      2127 FMM=F ISym2X=0 I1Cent= 0 IOpClX= 0 NMat=1 NMatS=1 NMatT=0.
 ***** Axes restored to original set *****
 -------------------------------------------------------------------
 Center     Atomic                   Forces (Hartrees/Bohr)
 Number     Number              X              Y              Z
 -------------------------------------------------------------------
      1        6           0.002227413    0.003382535    0.000108084
      2        7          -0.001929652   -0.001729346   -0.001541603
      3        6           0.003265402   -0.001568923    0.000412463
      4        6          -0.001563891    0.000877247    0.000045332
      5        6           0.000747954   -0.001966524    0.001022970
      6        6          -0.000475151   -0.000587899    0.000211667
      7        6           0.000971854    0.001557887   -0.000822572
      8        6          -0.002080322    0.000784456   -0.000070706
      9        6          -0.000532888   -0.000115336    0.000293940
     10        6           0.000821165   -0.000414361    0.000037831
     11        6          -0.000225954   -0.000693878   -0.001037160
     12        6          -0.000733796   -0.000634010   -0.000074564
     13        6          -0.000177877    0.000529011    0.000863628
     14        6           0.000166663    0.001508173   -0.000172652
     15        1           0.000321297   -0.000915791    0.000267482
     16        1           0.000246734   -0.000770071    0.000308649
     17        1          -0.000392336   -0.000457101    0.000301798
     18        1           0.000157028    0.000244059    0.000405413
     19        1           0.000346643   -0.000018025   -0.000178818
     20        1           0.000618544   -0.000221244    0.000034826
     21        1           0.000151433   -0.000347909    0.000113683
     22        1          -0.001314448    0.001410350   -0.000207934
     23        1           0.000063156    0.000276907   -0.000368789
     24        1          -0.000227175   -0.000129309    0.000065475
     25        1          -0.000495993   -0.000211260    0.000016461
     26        1          -0.000224448   -0.000140460   -0.000049344
     27        1           0.000268644    0.000350823    0.000014440
 -------------------------------------------------------------------
 Cartesian Forces:  Max     0.003382535 RMS     0.000943419

 GradGradGradGradGradGradGradGradGradGradGradGradGradGradGradGradGradGrad
 Berny optimization.
 Using GEDIIS/GDIIS optimizer.
 FormGI is forming the generalized inverse of G from B-inverse, IUseBI=4.
 Internal  Forces:  Max     0.006007933 RMS     0.001083484
 Search for a local minimum.
 Step number   2 out of a maximum of  145
 All quantities printed in internal units (Hartrees-Bohrs-Radians)
 Mixed Optimization -- RFO/linear search
 Update second derivatives using D2CorX and points    1    2
 DE= -5.41D-03 DEPred=-5.98D-03 R= 9.04D-01
 TightC=F SS=  1.41D+00  RLast= 2.20D-01 DXNew= 5.0454D-01 6.5941D-01
 Trust test= 9.04D-01 RLast= 2.20D-01 DXMaxT set to 5.05D-01
 ITU=  1  0
 Use linear search instead of GDIIS.
     Eigenvalues ---    0.00861   0.01123   0.01255   0.01367   0.01890
     Eigenvalues ---    0.01935   0.02180   0.02184   0.02259   0.02262
     Eigenvalues ---    0.02282   0.02284   0.02333   0.02333   0.02336
[...]
 Alpha virt. eigenvalues --   22.26722  22.54978  22.68034  22.69273  22.69732
 Alpha virt. eigenvalues --   22.71364  22.84186  22.85985  22.90547  22.94471
 Alpha virt. eigenvalues --   23.28589  23.34436  33.14709
          Condensed to atoms (all electrons):
               1          2          3          4          5          6
     1  C    4.932192   0.312552  -0.077534   0.012534  -0.000832   0.000519
     2  N    0.312552   6.418209   0.428124  -0.065131   0.002541   0.000379
     3  C   -0.077534   0.428124   4.936365   0.397915  -0.016019  -0.068473
     4  C    0.012534  -0.065131   0.397915   5.080691   0.471945  -0.001857
     5  C   -0.000832   0.002541  -0.016019   0.471945   4.894624   0.459890
     6  C    0.000519   0.000379  -0.068473  -0.001857   0.459890   4.941717
     7  C   -0.002230   0.002698  -0.001815  -0.056228  -0.003478   0.476098
     8  C   -0.007759  -0.090660   0.382494   0.021525  -0.068042   0.012176
     9  C   -0.076266   0.263595  -0.147560   0.008161  -0.002547   0.000231
    10  C   -0.003035  -0.055209   0.027180  -0.002403   0.002654   0.000099
    11  C    0.000466   0.008284  -0.003561  -0.002206   0.000124  -0.000017
    12  C   -0.000121   0.000940   0.001063   0.000408   0.000007   0.000002
    13  C    0.000899   0.004730  -0.000230  -0.000123  -0.000051   0.000001
    14  C   -0.008239  -0.039640  -0.009905   0.004864   0.000051   0.000054
    15  H    0.407099  -0.052228  -0.005740  -0.000441  -0.000135   0.000135
    16  H    0.407384  -0.026554   0.007351  -0.000483   0.000062  -0.000020
    17  H    0.413955  -0.045302  -0.005876   0.000965  -0.000001  -0.000280
    18  H   -0.000193  -0.003528  -0.047440   0.432364  -0.038593   0.007070
    19  H    0.000016  -0.000160   0.013190  -0.055693   0.439813  -0.057031
    20  H   -0.000000   0.000020  -0.003614   0.012187  -0.059596   0.446386
    21  H   -0.000025  -0.000111   0.013015  -0.002717   0.009980  -0.054547
    22  H    0.005097  -0.004863  -0.057351   0.003053  -0.000357   0.005438
    23  H    0.000081  -0.003708   0.001171  -0.000572   0.000063  -0.000013
    24  H    0.000004  -0.000218   0.000057  -0.000096  -0.000011  -0.000001
    25  H   -0.000002   0.000013   0.000004   0.000001  -0.000000   0.000000
    26  H    0.000028  -0.000242  -0.000021   0.000006   0.000000  -0.000000
    27  H   -0.002567   0.006176   0.000770  -0.000133   0.000011   0.000000
               7          8          9         10         11         12
     1  C   -0.002230  -0.007759  -0.076266  -0.003035   0.000466  -0.000121
     2  N    0.002698  -0.090660   0.263595  -0.055209   0.008284   0.000940
     3  C   -0.001815   0.382494  -0.147560   0.027180  -0.003561   0.001063
     4  C   -0.056228   0.021525   0.008161  -0.002403  -0.002206   0.000408
     5  C   -0.003478  -0.068042  -0.002547   0.002654   0.000124   0.000007
     6  C    0.476098   0.012176   0.000231   0.000099  -0.000017   0.000002
     7  C    4.869030   0.448893  -0.000145   0.000138   0.000085  -0.000004
     8  C    0.448893   5.202879   0.001482   0.002246  -0.000951   0.000078
     9  C   -0.000145   0.001482   5.060338   0.409609  -0.012394  -0.080514
    10  C    0.000138   0.002246   0.409609   5.113317   0.406783   0.030781
    11  C    0.000085  -0.000951  -0.012394   0.406783   4.933658   0.436255
    12  C   -0.000004   0.000078  -0.080514   0.030781   0.436255   4.945831
    13  C   -0.000005   0.000104  -0.031599  -0.057283  -0.003464   0.456683
    14  C   -0.000025   0.000310   0.472855   0.018548  -0.053794   0.008207
    15  H   -0.001066   0.008102  -0.006622   0.004067  -0.000910   0.000069
    16  H    0.000113   0.000588  -0.008041  -0.000152   0.000480  -0.000143
    17  H    0.001538  -0.003907   0.014292  -0.001365   0.000165  -0.000032
    18  H   -0.001787   0.006981   0.002216  -0.003810  -0.000414   0.000142
    19  H    0.010786  -0.003358   0.000080  -0.000055   0.000014  -0.000004
    20  H   -0.058938   0.012835   0.000000   0.000002  -0.000000   0.000000
    21  H    0.436385  -0.054864   0.000027  -0.000003  -0.000000   0.000000
    22  H   -0.022462   0.429900  -0.001186   0.000241  -0.000006  -0.000001
    23  H   -0.000024   0.001116  -0.041532   0.431632  -0.041235   0.007801
    24  H    0.000001   0.000005   0.012745  -0.054045   0.440745  -0.056699
    25  H   -0.000000   0.000000  -0.003641   0.011658  -0.055944   0.443540
    26  H    0.000000  -0.000003   0.014482  -0.004452   0.011472  -0.057421
    27  H   -0.000003  -0.000009  -0.051716   0.008612  -0.002610   0.007909
              13         14         15         16         17         18
     1  C    0.000899  -0.008239   0.407099   0.407384   0.413955  -0.000193
     2  N    0.004730  -0.039640  -0.052228  -0.026554  -0.045302  -0.003528
     3  C   -0.000230  -0.009905  -0.005740   0.007351  -0.005876  -0.047440
     4  C   -0.000123   0.004864  -0.000441  -0.000483   0.000965   0.432364
     5  C   -0.000051   0.000051  -0.000135   0.000062  -0.000001  -0.038593
     6  C    0.000001   0.000054   0.000135  -0.000020  -0.000280   0.007070
     7  C   -0.000005  -0.000025  -0.001066   0.000113   0.001538  -0.001787
     8  C    0.000104   0.000310   0.008102   0.000588  -0.003907   0.006981
     9  C   -0.031599   0.472855  -0.006622  -0.008041   0.014292   0.002216
    10  C   -0.057283   0.018548   0.004067  -0.000152  -0.001365  -0.003810
    11  C   -0.003464  -0.053794  -0.000910   0.000480   0.000165  -0.000414
    12  C    0.456683   0.008207   0.000069  -0.000143  -0.000032   0.000142
    13  C    4.871129   0.463643   0.000199  -0.000178  -0.000265   0.000259
    14  C    0.463643   5.035702   0.003248  -0.004042  -0.000662   0.000117
    15  H    0.000199   0.003248   0.589004  -0.026105  -0.048751   0.000022
    16  H   -0.000178  -0.004042  -0.026105   0.517816  -0.012395  -0.000021
    17  H   -0.000265  -0.000662  -0.048751  -0.012395   0.556240  -0.000001
    18  H    0.000259   0.000117   0.000022  -0.000021  -0.000001   0.505826
    19  H    0.000003  -0.000014  -0.000000  -0.000000  -0.000000  -0.007026
    20  H   -0.000000   0.000000   0.000001  -0.000000  -0.000000  -0.000104
    21  H    0.000000  -0.000000  -0.000002  -0.000000  -0.000015   0.000032
    22  H    0.000010  -0.000065   0.003037   0.000426  -0.007172  -0.000155
    23  H   -0.002030   0.008246   0.000459  -0.000171  -0.000030  -0.000744
    24  H    0.010514  -0.003376   0.000002   0.000002  -0.000001  -0.000001
    25  H   -0.055729   0.011062  -0.000000  -0.000001   0.000000   0.000003
    26  H    0.441603  -0.055398  -0.000009   0.000037   0.000007  -0.000006
    27  H   -0.033217   0.425195   0.000622  -0.002932  -0.000703  -0.000038
              19         20         21         22         23         24
     1  C    0.000016  -0.000000  -0.000025   0.005097   0.000081   0.000004
     2  N   -0.000160   0.000020  -0.000111  -0.004863  -0.003708  -0.000218
     3  C    0.013190  -0.003614   0.013015  -0.057351   0.001171   0.000057
     4  C   -0.055693   0.012187  -0.002717   0.003053  -0.000572  -0.000096
     5  C    0.439813  -0.059596   0.009980  -0.000357   0.000063  -0.000011
     6  C   -0.057031   0.446386  -0.054547   0.005438  -0.000013  -0.000001
     7  C    0.010786  -0.058938   0.436385  -0.022462  -0.000024   0.000001
     8  C   -0.003358   0.012835  -0.054864   0.429900   0.001116   0.000005
     9  C    0.000080   0.000000   0.000027  -0.001186  -0.041532   0.012745
    10  C   -0.000055   0.000002  -0.000003   0.000241   0.431632  -0.054045
    11  C    0.000014  -0.000000  -0.000000  -0.000006  -0.041235   0.440745
    12  C   -0.000004   0.000000   0.000000  -0.000001   0.007801  -0.056699
    13  C    0.000003  -0.000000   0.000000   0.000010  -0.002030   0.010514
    14  C   -0.000014   0.000000  -0.000000  -0.000065   0.008246  -0.003376
    15  H   -0.000000   0.000001  -0.000002   0.003037   0.000459   0.000002
    16  H   -0.000000  -0.000000  -0.000000   0.000426  -0.000171   0.000002
    17  H   -0.000000  -0.000000  -0.000015  -0.007172  -0.000030  -0.000001
    18  H   -0.007026  -0.000104   0.000032  -0.000155  -0.000744  -0.000001
    19  H    0.550345  -0.006926  -0.000178   0.000039  -0.000002   0.000001
    20  H   -0.006926   0.551615  -0.006975  -0.000149   0.000001   0.000000
    21  H   -0.000178  -0.006975   0.552548  -0.006705  -0.000001   0.000000
    22  H    0.000039  -0.000149  -0.006705   0.523535  -0.000002   0.000000
    23  H   -0.000002   0.000001  -0.000001  -0.000002   0.498816  -0.006390
    24  H    0.000001   0.000000   0.000000   0.000000  -0.006390   0.540839
    25  H   -0.000000   0.000000   0.000000   0.000000  -0.000080  -0.006789
    26  H    0.000000  -0.000000  -0.000000  -0.000000   0.000016  -0.000141
    27  H   -0.000000   0.000000   0.000000   0.000003  -0.000146   0.000033
              25         26         27
     1  C   -0.000002   0.000028  -0.002567
     2  N    0.000013  -0.000242   0.006176
     3  C    0.000004  -0.000021   0.000770
     4  C    0.000001   0.000006  -0.000133
     5  C   -0.000000   0.000000   0.000011
     6  C    0.000000  -0.000000   0.000000
     7  C   -0.000000   0.000000  -0.000003
     8  C    0.000000  -0.000003  -0.000009
     9  C   -0.003641   0.014482  -0.051716
    10  C    0.011658  -0.004452   0.008612
    11  C   -0.055944   0.011472  -0.002610
    12  C    0.443540  -0.057421   0.007909
    13  C   -0.055729   0.441603  -0.033217
    14  C    0.011062  -0.055398   0.425195
    15  H   -0.000000  -0.000009   0.000622
    16  H   -0.000001   0.000037  -0.002932
    17  H    0.000000   0.000007  -0.000703
    18  H    0.000003  -0.000006  -0.000038
    19  H   -0.000000   0.000000  -0.000000
    20  H    0.000000  -0.000000   0.000000
    21  H    0.000000  -0.000000   0.000000
    22  H    0.000000  -0.000000   0.000003
    23  H   -0.000080   0.000016  -0.000146
    24  H   -0.006789  -0.000141   0.000033
    25  H    0.541642  -0.006850  -0.000090
    26  H   -0.006850   0.543340  -0.007100
    27  H   -0.000090  -0.007100   0.511448
 Mulliken charges:
               1
     1  C   -0.314024
     2  N   -0.060705
     3  C    0.236439
     4  C   -0.258536
     5  C   -0.092103
     6  C   -0.167959
     7  C   -0.097553
     8  C   -0.302163
     9  C    0.203649
    10  C   -0.285756
    11  C   -0.061025
    12  C   -0.144778
    13  C   -0.065601
    14  C   -0.276942
    15  H    0.125944
    16  H    0.146979
    17  H    0.139597
    18  H    0.148829
    19  H    0.116159
    20  H    0.113256
    21  H    0.114157
    22  H    0.129697
    23  H    0.147278
    24  H    0.122821
    25  H    0.121204
    26  H    0.120651
    27  H    0.140486
 Sum of Mulliken charges =  -0.00000
 Mulliken charges with hydrogens summed into heavy atoms:
               1
     1  C    0.098496
     2  N   -0.060705
     3  C    0.236439
     4  C   -0.109707
     5  C    0.024057
     6  C   -0.054703
     7  C    0.016603
     8  C   -0.172467
     9  C    0.203649
    10  C   -0.138478
    11  C    0.061796
    12  C   -0.023574
    13  C    0.055050
    14  C   -0.136456
 Electronic spatial extent (au):  <R**2>=           3048.3386
 Charge=              0.0000 electrons
 Dipole moment (field-independent basis, Debye):
    X=             -1.0594    Y=              0.7808    Z=              0.2280  Tot=              1.3356
 Quadrupole moment (field-independent basis, Debye-Ang):
   XX=            -78.1509   YY=            -76.5661   ZZ=            -84.3210
   XY=              1.4963   XZ=              2.7878   YZ=             -0.7808
 Traceless Quadrupole moment (field-independent basis, Debye-Ang):
   XX=              1.5284   YY=              3.1132   ZZ=             -4.6416
   XY=              1.4963   XZ=              2.7878   YZ=             -0.7808
 Octapole moment (field-independent basis, Debye-Ang**2):
  XXX=             -8.4415  YYY=              9.1549  ZZZ=              1.6812  XYY=              3.4649
  XXY=             -9.1579  XXZ=             -2.9900  XZZ=            -10.1504  YZZ=              1.2677
  YYZ=              0.1292  XYZ=             14.5677
 Hexadecapole moment (field-independent basis, Debye-Ang**3):
 XXXX=          -2927.7602 YYYY=           -789.1437 ZZZZ=           -306.4848 XXXY=             36.3671
 XXXZ=             70.7630 YYYX=             -5.8378 YYYZ=              4.3211 ZZZX=              9.1162
 ZZZY=            -12.9240 XXYY=           -631.2161 XXZZ=           -597.4931 YYZZ=           -177.5334
 XXYZ=             -8.0086 YYXZ=            -13.9911 ZZXY=              4.9352
 N-N= 8.141984931264D+02 E-N=-2.922836806863D+03  KE= 5.547782066955D+02
 Breneman (CHELPG) radii used.
 Read replacement radii for each type of atom:
 Atom Element Radius
    1     6    1.50
    2     7    1.70
    3     6    1.50
    4     6    1.50
    5     6    1.50
    6     6    1.50
    7     6    1.50
    8     6    1.50
    9     6    1.50
   10     6    1.50
   11     6    1.50
   12     6    1.50
   13     6    1.50
   14     6    1.50
   15     1    1.45
   16     1    1.45
   17     1    1.45
   18     1    1.45
   19     1    1.45
   20     1    1.45
   21     1    1.45
   22     1    1.45
   23     1    1.45
   24     1    1.45
   25     1    1.45
   26     1    1.45
   27     1    1.45
 Generate Potential Derived Charges using the Breneman model, NDens= 1.
 Grid spacing= 0.300 Box extension= 2.800
 NStep X,Y,Z=   51     39     31   Total possible points=       61659
 Number of Points to Fit=   17049

 **********************************************************************

            Electrostatic Properties Using The SCF Density.

 **********************************************************************

       Atomic Center    1 is at   0.032739  2.448050  0.232637
       Atomic Center    2 is at   0.025183  1.029910 -0.053966
       Atomic Center    3 is at   1.228062  0.324091 -0.066739
       Atomic Center    4 is at   1.286129 -0.992967 -0.567971
       Atomic Center    5 is at   2.488688 -1.685929 -0.606572
       Atomic Center    6 is at   3.673975 -1.095616 -0.162749
       Atomic Center    7 is at   3.628133  0.207554  0.321599
       Atomic Center    8 is at   2.426427  0.913273  0.375275
       Atomic Center    9 is at  -1.218915  0.351420  0.004028
       Atomic Center   10 is at  -1.455107 -0.642209  0.963470
       Atomic Center   11 is at  -2.687572 -1.286998  1.020302
       Atomic Center   12 is at  -3.709015 -0.936926  0.136913
       Atomic Center   13 is at  -3.482919  0.057583 -0.813317
       Atomic Center   14 is at  -2.243675  0.690119 -0.887448
       Atomic Center   15 is at   0.297702  2.667175  1.284683
       Atomic Center   16 is at  -0.967048  2.859981  0.050346
       Atomic Center   17 is at   0.745298  2.977608 -0.419081
       Atomic Center   18 is at   0.376952 -1.469009 -0.937843
       Atomic Center   19 is at   2.500343 -2.704318 -1.002432
       Atomic Center   20 is at   4.616794 -1.644228 -0.198969
       Atomic Center   21 is at   4.541664  0.692472  0.674197
       Atomic Center   22 is at   2.430820  1.927585  0.773615
       Atomic Center   23 is at  -0.658421 -0.909354  1.660872
       Atomic Center   24 is at  -2.855706 -2.061538  1.771980
       Atomic Center   25 is at  -4.677198 -1.439067  0.188439
       Atomic Center   26 is at  -4.272525  0.334259 -1.515511
       Atomic Center   27 is at  -2.056647  1.450399 -1.649110
   17049 points will be used for fitting atomic charges
 Fitting point charges to electrostatic potential
 Charges from ESP fit, RMS=   0.00394 RRMS=   0.39202:
 ESP charges:
               1
     1  C    0.084579
     2  N   -0.464090
     3  C    0.412747
     4  C   -0.241034
     5  C   -0.044388
     6  C   -0.176846
     7  C   -0.057123
     8  C   -0.281118
     9  C    0.367527
    10  C   -0.136031
    11  C   -0.101173
    12  C   -0.126996
    13  C   -0.066119
    14  C   -0.235913
    15  H    0.010173
    16  H    0.024988
    17  H    0.028459
    18  H    0.081711
    19  H    0.093696
    20  H    0.098454
    21  H    0.093150
    22  H    0.131071
    23  H    0.078113
    24  H    0.102273
    25  H    0.097690
    26  H    0.092048
    27  H    0.134150
 Sum of ESP charges =   0.00000
 ESP charges with hydrogens summed into heavy atoms:
               1
     1  C    0.148200
     2  N   -0.464090
     3  C    0.412747
     4  C   -0.159324
     5  C    0.049309
     6  C   -0.078392
     7  C    0.036027
     8  C   -0.150047
     9  C    0.367527
    10  C   -0.057918
    11  C    0.001100
    12  C   -0.029306
    13  C    0.025930
    14  C   -0.101763
 Charge=   0.00000 Dipole=    -1.0439     0.8135     0.2111 Tot=     1.3402
 -----------------------------------------------------------------

              Electrostatic Properties (Atomic Units)

 -----------------------------------------------------------------
    Center     Electric         -------- Electric Field --------
               Potential          X             Y             Z
 -----------------------------------------------------------------
    1 Atom    -14.735190
    2 Atom    -18.359855
    3 Atom    -14.728166
    4 Atom    -14.779999
    5 Atom    -14.775231
    6 Atom    -14.783710
    7 Atom    -14.774628
    8 Atom    -14.778212
    9 Atom    -14.725684
   10 Atom    -14.768090
   11 Atom    -14.764736
   12 Atom    -14.767546
   13 Atom    -14.764031
   14 Atom    -14.766794
   15 Atom     -1.114443
   16 Atom     -1.103697
   17 Atom     -1.110240
   18 Atom     -1.113644
   19 Atom     -1.114744
   20 Atom     -1.117470
   21 Atom     -1.113957
   22 Atom     -1.109902
   23 Atom     -1.103167
   24 Atom     -1.104268
   25 Atom     -1.105025
   26 Atom     -1.103200
   27 Atom     -1.100078
 -----------------------------------------------------------------
 Unable to Open any file for archive entry.
 1\1\GINC-NOTCH104\SP\RwB97XD\def2TZVP\C13H13N1\U1366379\17-Feb-2026\0\
 \#N Guess=Read Geom=Check Integral(Ultrafine) Density Pop=(ChelpG,Read
 Radii) NMR wB97XD def2TZVP\\prod_5a_1\\0,1\C,0,-0.0276804652,-2.455621
 3579,0.3024671689\N,0,-0.0228458856,-1.0485276627,-0.0342611424\C,0,-1
 .2276446572,-0.3471974067,-0.0773518108\C,0,-1.2871840131,0.9510657493
 ,-0.6252707484\C,0,-2.4915101043,1.6386317768,-0.6937157261\C,0,-3.677
 1036637,1.060906222,-0.2344154774\C,0,-3.6297530709,-0.224112746,0.296
 082633\C,0,-2.4263112333,-0.9238950564,0.3800428287\C,0,1.2190578312,-
 0.3646996596,0.0050630965\C,0,1.4481361166,0.6630497785,0.9296534587\C
 ,0,2.6785072335,1.313122857,0.9689618365\C,0,3.704886968,0.9349712755,
 0.103040707\C,0,3.4858652511,-0.0933001067,-0.812269074\C,0,2.24875890
 05,-0.7317618784,-0.8693286411\H,0,-0.2967398822,-2.6380653206,1.36045
 69222\H,0,0.974073881,-2.8707771393,0.1392967227\H,0,-0.7358102119,-3.
 0100943657,-0.3331582011\H,0,-0.3777055099,1.4163924296,-1.0078212021\
 H,0,-2.504266742,2.6422921077,-1.125524263\H,0,-4.6212968956,1.6050732
 644,-0.2942194055\H,0,-4.54348243,-0.6989361735,0.6616656764\H,0,-2.42
 9624631,-1.9234420904,0.8141140721\H,0,0.6475785516,0.9523959297,1.613
 635348\H,0,2.8410789235,2.1143461043,1.6934007274\H,0,4.671406821,1.44
 15109005,0.1409515942\H,0,4.2793917472,-0.3923627376,-1.5007318447\H,0
 ,2.0672971709,-1.5191446939,-1.6043352558\\Version=ES64L-G16RevC.01\St
 ate=1-A\HF=-557.9592005\RMSD=1.661e-09\Dipole=0.4172496,-0.3025501,0.1
 023882\Quadrupole=1.148597,2.354683,-3.50328,1.0329568,-2.0916155,0.37
 28231\PG=C01 [X(C13H13N1)]\\@
 The archive entry for this job was punched.


 FLOATING POINT NUMBERS ARE LIKE SANDPILES:
 EVERY TIME THAT YOU MOVE ONE, YOU LOSE A LITTLE SAND 
 AND YOU PICK UP A LITTLE DIRT.
 Job cpu time:       0 days  1 hours 12 minutes 50.9 seconds.
 Elapsed time:       0 days  0 hours  9 minutes 23.7 seconds.
 File lengths (MBytes):  RWF=    165 Int=      0 D2E=      0 Chk=     25 Scr=      2
 Normal termination of Gaussian 16 at Tue Feb 17 16:32:21 2026.
