 Entering Gaussian System, Link 0=g16
 Input=prod_5i_2.com
 Output=prod_5i_2.log
 Initial command:
 /uufs/chpc.utah.edu/sys/installdir/gaussian16/C01/AVX/g16/l1.exe "/scratch/general/vast/u1366379/GAUSSSCRDIR/11028676-notchpeak.peaks/Gau-80597.inp" -scrdir="/scratch/general/vast/u1366379/GAUSSSCRDIR/11028676-notchpeak.peaks/"
 Entering Link 1 = /uufs/chpc.utah.edu/sys/installdir/gaussian16/C01/AVX/g16/l1.exe PID=     80600.
  
 Copyright (c) 1988-2019, Gaussian, Inc.  All Rights Reserved.
  
 This is part of the Gaussian(R) 16 program.  It is based on
 the Gaussian(R) 09 system (copyright 2009, Gaussian, Inc.),
 the Gaussian(R) 03 system (copyright 2003, Gaussian, Inc.),
 the Gaussian(R) 98 system (copyright 1998, Gaussian, Inc.),
 the Gaussian(R) 94 system (copyright 1995, Gaussian, Inc.),
 the Gaussian 92(TM) system (copyright 1992, Gaussian, Inc.),
 the Gaussian 90(TM) system (copyright 1990, Gaussian, Inc.),
 the Gaussian 88(TM) system (copyright 1988, Gaussian, Inc.),
 the Gaussian 86(TM) system (copyright 1986, Carnegie Mellon
 University), and the Gaussian 82(TM) system (copyright 1983,
 Carnegie Mellon University). Gaussian is a federally registered
 trademark of Gaussian, Inc.
  
 This software contains proprietary and confidential information,
 including trade secrets, belonging to Gaussian, Inc.
  
 This software is provided under written license and may be
 used, copied, transmitted, or stored only in accord with that
 written license.
  
 The following legend is applicable only to US Government
 contracts under FAR:
  
                    RESTRICTED RIGHTS LEGEND
  
 Use, reproduction and disclosure by the US Government is
 subject to restrictions as set forth in subparagraphs (a)
 and (c) of the Commercial Computer Software - Restricted
 Rights clause in FAR 52.227-19.
  
 Gaussian, Inc.
 340 Quinnipiac St., Bldg. 40, Wallingford CT 06492
  
  
 ---------------------------------------------------------------
 Warning -- This program may not be used in any manner that
 competes with the business of Gaussian, Inc. or will provide
 assistance to any competitor of Gaussian, Inc.  The licensee
 of this program is prohibited from giving any competitor of
 Gaussian, Inc. access to this program.  By using this program,
 the user acknowledges that Gaussian, Inc. is engaged in the
 business of creating and licensing software in the field of
 computational chemistry and represents and warrants to the
 licensee that it is not a competitor of Gaussian, Inc. and that
 it will not use this program in any manner prohibited above.
 ---------------------------------------------------------------
  

 Cite this work as:
 Gaussian 16, Revision C.01,
 M. J. Frisch, G. W. Trucks, H. B. Schlegel, G. E. Scuseria, 
 M. A. Robb, J. R. Cheeseman, G. Scalmani, V. Barone, 
 G. A. Petersson, H. Nakatsuji, X. Li, M. Caricato, A. V. Marenich, 
 J. Bloino, B. G. Janesko, R. Gomperts, B. Mennucci, H. P. Hratchian, 
 J. V. Ortiz, A. F. Izmaylov, J. L. Sonnenberg, D. Williams-Young, 
 F. Ding, F. Lipparini, F. Egidi, J. Goings, B. Peng, A. Petrone, 
 T. Henderson, D. Ranasinghe, V. G. Zakrzewski, J. Gao, N. Rega, 
 G. Zheng, W. Liang, M. Hada, M. Ehara, K. Toyota, R. Fukuda, 
 J. Hasegawa, M. Ishida, T. Nakajima, Y. Honda, O. Kitao, H. Nakai, 
 T. Vreven, K. Throssell, J. A. Montgomery, Jr., J. E. Peralta, 
 F. Ogliaro, M. J. Bearpark, J. J. Heyd, E. N. Brothers, K. N. Kudin, 
 V. N. Staroverov, T. A. Keith, R. Kobayashi, J. Normand, 
 K. Raghavachari, A. P. Rendell, J. C. Burant, S. S. Iyengar, 
 J. Tomasi, M. Cossi, J. M. Millam, M. Klene, C. Adamo, R. Cammi, 
 J. W. Ochterski, R. L. Martin, K. Morokuma, O. Farkas, 
 J. B. Foresman, and D. J. Fox, Gaussian, Inc., Wallingford CT, 2019.
 
 ******************************************
 Gaussian 16:  ES64L-G16RevC.01  3-Jul-2019
                17-Feb-2026 
 ******************************************
 %NProcShared=8
 Will use up to    8 processors via shared memory.
 %Mem=8GB
 %chk=prod_5i_2.chk
 ------------------------------------------------------
 #N OPT FREQ=NORAMAN Integral(Ultrafine) wB97XD def2SVP
 ------------------------------------------------------
 1/18=20,19=15,26=4,38=1/1,3;
 2/9=110,12=2,17=6,18=5,40=1/2;
 3/5=43,7=101,11=2,25=1,30=1,71=1,74=-58,75=-5/1,2,3;
 4//1;
 5/5=2,38=5/2;
 6/7=2,8=2,9=2,10=2,28=1/1;
 7//1,2,3,16;
 1/18=20,19=15,26=4/3(2);
 2/9=110/2;
 99//99;
 2/9=110/2;
 3/5=43,7=101,11=2,25=1,30=1,71=1,74=-58,75=-5/1,2,3;
 4/5=5,16=3,69=1/1;
 5/5=2,38=5/2;
 7//1,2,3,16;
 1/18=20,19=15,26=4/3(-5);
 2/9=110/2;
 6/7=2,8=2,9=2,10=2,19=2,28=1/1;
 99/9=1/99;
 ---------
 prod_5i_2
 ---------
 Symbolic Z-matrix:
 Charge =  0 Multiplicity = 1
 C                     0.07577   2.78187   1.48106 
 C                    -0.18376   2.31607   0.06487 
 N                    -0.0575    0.85417  -0.07666 
 C                     1.22193   0.23527  -0.15449 
 C                     2.40743   0.97051  -0.16684 
 C                     3.62867   0.33758  -0.24054 
 C                     3.69576  -1.04054  -0.30431 
 C                     2.53295  -1.78532  -0.29424 
 C                     1.31149  -1.15479  -0.2204 
 C                    -1.27253   0.07488  -0.06425 
 C                    -1.90109  -0.27708  -1.25861 
 C                    -3.0504   -1.03461  -1.24791 
 C                    -3.59249  -1.45495  -0.04812 
 C                    -2.97989  -1.11601   1.14348 
 C                    -1.83019  -0.35896   1.13831 
 H                     1.07224   2.49116   1.81655 
 H                    -0.00453   3.86679   1.57867 
 H                    -0.6362    2.33366   2.17582 
 H                     0.48829   2.79886  -0.65145 
 H                    -1.19477   2.59446  -0.25257 
 H                     2.37065   2.04377  -0.11832 
 H                     4.53597   0.91965  -0.24877 
 H                     4.65273  -1.53318  -0.36212 
 H                     2.58185  -2.86096  -0.34421 
 H                     0.40523  -1.73409  -0.21191 
 H                    -1.46814   0.05216  -2.18715 
 H                    -3.5277   -1.30113  -2.17688 
 H                    -4.49244  -2.04814  -0.04179 
 H                    -3.40205  -1.44657   2.07855 
 H                    -1.34049  -0.09916   2.06047 
 

 GradGradGradGradGradGradGradGradGradGradGradGradGradGradGradGradGradGrad
 Berny optimization.
 Initialization pass.
                           ----------------------------
                           !    Initial Parameters    !
                           ! (Angstroms and Degrees)  !
 --------------------------                            --------------------------
 ! Name  Definition              Value          Derivative Info.                !
 --------------------------------------------------------------------------------
 ! R1    R(1,2)                  1.5132         estimate D2E/DX2                !
 ! R2    R(1,16)                 1.0909         estimate D2E/DX2                !
 ! R3    R(1,17)                 1.0923         estimate D2E/DX2                !
 ! R4    R(1,18)                 1.0911         estimate D2E/DX2                !
 ! R5    R(2,3)                  1.4742         estimate D2E/DX2                !
 ! R6    R(2,19)                 1.0945         estimate D2E/DX2                !
 ! R7    R(2,20)                 1.0956         estimate D2E/DX2                !
 ! R8    R(3,4)                  1.4234         estimate D2E/DX2                !
 ! R9    R(3,10)                 1.4435         estimate D2E/DX2                !
 ! R10   R(4,5)                  1.395          estimate D2E/DX2                !
 ! R11   R(4,9)                  1.3945         estimate D2E/DX2                !
 ! R12   R(5,6)                  1.3775         estimate D2E/DX2                !
 ! R13   R(5,21)                 1.075          estimate D2E/DX2                !
 ! R14   R(6,7)                  1.3812         estimate D2E/DX2                !
 ! R15   R(6,22)                 1.078          estimate D2E/DX2                !
 ! R16   R(7,8)                  1.3809         estimate D2E/DX2                !
 ! R17   R(7,23)                 1.0779         estimate D2E/DX2                !
 ! R18   R(8,9)                  1.3766         estimate D2E/DX2                !
 ! R19   R(8,24)                 1.0779         estimate D2E/DX2                !
 ! R20   R(9,25)                 1.0756         estimate D2E/DX2                !
 ! R21   R(10,11)                1.3948         estimate D2E/DX2                !
 ! R22   R(10,15)                1.3948         estimate D2E/DX2                !
 ! R23   R(11,12)                1.3765         estimate D2E/DX2                !
 ! R24   R(11,26)                1.0761         estimate D2E/DX2                !
 ! R25   R(12,13)                1.382          estimate D2E/DX2                !
 ! R26   R(12,27)                1.0779         estimate D2E/DX2                !
 ! R27   R(13,14)                1.3821         estimate D2E/DX2                !
 ! R28   R(13,28)                1.0779         estimate D2E/DX2                !
 ! R29   R(14,15)                1.3766         estimate D2E/DX2                !
 ! R30   R(14,29)                1.0779         estimate D2E/DX2                !
 ! R31   R(15,30)                1.076          estimate D2E/DX2                !
 ! A1    A(2,1,16)             111.2506         estimate D2E/DX2                !
 ! A2    A(2,1,17)             112.1339         estimate D2E/DX2                !
 ! A3    A(2,1,18)             110.9502         estimate D2E/DX2                !
 ! A4    A(16,1,17)            107.7204         estimate D2E/DX2                !
 ! A5    A(16,1,18)            106.9032         estimate D2E/DX2                !
 ! A6    A(17,1,18)            107.6471         estimate D2E/DX2                !
 ! A7    A(1,2,3)              112.3595         estimate D2E/DX2                !
 ! A8    A(1,2,19)             111.8032         estimate D2E/DX2                !
 ! A9    A(1,2,20)             110.5604         estimate D2E/DX2                !
 ! A10   A(3,2,19)             108.7854         estimate D2E/DX2                !
 ! A11   A(3,2,20)             107.6497         estimate D2E/DX2                !
 ! A12   A(19,2,20)            105.3614         estimate D2E/DX2                !
 ! A13   A(2,3,4)              120.8926         estimate D2E/DX2                !
 ! A14   A(2,3,10)             117.5453         estimate D2E/DX2                !
 ! A15   A(4,3,10)             121.4882         estimate D2E/DX2                !
 ! A16   A(3,4,5)              122.3556         estimate D2E/DX2                !
 ! A17   A(3,4,9)              119.5864         estimate D2E/DX2                !
 ! A18   A(5,4,9)              118.058          estimate D2E/DX2                !
 ! A19   A(4,5,6)              120.7781         estimate D2E/DX2                !
 ! A20   A(4,5,21)             119.7831         estimate D2E/DX2                !
 ! A21   A(6,5,21)             119.4388         estimate D2E/DX2                !
 ! A22   A(5,6,7)              120.2639         estimate D2E/DX2                !
 ! A23   A(5,6,22)             119.9007         estimate D2E/DX2                !
 ! A24   A(7,6,22)             119.8354         estimate D2E/DX2                !
 ! A25   A(6,7,8)              119.7943         estimate D2E/DX2                !
 ! A26   A(6,7,23)             120.1071         estimate D2E/DX2                !
 ! A27   A(8,7,23)             120.0986         estimate D2E/DX2                !
 ! A28   A(7,8,9)              120.0345         estimate D2E/DX2                !
 ! A29   A(7,8,24)             119.9778         estimate D2E/DX2                !
 ! A30   A(9,8,24)             119.9878         estimate D2E/DX2                !
 ! A31   A(4,9,8)              121.0712         estimate D2E/DX2                !
 ! A32   A(4,9,25)             118.8404         estimate D2E/DX2                !
 ! A33   A(8,9,25)             120.0884         estimate D2E/DX2                !
 ! A34   A(3,10,11)            120.5426         estimate D2E/DX2                !
 ! A35   A(3,10,15)            120.7887         estimate D2E/DX2                !
 ! A36   A(11,10,15)           118.6612         estimate D2E/DX2                !
 ! A37   A(10,11,12)           120.5615         estimate D2E/DX2                !
 ! A38   A(10,11,26)           118.7086         estimate D2E/DX2                !
 ! A39   A(12,11,26)           120.7296         estimate D2E/DX2                !
 ! A40   A(11,12,13)           120.1066         estimate D2E/DX2                !
 ! A41   A(11,12,27)           119.9396         estimate D2E/DX2                !
 ! A42   A(13,12,27)           119.9538         estimate D2E/DX2                !
 ! A43   A(12,13,14)           120.003          estimate D2E/DX2                !
 ! A44   A(12,13,28)           119.9979         estimate D2E/DX2                !
 ! A45   A(14,13,28)           119.9991         estimate D2E/DX2                !
 ! A46   A(13,14,15)           120.1214         estimate D2E/DX2                !
 ! A47   A(13,14,29)           119.9434         estimate D2E/DX2                !
 ! A48   A(15,14,29)           119.9351         estimate D2E/DX2                !
 ! A49   A(10,15,14)           120.546          estimate D2E/DX2                !
 ! A50   A(10,15,30)           118.8082         estimate D2E/DX2                !
 ! A51   A(14,15,30)           120.6433         estimate D2E/DX2                !
 ! D1    D(16,1,2,3)            58.4602         estimate D2E/DX2                !
 ! D2    D(16,1,2,19)          -64.1952         estimate D2E/DX2                !
 ! D3    D(16,1,2,20)          178.7543         estimate D2E/DX2                !
 ! D4    D(17,1,2,3)           179.1733         estimate D2E/DX2                !
 ! D5    D(17,1,2,19)           56.5179         estimate D2E/DX2                !
 ! D6    D(17,1,2,20)          -60.5326         estimate D2E/DX2                !
 ! D7    D(18,1,2,3)           -60.4177         estimate D2E/DX2                !
 ! D8    D(18,1,2,19)          176.9268         estimate D2E/DX2                !
 ! D9    D(18,1,2,20)           59.8764         estimate D2E/DX2                !
 ! D10   D(1,2,3,4)            -78.0396         estimate D2E/DX2                !
 ! D11   D(1,2,3,10)            98.8791         estimate D2E/DX2                !
 ! D12   D(19,2,3,4)            46.3022         estimate D2E/DX2                !
 ! D13   D(19,2,3,10)         -136.7791         estimate D2E/DX2                !
 ! D14   D(20,2,3,4)           159.9966         estimate D2E/DX2                !
 ! D15   D(20,2,3,10)          -23.0847         estimate D2E/DX2                !
 ! D16   D(2,3,4,5)             -3.1608         estimate D2E/DX2                !
 ! D17   D(2,3,4,9)            176.7901         estimate D2E/DX2                !
 ! D18   D(10,3,4,5)          -179.9569         estimate D2E/DX2                !
 ! D19   D(10,3,4,9)            -0.006          estimate D2E/DX2                !
 ! D20   D(2,3,10,11)           94.4197         estimate D2E/DX2                !
 ! D21   D(2,3,10,15)          -86.5924         estimate D2E/DX2                !
 ! D22   D(4,3,10,11)          -88.6811         estimate D2E/DX2                !
 ! D23   D(4,3,10,15)           90.3068         estimate D2E/DX2                !
 ! D24   D(3,4,5,6)            179.8784         estimate D2E/DX2                !
 ! D25   D(3,4,5,21)            -0.1176         estimate D2E/DX2                !
 ! D26   D(9,4,5,6)             -0.0732         estimate D2E/DX2                !
 ! D27   D(9,4,5,21)           179.9308         estimate D2E/DX2                !
 ! D28   D(3,4,9,8)           -179.8911         estimate D2E/DX2                !
 ! D29   D(3,4,9,25)             0.0577         estimate D2E/DX2                !
 ! D30   D(5,4,9,8)              0.0619         estimate D2E/DX2                !
 ! D31   D(5,4,9,25)          -179.9893         estimate D2E/DX2                !
 ! D32   D(4,5,6,7)              0.0386         estimate D2E/DX2                !
 ! D33   D(4,5,6,22)          -179.9772         estimate D2E/DX2                !
 ! D34   D(21,5,6,7)          -179.9654         estimate D2E/DX2                !
 ! D35   D(21,5,6,22)            0.0188         estimate D2E/DX2                !
 ! D36   D(5,6,7,8)              0.0096         estimate D2E/DX2                !
 ! D37   D(5,6,7,23)           179.9874         estimate D2E/DX2                !
 ! D38   D(22,6,7,8)          -179.9746         estimate D2E/DX2                !
 ! D39   D(22,6,7,23)            0.0031         estimate D2E/DX2                !
 ! D40   D(6,7,8,9)             -0.021          estimate D2E/DX2                !
 ! D41   D(6,7,8,24)           179.9801         estimate D2E/DX2                !
 ! D42   D(23,7,8,9)          -179.9988         estimate D2E/DX2                !
 ! D43   D(23,7,8,24)            0.0023         estimate D2E/DX2                !
 ! D44   D(7,8,9,4)             -0.0156         estimate D2E/DX2                !
 ! D45   D(7,8,9,25)          -179.9638         estimate D2E/DX2                !
 ! D46   D(24,8,9,4)           179.9833         estimate D2E/DX2                !
 ! D47   D(24,8,9,25)            0.0351         estimate D2E/DX2                !
 ! D48   D(3,10,11,12)         179.1689         estimate D2E/DX2                !
 ! D49   D(3,10,11,26)          -0.6214         estimate D2E/DX2                !
 ! D50   D(15,10,11,12)          0.1597         estimate D2E/DX2                !
 ! D51   D(15,10,11,26)       -179.6305         estimate D2E/DX2                !
 ! D52   D(3,10,15,14)        -179.1841         estimate D2E/DX2                !
 ! D53   D(3,10,15,30)           0.2414         estimate D2E/DX2                !
 ! D54   D(11,10,15,14)         -0.1775         estimate D2E/DX2                !
 ! D55   D(11,10,15,30)        179.248          estimate D2E/DX2                !
 ! D56   D(10,11,12,13)         -0.0395         estimate D2E/DX2                !
 ! D57   D(10,11,12,27)       -179.9794         estimate D2E/DX2                !
 ! D58   D(26,11,12,13)        179.7465         estimate D2E/DX2                !
 ! D59   D(26,11,12,27)         -0.1934         estimate D2E/DX2                !
 ! D60   D(11,12,13,14)         -0.0663         estimate D2E/DX2                !
 ! D61   D(11,12,13,28)       -179.9936         estimate D2E/DX2                !
 ! D62   D(27,12,13,14)        179.8736         estimate D2E/DX2                !
 ! D63   D(27,12,13,28)         -0.0537         estimate D2E/DX2                !
 ! D64   D(12,13,14,15)          0.0486         estimate D2E/DX2                !
 ! D65   D(12,13,14,29)       -179.8373         estimate D2E/DX2                !
 ! D66   D(28,13,14,15)        179.9759         estimate D2E/DX2                !
 ! D67   D(28,13,14,29)          0.0899         estimate D2E/DX2                !
 ! D68   D(13,14,15,10)          0.075          estimate D2E/DX2                !
 ! D69   D(13,14,15,30)       -179.3399         estimate D2E/DX2                !
 ! D70   D(29,14,15,10)        179.961          estimate D2E/DX2                !
 ! D71   D(29,14,15,30)          0.5461         estimate D2E/DX2                !
 --------------------------------------------------------------------------------
 Trust Radius=3.00D-01 FncErr=1.00D-07 GrdErr=1.00D-06 EigMax=2.50D+02 EigMin=1.00D-04
 Number of steps in this run=    163 maximum allowed number of steps=    180.
 GradGradGradGradGradGradGradGradGradGradGradGradGradGradGradGradGradGrad

                          Input orientation:                          
 ---------------------------------------------------------------------
 Center     Atomic      Atomic             Coordinates (Angstroms)
 Number     Number       Type             X           Y           Z
 ---------------------------------------------------------------------
      1          6           0        0.075770    2.781870    1.481060
      2          6           0       -0.183760    2.316070    0.064870
      3          7           0       -0.057500    0.854170   -0.076660
      4          6           0        1.221930    0.235270   -0.154490
      5          6           0        2.407430    0.970510   -0.166840
      6          6           0        3.628670    0.337580   -0.240540
      7          6           0        3.695760   -1.040540   -0.304310
      8          6           0        2.532950   -1.785320   -0.294240
      9          6           0        1.311490   -1.154790   -0.220400
     10          6           0       -1.272530    0.074880   -0.064250
     11          6           0       -1.901090   -0.277080   -1.258610
     12          6           0       -3.050400   -1.034610   -1.247910
     13          6           0       -3.592490   -1.454950   -0.048120
     14          6           0       -2.979890   -1.116010    1.143480
     15          6           0       -1.830190   -0.358960    1.138310
     16          1           0        1.072240    2.491160    1.816550
     17          1           0       -0.004530    3.866790    1.578670
     18          1           0       -0.636200    2.333660    2.175820
     19          1           0        0.488290    2.798860   -0.651450
     20          1           0       -1.194770    2.594460   -0.252570
     21          1           0        2.370650    2.043770   -0.118320
     22          1           0        4.535970    0.919650   -0.248770
     23          1           0        4.652730   -1.533180   -0.362120
     24          1           0        2.581850   -2.860960   -0.344210
     25          1           0        0.405230   -1.734090   -0.211910
     26          1           0       -1.468140    0.052160   -2.187150
     27          1           0       -3.527700   -1.301130   -2.176880
     28          1           0       -4.492440   -2.048140   -0.041790
     29          1           0       -3.402050   -1.446570    2.078550
     30          1           0       -1.340490   -0.099160    2.060470
 ---------------------------------------------------------------------
                    Distance matrix (angstroms):
                    1          2          3          4          5
     1  C    0.000000
     2  C    1.513248   0.000000
     3  N    2.481991   1.474152   0.000000
     4  C    3.236337   2.520677   1.423389   0.000000
     5  C    3.381307   2.928905   2.469321   1.395041   0.000000
     6  C    4.643443   4.306079   3.725798   2.410450   1.377483
     7  C    5.559019   5.143326   4.210548   2.787467   2.392282
     8  C    5.481665   4.932633   3.704683   2.412693   2.761627
     9  C    4.463100   3.789990   2.435306   1.394501   2.391831
    10  C    3.396129   2.495000   1.443518   2.501239   3.788771
    11  C    4.557515   3.380126   2.464864   3.351841   4.616469
    12  C    5.637884   4.600877   3.727837   4.589223   5.914146
    13  C    5.809059   5.084565   4.222441   5.103606   6.472711
    14  C    4.964321   4.556415   3.729707   4.600649   5.923995
    15  C    3.689847   3.319456   2.467846   3.367473   4.629074
    16  H    1.090880   2.162539   2.745959   2.999408   2.833539
    17  H    1.092258   2.174499   3.437849   4.206660   4.153648
    18  H    1.091093   2.158963   2.756347   3.645028   4.075527
    19  H    2.172110   1.094464   2.100021   2.712414   2.694589
    20  H    2.157514   1.095632   2.086369   3.378733   3.952266
    21  H    2.892971   2.575406   2.704218   2.142787   1.074986
    22  H    5.133572   4.931958   4.597160   3.385281   2.130723
    23  H    6.554810   6.196021   5.288402   3.865348   3.368675
    24  H    6.438445   5.883671   4.565079   3.387037   3.839537
    25  H    4.834107   4.102111   2.632774   2.132762   3.365367
    26  H    4.826048   3.441877   2.662197   3.376642   4.465989
    27  H    6.560214   5.412163   4.593314   5.386053   6.665311
    28  H    6.820309   6.133712   5.300312   6.154729   7.532336
    29  H    5.507443   5.345069   4.596123   5.403355   6.680876
    30  H    3.262184   3.339727   2.668750   3.403511   4.489099
                    6          7          8          9         10
     6  C    0.000000
     7  C    1.381225   0.000000
     8  C    2.389600   1.380915   0.000000
     9  C    2.756247   2.388480   1.376585   0.000000
    10  C    4.911400   5.097617   4.242042   2.865943   0.000000
    11  C    5.656193   5.728725   4.781789   3.488399   1.394797
    12  C    6.892581   6.811835   5.713742   4.482890   2.406832
    13  C    7.442805   7.304516   6.139278   4.916177   2.779002
    14  C    6.906627   6.831259   5.736412   4.503067   2.406639
    15  C    5.673231   5.751680   4.808710   3.514199   1.394759
    16  H    3.924903   4.884036   4.987724   4.183223   3.856652
    17  H    5.381913   6.428036   6.472476   5.494072   4.322683
    18  H    5.292660   6.025126   5.754190   4.658825   3.244213
    19  H    4.011076   5.014914   5.032190   4.061380   3.296264
    20  H    5.325338   6.093700   5.751531   4.509906   2.527804
    21  H    2.123355   3.362064   3.836563   3.370909   4.141523
    22  H    1.077992   2.133397   3.366158   3.834238   5.872509
    23  H    2.136170   1.077881   2.135802   3.365583   6.146811
    24  H    3.367081   2.134553   1.077910   2.130765   4.853224
    25  H    3.831867   3.364095   2.129928   1.075624   2.471650
    26  H    5.463353   5.604011   4.792511   3.612641   2.132014
    27  H    7.592655   7.466780   6.364766   5.221780   3.382662
    28  H    8.466616   8.254138   7.034835   5.874996   3.856882
    29  H    7.615274   7.498119   6.400712   5.252406   3.382493
    30  H    5.493445   5.642889   4.836459   3.653727   2.132919
                   11         12         13         14         15
    11  C    0.000000
    12  C    1.376546   0.000000
    13  C    2.390292   1.382043   0.000000
    14  C    2.763630   2.393814   1.382053   0.000000
    15  C    2.399366   2.763958   2.390504   1.376576   0.000000
    16  H    5.095140   6.230420   6.388152   5.466668   4.123990
    17  H    5.368310   6.425776   6.621240   5.819833   4.624274
    18  H    4.495689   5.375456   5.295198   4.296374   3.122858
    19  H    3.941978   5.251055   5.925510   5.529580   4.307020
    20  H    3.123579   4.195738   4.710476   4.347781   3.325807
    21  H    4.993433   6.335628   6.914117   6.340712   4.999929
    22  H    6.624778   7.897495   8.470587   7.910147   6.639791
    23  H    6.733056   7.769904   8.251568   7.790876   6.757095
    24  H    5.254457   5.989530   6.339322   6.015898   5.284313
    25  H    2.921912   3.674772   4.010799   3.698397   2.951471
    26  H    1.076119   2.137004   3.370414   3.839675   3.370280
    27  H    2.130201   1.077884   2.135293   3.370335   3.841837
    28  H    3.366363   2.135755   1.077880   2.135776   3.366532
    29  H    3.841513   3.370268   2.135196   1.077889   2.130186
    30  H    3.370789   3.839823   3.369840   2.135998   1.075956
                   16         17         18         19         20
    16  H    0.000000
    17  H    1.763059   0.000000
    18  H    1.752897   1.762408   0.000000
    19  H    2.554741   2.521266   3.078042   0.000000
    20  H    3.071036   2.527634   2.505413   1.741716   0.000000
    21  H    2.372709   3.441607   3.793186   2.097062   3.610194
    22  H    4.328119   5.713258   5.884675   4.480769   5.970459
    23  H    5.810493   7.390292   7.026121   6.016049   7.158399
    24  H    5.965986   7.459856   6.609877   6.042429   6.635726
    25  H    4.734162   5.894399   4.830364   4.554968   4.614975
    26  H    5.332154   5.556524   4.993283   3.705449   3.206341
    27  H    7.175541   7.295497   6.365412   5.938437   4.931648
    28  H    7.417839   7.599580   6.244081   6.976587   5.698490
    29  H    5.966040   6.326517   4.685032   6.372701   5.161020
    30  H    3.548312   4.212562   2.535339   4.370065   3.553446
                   21         22         23         24         25
    21  H    0.000000
    22  H    2.443210   0.000000
    23  H    4.249929   2.458222   0.000000
    24  H    4.914469   4.256842   2.460054   0.000000
    25  H    4.259561   4.909858   4.254901   2.454590   0.000000
    26  H    4.794046   6.368610   6.580964   5.318375   3.256037
    27  H    7.086364   8.583254   8.382520   6.566456   4.417748
    28  H    7.990719   9.505935   9.165257   7.127251   4.910676
    29  H    7.094560   8.603928   8.416879   6.608882   4.452444
    30  H    4.807477   6.395572   6.621483   5.366076   3.299128
                   26         27         28         29         30
    26  H    0.000000
    27  H    2.464404   0.000000
    28  H    4.261481   2.459137   0.000000
    29  H    4.917560   4.259768   2.458999   0.000000
    30  H    4.252231   4.917698   4.260611   2.462899   0.000000
 Stoichiometry    C14H15N
 Framework group  C1[X(C14H15N)]
 Deg. of freedom    84
 Full point group                 C1      NOp   1
 Largest Abelian subgroup         C1      NOp   1
 Largest concise Abelian subgroup C1      NOp   1
                         Standard orientation:                         
 ---------------------------------------------------------------------
 Center     Atomic      Atomic             Coordinates (Angstroms)
 Number     Number       Type             X           Y           Z
 ---------------------------------------------------------------------
      1          6           0       -0.395991    3.037008   -0.597597
      2          6           0       -0.110473    2.203774    0.632899
      3          7           0       -0.050951    0.761820    0.332319
      4          6           0       -1.241655    0.003701    0.149248
      5          6           0       -2.511788    0.559021    0.305851
      6          6           0       -3.642904   -0.204405    0.118191
      7          6           0       -3.533746   -1.536938   -0.228541
      8          6           0       -2.284934   -2.104610   -0.387112
      9          6           0       -1.153288   -1.343391   -0.200275
     10          6           0        1.254122    0.168210    0.164514
     11          6           0        1.895846   -0.448217    1.238604
     12          6           0        3.132925   -1.029348    1.074896
     13          6           0        3.751218   -1.007141   -0.160929
     14          6           0        3.126930   -0.402020   -1.235249
     15          6           0        1.889649    0.180259   -1.076982
     16          1           0       -1.339090    2.745863   -1.062158
     17          1           0       -0.453617    4.103358   -0.368240
     18          1           0        0.383025    2.902031   -1.349529
     19          1           0       -0.854835    2.369725    1.417907
     20          1           0        0.849028    2.490314    1.077491
     21          1           0       -2.612161    1.594642    0.576051
     22          1           0       -4.617438    0.239313    0.242550
     23          1           0       -4.420523   -2.132027   -0.374563
     24          1           0       -2.196304   -3.144325   -0.657346
     25          1           0       -0.180136   -1.784528   -0.324133
     26          1           0        1.403530   -0.463237    2.195385
     27          1           0        3.619633   -1.503295    1.911748
     28          1           0        4.719851   -1.462814   -0.287169
     29          1           0        3.608863   -0.387558   -2.199290
     30          1           0        1.391358    0.644371   -1.910041
 ---------------------------------------------------------------------
 Rotational constants (GHZ):           1.0323057           0.4187262           0.3398774
 Standard basis: def2SVP (5D, 7F)
 There are   300 symmetry adapted cartesian basis functions of A   symmetry.
 There are   285 symmetry adapted basis functions of A   symmetry.
   285 basis functions,   480 primitive gaussians,   300 cartesian basis functions
    53 alpha electrons       53 beta electrons
       nuclear repulsion energy       929.1708985734 Hartrees.
 NAtoms=   30 NActive=   30 NUniq=   30 SFac= 1.00D+00 NAtFMM=   60 NAOKFM=F Big=F
 Integral buffers will be    131072 words long.
 Raffenetti 2 integral format.
 Two-electron integral symmetry is turned on.
 Nuclear repulsion after empirical dispersion term =      929.1497214790 Hartrees.
 One-electron integrals computed using PRISM.
   1 Symmetry operations used in ECPInt.
 ECPInt:  NShTT=    9180 NPrTT=   32880 LenC2=    8777 LenP2D=   23089.
 LDataN:  DoStor=T MaxTD1= 4 Len=   56
 NBasis=   285 RedAO= T EigKep=  2.33D-04  NBF=   285
 NBsUse=   285 1.00D-06 EigRej= -1.00D+00 NBFU=   285
 ExpMin= 1.22D-01 ExpMax= 1.71D+03 ExpMxC= 2.58D+02 IAcc=3 IRadAn=         5 AccDes= 0.00D+00
 Harris functional with IExCor= 4639 and IRadAn=       5 diagonalized for initial guess.
 HarFok:  IExCor= 4639 AccDes= 0.00D+00 IRadAn=         5 IDoV= 1 UseB2=F ITyADJ=14
 ICtDFT=  3500011 ScaDFX=  1.000000  1.000000  1.000000  1.000000
 FoFCou: FMM=F IPFlag=           0 FMFlag=      100000 FMFlg1=           0
         NFxFlg=           0 DoJE=T BraDBF=F KetDBF=T FulRan=T
         wScrn=  0.000000 ICntrl=       500 IOpCl=  0 I1Cent=   200000004 NGrid=           0
         NMat0=    1 NMatS0=      1 NMatT0=    0 NMatD0=    1 NMtDS0=    0 NMtDT0=    0
 Petite list used in FoFCou.
 Requested convergence on RMS density matrix=1.00D-08 within 128 cycles.
 Requested convergence on MAX density matrix=1.00D-06.
 Requested convergence on             energy=1.00D-06.
 No special actions if energy rises.
 Integral accuracy reduced to 1.0D-05 until final iterations.
 Initial convergence to 1.0D-05 achieved.  Increase integral accuracy.
 SCF Done:  E(RwB97XD) =  -596.647597658     A.U. after   15 cycles
            NFock= 15  Conv=0.43D-08     -V/T= 2.0109

 **********************************************************************

            Population analysis using the SCF Density.

 **********************************************************************

 Orbital symmetries:
       Occupied  (A) (A) (A) (A) (A) (A) (A) (A) (A) (A) (A) (A)
                 (A) (A) (A) (A) (A) (A) (A) (A) (A) (A) (A) (A)
                 (A) (A) (A) (A) (A) (A) (A) (A) (A) (A) (A) (A)
                 (A) (A) (A) (A) (A) (A) (A) (A) (A) (A) (A) (A)
                 (A) (A) (A) (A) (A)
       Virtual   (A) (A) (A) (A) (A) (A) (A) (A) (A) (A) (A) (A)
                 (A) (A) (A) (A) (A) (A) (A) (A) (A) (A) (A) (A)
                 (A) (A) (A) (A) (A) (A) (A) (A) (A) (A) (A) (A)
                 (A) (A) (A) (A) (A) (A) (A) (A) (A) (A) (A) (A)
                 (A) (A) (A) (A) (A) (A) (A) (A) (A) (A) (A) (A)
                 (A) (A) (A) (A) (A) (A) (A) (A) (A) (A) (A) (A)
                 (A) (A) (A) (A) (A) (A) (A) (A) (A) (A) (A) (A)
                 (A) (A) (A) (A) (A) (A) (A) (A) (A) (A) (A) (A)
                 (A) (A) (A) (A) (A) (A) (A) (A) (A) (A) (A) (A)
                 (A) (A) (A) (A) (A) (A) (A) (A) (A) (A) (A) (A)
                 (A) (A) (A) (A) (A) (A) (A) (A) (A) (A) (A) (A)
                 (A) (A) (A) (A) (A) (A) (A) (A) (A) (A) (A) (A)
                 (A) (A) (A) (A) (A) (A) (A) (A) (A) (A) (A) (A)
                 (A) (A) (A) (A) (A) (A) (A) (A) (A) (A) (A) (A)
                 (A) (A) (A) (A) (A) (A) (A) (A) (A) (A) (A) (A)
                 (A) (A) (A) (A) (A) (A) (A) (A) (A) (A) (A) (A)
                 (A) (A) (A) (A) (A) (A) (A) (A) (A) (A) (A) (A)
                 (A) (A) (A) (A) (A) (A) (A) (A) (A) (A) (A) (A)
                 (A) (A) (A) (A) (A) (A) (A) (A) (A) (A) (A) (A)
                 (A) (A) (A) (A)
 The electronic state is 1-A.
 Alpha  occ. eigenvalues --  -14.45529 -10.33950 -10.33537 -10.33177 -10.30435
 Alpha  occ. eigenvalues --  -10.30407 -10.30367 -10.30267 -10.30237 -10.28928
 Alpha  occ. eigenvalues --  -10.28786 -10.28781 -10.28416 -10.28009 -10.27729
 Alpha  occ. eigenvalues --   -1.03564  -0.95879  -0.93653  -0.86120  -0.84953
 Alpha  occ. eigenvalues --   -0.84468  -0.83054  -0.79839  -0.72408  -0.70773
 Alpha  occ. eigenvalues --   -0.70423  -0.68400  -0.65933  -0.62955  -0.60214
 Alpha  occ. eigenvalues --   -0.57235  -0.56151  -0.55266  -0.54101  -0.53062
 Alpha  occ. eigenvalues --   -0.51873  -0.51506  -0.50713  -0.49675  -0.49455
 Alpha  occ. eigenvalues --   -0.46843  -0.46200  -0.45809  -0.44776  -0.43548
 Alpha  occ. eigenvalues --   -0.43242  -0.42417  -0.41158  -0.36961  -0.34174
 Alpha  occ. eigenvalues --   -0.33446  -0.32449  -0.26465
 Alpha virt. eigenvalues --    0.05393   0.05461   0.07644   0.08945   0.13663
 Alpha virt. eigenvalues --    0.14872   0.16326   0.17244   0.18071   0.19321
 Alpha virt. eigenvalues --    0.19820   0.20155   0.21013   0.22591   0.22937
 Alpha virt. eigenvalues --    0.23065   0.23398   0.24313   0.25544   0.25711
 Alpha virt. eigenvalues --    0.26131   0.27982   0.30464   0.32262   0.35324
 Alpha virt. eigenvalues --    0.36250   0.37239   0.37729   0.38721   0.40164
 Alpha virt. eigenvalues --    0.40686   0.41658   0.43872   0.44774   0.46046
 Alpha virt. eigenvalues --    0.47674   0.47913   0.49388   0.49658   0.49782
 Alpha virt. eigenvalues --    0.51758   0.53092   0.53944   0.54481   0.54690
 Alpha virt. eigenvalues --    0.56175   0.56851   0.57545   0.58234   0.58938
 Alpha virt. eigenvalues --    0.59262   0.59715   0.60939   0.62255   0.63214
 Alpha virt. eigenvalues --    0.65043   0.65622   0.66107   0.67364   0.68285
 Alpha virt. eigenvalues --    0.69806   0.70558   0.72392   0.73553   0.74188
 Alpha virt. eigenvalues --    0.74717   0.74984   0.75539   0.75796   0.76401
 Alpha virt. eigenvalues --    0.76635   0.77219   0.78289   0.78865   0.79808
 Alpha virt. eigenvalues --    0.80227   0.80454   0.81269   0.81974   0.82686
 Alpha virt. eigenvalues --    0.83090   0.83716   0.84077   0.84833   0.85641
 Alpha virt. eigenvalues --    0.86551   0.87257   0.89898   0.91016   0.92559
 Alpha virt. eigenvalues --    0.93534   0.94274   0.96440   0.98955   1.02918
 Alpha virt. eigenvalues --    1.03789   1.05122   1.08891   1.10237   1.14204
 Alpha virt. eigenvalues --    1.16555   1.19518   1.20309   1.23850   1.26785
 Alpha virt. eigenvalues --    1.27836   1.30096   1.31800   1.32497   1.32761
 Alpha virt. eigenvalues --    1.33275   1.34817   1.36222   1.36522   1.38142
 Alpha virt. eigenvalues --    1.38931   1.40031   1.41116   1.41962   1.42570
 Alpha virt. eigenvalues --    1.46334   1.50413   1.53374   1.60186   1.61505
 Alpha virt. eigenvalues --    1.63771   1.68290   1.71705   1.72527   1.75497
 Alpha virt. eigenvalues --    1.76792   1.77967   1.78582   1.80494   1.81377
 Alpha virt. eigenvalues --    1.82769   1.83440   1.84400   1.84801   1.85159
 Alpha virt. eigenvalues --    1.85798   1.86270   1.86328   1.87565   1.88211
 Alpha virt. eigenvalues --    1.88704   1.89106   1.89534   1.90069   1.90794
 Alpha virt. eigenvalues --    1.92357   1.93130   1.93697   1.94996   1.97904
 Alpha virt. eigenvalues --    1.98754   2.00127   2.01108   2.01807   2.04020
 Alpha virt. eigenvalues --    2.05205   2.07131   2.07625   2.08796   2.09719
 Alpha virt. eigenvalues --    2.10932   2.12744   2.13236   2.15062   2.16279
 Alpha virt. eigenvalues --    2.18896   2.21884   2.22612   2.23394   2.25434
 Alpha virt. eigenvalues --    2.26573   2.28275   2.29112   2.29695   2.30628
 Alpha virt. eigenvalues --    2.36707   2.36879   2.38402   2.39539   2.40679
 Alpha virt. eigenvalues --    2.41875   2.42251   2.43924   2.44753   2.45219
 Alpha virt. eigenvalues --    2.46976   2.48953   2.50759   2.51610   2.56008
 Alpha virt. eigenvalues --    2.60040   2.64441   2.65968   2.66990   2.71696
 Alpha virt. eigenvalues --    2.71905   2.72847   2.73282   2.73536   2.76383
 Alpha virt. eigenvalues --    2.76997   2.80839   2.83948   2.84595   2.85820
 Alpha virt. eigenvalues --    2.86719   2.91338   2.93063   2.97280   2.97876
 Alpha virt. eigenvalues --    3.00555   3.00598   3.02102   3.03079   3.04097
 Alpha virt. eigenvalues --    3.08511   3.10570   3.16414   3.17577   3.24431
 Alpha virt. eigenvalues --    3.25894   3.29765   3.31089   3.37706   3.47884
 Alpha virt. eigenvalues --    3.78593   3.80723
          Condensed to atoms (all electrons):
               1          2          3          4          5          6
     1  C    4.577020   0.445733  -0.063146  -0.003985  -0.006207   0.000170
     2  C    0.445733   4.514841   0.319698  -0.046283   0.005329  -0.000398
     3  N   -0.063146   0.319698   6.885678   0.341468  -0.095641   0.008010
     4  C   -0.003985  -0.046283   0.341468   5.039987   0.245965   0.122623
     5  C   -0.006207   0.005329  -0.095641   0.245965   5.222722   0.278849
     6  C    0.000170  -0.000398   0.008010   0.122623   0.278849   5.037586
     7  C   -0.000039   0.000084  -0.000749  -0.166730   0.089646   0.280454
     8  C    0.000031  -0.000255   0.009474   0.124290  -0.161366   0.105519
     9  C   -0.000562   0.006684  -0.088047   0.280247   0.078392  -0.154477
    10  C   -0.003709  -0.046673   0.268857  -0.036022   0.009062  -0.000222
    11  C    0.000080  -0.009793  -0.071699  -0.002580  -0.000360   0.000028
    12  C    0.000037   0.000357   0.011588  -0.000498  -0.000013  -0.000000
    13  C    0.000006   0.000002  -0.000646   0.000071   0.000000   0.000000
    14  C   -0.000266   0.000089   0.011409  -0.000482  -0.000005   0.000000
    15  C    0.002239  -0.000909  -0.080235  -0.001334  -0.000494   0.000009
    16  H    0.400079  -0.018107  -0.007243   0.004709   0.004451  -0.000579
    17  H    0.379301  -0.018754   0.006266   0.000045  -0.000360   0.000007
    18  H    0.384911  -0.011224  -0.002288  -0.000499  -0.000025   0.000027
    19  H   -0.037957   0.383420  -0.017541  -0.016108   0.005604   0.001743
    20  H   -0.025804   0.380105  -0.026601   0.006460   0.000553  -0.000034
    21  H   -0.006346   0.011345  -0.015854  -0.079160   0.457739  -0.071227
    22  H    0.000002  -0.000024  -0.000087   0.015924  -0.069614   0.453108
    23  H    0.000000  -0.000000   0.000011  -0.001466   0.015123  -0.071338
    24  H   -0.000000   0.000007  -0.000096   0.015345  -0.001972   0.014410
    25  H    0.000002  -0.000131  -0.020192  -0.066647   0.017466  -0.002727
    26  H    0.000111   0.000220  -0.007036   0.001434  -0.000234   0.000000
    27  H   -0.000000  -0.000007  -0.000184   0.000000  -0.000000   0.000000
    28  H    0.000000   0.000000   0.000008   0.000001   0.000000  -0.000000
    29  H    0.000004   0.000001  -0.000172   0.000000  -0.000000  -0.000000
    30  H    0.000499  -0.001971  -0.007871   0.001225  -0.000146   0.000005
               7          8          9         10         11         12
     1  C   -0.000039   0.000031  -0.000562  -0.003709   0.000080   0.000037
     2  C    0.000084  -0.000255   0.006684  -0.046673  -0.009793   0.000357
     3  N   -0.000749   0.009474  -0.088047   0.268857  -0.071699   0.011588
     4  C   -0.166730   0.124290   0.280247  -0.036022  -0.002580  -0.000498
     5  C    0.089646  -0.161366   0.078392   0.009062  -0.000360  -0.000013
     6  C    0.280454   0.105519  -0.154477  -0.000222   0.000028  -0.000000
     7  C    5.122775   0.268358   0.090541   0.000174  -0.000035   0.000000
     8  C    0.268358   5.068105   0.270215  -0.002810   0.000025   0.000025
     9  C    0.090541   0.270215   5.172170  -0.001519  -0.003176  -0.000339
    10  C    0.000174  -0.002810  -0.001519   5.192077   0.310193   0.115260
    11  C   -0.000035   0.000025  -0.003176   0.310193   5.114865   0.219103
    12  C    0.000000   0.000025  -0.000339   0.115260   0.219103   5.133349
    13  C    0.000000  -0.000001   0.000020  -0.171125   0.096887   0.266195
    14  C    0.000000   0.000023  -0.000342   0.117178  -0.145194   0.100238
    15  C   -0.000029   0.000007  -0.002600   0.286992   0.049488  -0.146678
    16  H    0.000012  -0.000013  -0.000212  -0.000573  -0.000084   0.000000
    17  H    0.000001  -0.000001   0.000006   0.000124   0.000024  -0.000002
    18  H   -0.000002   0.000005  -0.000005  -0.000740   0.000286  -0.000006
    19  H   -0.000111   0.000058  -0.000283   0.003934   0.001219  -0.000059
    20  H    0.000004   0.000002  -0.000256   0.008898   0.000430  -0.000619
    21  H    0.015965  -0.002588   0.016679  -0.000336  -0.000020   0.000001
    22  H   -0.071830   0.014461  -0.002005   0.000006  -0.000000   0.000000
    23  H    0.452541  -0.071080   0.014998   0.000000   0.000000   0.000000
    24  H   -0.072688   0.454591  -0.069977  -0.000031   0.000016  -0.000001
    25  H    0.015754  -0.078363   0.458659   0.015198  -0.002403  -0.000429
    26  H    0.000005  -0.000066  -0.000707  -0.063818   0.456033  -0.075903
    27  H   -0.000000  -0.000001   0.000002   0.015128  -0.062628   0.449192
    28  H   -0.000000  -0.000000  -0.000001  -0.001738   0.014132  -0.068213
    29  H    0.000000  -0.000001   0.000002   0.015077  -0.002430   0.014257
    30  H    0.000002  -0.000052  -0.000635  -0.062012   0.016650  -0.003060
              13         14         15         16         17         18
     1  C    0.000006  -0.000266   0.002239   0.400079   0.379301   0.384911
     2  C    0.000002   0.000089  -0.000909  -0.018107  -0.018754  -0.011224
     3  N   -0.000646   0.011409  -0.080235  -0.007243   0.006266  -0.002288
     4  C    0.000071  -0.000482  -0.001334   0.004709   0.000045  -0.000499
     5  C    0.000000  -0.000005  -0.000494   0.004451  -0.000360  -0.000025
     6  C    0.000000   0.000000   0.000009  -0.000579   0.000007   0.000027
     7  C    0.000000   0.000000  -0.000029   0.000012   0.000001  -0.000002
     8  C   -0.000001   0.000023   0.000007  -0.000013  -0.000001   0.000005
     9  C    0.000020  -0.000342  -0.002600  -0.000212   0.000006  -0.000005
    10  C   -0.171125   0.117178   0.286992  -0.000573   0.000124  -0.000740
    11  C    0.096887  -0.145194   0.049488  -0.000084   0.000024   0.000286
    12  C    0.266195   0.100238  -0.146678   0.000000  -0.000002  -0.000006
    13  C    5.100743   0.268290   0.097801   0.000000   0.000000  -0.000007
    14  C    0.268290   5.121747   0.223656  -0.000006   0.000010   0.000419
    15  C    0.097801   0.223656   5.137515   0.000217  -0.000199   0.002339
    16  H    0.000000  -0.000006   0.000217   0.622021  -0.020802  -0.022560
    17  H    0.000000   0.000010  -0.000199  -0.020802   0.643423  -0.019480
    18  H   -0.000007   0.000419   0.002339  -0.022560  -0.019480   0.638132
    19  H   -0.000001   0.000047  -0.000347  -0.010208  -0.001597   0.007567
    20  H   -0.000009  -0.000183  -0.001843   0.006939  -0.002915  -0.008983
    21  H   -0.000000   0.000001  -0.000023   0.002367   0.000460  -0.000092
    22  H   -0.000000   0.000000  -0.000000   0.000013  -0.000001   0.000000
    23  H   -0.000000   0.000000   0.000000  -0.000000  -0.000000  -0.000000
    24  H   -0.000000  -0.000001   0.000016  -0.000000   0.000000  -0.000000
    25  H    0.000321  -0.000421  -0.002295  -0.000011   0.000000  -0.000005
    26  H    0.015281  -0.003168   0.017477   0.000003  -0.000004  -0.000020
    27  H   -0.072098   0.014305  -0.002481  -0.000000   0.000000  -0.000000
    28  H    0.452427  -0.068042   0.014201  -0.000000  -0.000000  -0.000000
    29  H   -0.072085   0.449307  -0.062212   0.000000  -0.000000  -0.000010
    30  H    0.015158  -0.075479   0.455072   0.000024   0.000076   0.001806
              19         20         21         22         23         24
     1  C   -0.037957  -0.025804  -0.006346   0.000002   0.000000  -0.000000
     2  C    0.383420   0.380105   0.011345  -0.000024  -0.000000   0.000007
     3  N   -0.017541  -0.026601  -0.015854  -0.000087   0.000011  -0.000096
     4  C   -0.016108   0.006460  -0.079160   0.015924  -0.001466   0.015345
     5  C    0.005604   0.000553   0.457739  -0.069614   0.015123  -0.001972
     6  C    0.001743  -0.000034  -0.071227   0.453108  -0.071338   0.014410
     7  C   -0.000111   0.000004   0.015965  -0.071830   0.452541  -0.072688
     8  C    0.000058   0.000002  -0.002588   0.014461  -0.071080   0.454591
     9  C   -0.000283  -0.000256   0.016679  -0.002005   0.014998  -0.069977
    10  C    0.003934   0.008898  -0.000336   0.000006   0.000000  -0.000031
    11  C    0.001219   0.000430  -0.000020  -0.000000   0.000000   0.000016
    12  C   -0.000059  -0.000619   0.000001   0.000000   0.000000  -0.000001
    13  C   -0.000001  -0.000009  -0.000000  -0.000000  -0.000000  -0.000000
    14  C    0.000047  -0.000183   0.000001   0.000000   0.000000  -0.000001
    15  C   -0.000347  -0.001843  -0.000023  -0.000000   0.000000   0.000016
    16  H   -0.010208   0.006939   0.002367   0.000013  -0.000000  -0.000000
    17  H   -0.001597  -0.002915   0.000460  -0.000001  -0.000000   0.000000
    18  H    0.007567  -0.008983  -0.000092   0.000000  -0.000000  -0.000000
    19  H    0.667588  -0.021626  -0.002833   0.000034  -0.000000   0.000000
    20  H   -0.021626   0.646713   0.000028  -0.000001  -0.000000  -0.000000
    21  H   -0.002833   0.000028   0.703989  -0.014467  -0.000265   0.000025
    22  H    0.000034  -0.000001  -0.014467   0.681785  -0.012631  -0.000273
    23  H   -0.000000  -0.000000  -0.000265  -0.012631   0.686245  -0.012544
    24  H    0.000000  -0.000000   0.000025  -0.000273  -0.012544   0.680164
    25  H   -0.000026   0.000000  -0.000165   0.000018  -0.000259  -0.013407
    26  H   -0.000320   0.000258  -0.000013  -0.000000   0.000000   0.000000
    27  H    0.000000   0.000016   0.000000  -0.000000   0.000000  -0.000000
    28  H    0.000000  -0.000001   0.000000   0.000000  -0.000000   0.000000
    29  H   -0.000001  -0.000000  -0.000000  -0.000000   0.000000  -0.000000
    30  H    0.000046   0.000351  -0.000008  -0.000000   0.000000  -0.000000
              25         26         27         28         29         30
     1  C    0.000002   0.000111  -0.000000   0.000000   0.000004   0.000499
     2  C   -0.000131   0.000220  -0.000007   0.000000   0.000001  -0.001971
     3  N   -0.020192  -0.007036  -0.000184   0.000008  -0.000172  -0.007871
     4  C   -0.066647   0.001434   0.000000   0.000001   0.000000   0.001225
     5  C    0.017466  -0.000234  -0.000000   0.000000  -0.000000  -0.000146
     6  C   -0.002727   0.000000   0.000000  -0.000000  -0.000000   0.000005
     7  C    0.015754   0.000005  -0.000000  -0.000000   0.000000   0.000002
     8  C   -0.078363  -0.000066  -0.000001  -0.000000  -0.000001  -0.000052
     9  C    0.458659  -0.000707   0.000002  -0.000001   0.000002  -0.000635
    10  C    0.015198  -0.063818   0.015128  -0.001738   0.015077  -0.062012
    11  C   -0.002403   0.456033  -0.062628   0.014132  -0.002430   0.016650
    12  C   -0.000429  -0.075903   0.449192  -0.068213   0.014257  -0.003060
    13  C    0.000321   0.015281  -0.072098   0.452427  -0.072085   0.015158
    14  C   -0.000421  -0.003168   0.014305  -0.068042   0.449307  -0.075479
    15  C   -0.002295   0.017477  -0.002481   0.014201  -0.062212   0.455072
    16  H   -0.000011   0.000003  -0.000000  -0.000000   0.000000   0.000024
    17  H    0.000000  -0.000004   0.000000  -0.000000  -0.000000   0.000076
    18  H   -0.000005  -0.000020  -0.000000  -0.000000  -0.000010   0.001806
    19  H   -0.000026  -0.000320   0.000000   0.000000  -0.000001   0.000046
    20  H    0.000000   0.000258   0.000016  -0.000001  -0.000000   0.000351
    21  H   -0.000165  -0.000013   0.000000   0.000000  -0.000000  -0.000008
    22  H    0.000018  -0.000000  -0.000000   0.000000  -0.000000  -0.000000
    23  H   -0.000259   0.000000   0.000000  -0.000000   0.000000   0.000000
    24  H   -0.013407   0.000000  -0.000000   0.000000  -0.000000  -0.000000
    25  H    0.676047  -0.000132   0.000008  -0.000001   0.000008  -0.000142
    26  H   -0.000132   0.672601  -0.012505  -0.000213   0.000032  -0.000197
    27  H    0.000008  -0.012505   0.668536  -0.012107  -0.000256   0.000032
    28  H   -0.000001  -0.000213  -0.012107   0.666853  -0.012120  -0.000213
    29  H    0.000008   0.000032  -0.000256  -0.012120   0.669165  -0.012746
    30  H   -0.000142  -0.000197   0.000032  -0.000213  -0.012746   0.672440
 Mulliken charges:
               1
     1  C   -0.042204
     2  C    0.086614
     3  N   -0.357140
     4  C    0.221999
     5  C   -0.094464
     6  C   -0.001548
     7  C   -0.024103
     8  C    0.001407
     9  C   -0.063473
    10  C    0.033173
    11  C    0.020942
    12  C   -0.013780
    13  C    0.002768
    14  C   -0.013131
    15  C    0.014652
    16  H    0.039565
    17  H    0.034373
    18  H    0.030454
    19  H    0.037756
    20  H    0.038117
    21  H   -0.015200
    22  H    0.005580
    23  H    0.000666
    24  H    0.006418
    25  H    0.004272
    26  H    0.000883
    27  H    0.015048
    28  H    0.015027
    29  H    0.014179
    30  H    0.001148
 Sum of Mulliken charges =  -0.00000
 Mulliken charges with hydrogens summed into heavy atoms:
               1
     1  C    0.062189
     2  C    0.162487
     3  N   -0.357140
     4  C    0.221999
     5  C   -0.109664
     6  C    0.004032
     7  C   -0.023437
     8  C    0.007826
     9  C   -0.059201
    10  C    0.033173
    11  C    0.021824
    12  C    0.001268
    13  C    0.017795
    14  C    0.001048
    15  C    0.015800
 Electronic spatial extent (au):  <R**2>=           3392.5535
 Charge=             -0.0000 electrons
 Dipole moment (field-independent basis, Debye):
    X=              1.4550    Y=              0.8461    Z=              0.1125  Tot=              1.6868
 Quadrupole moment (field-independent basis, Debye-Ang):
   XX=            -83.9653   YY=            -84.8022   ZZ=            -87.8646
   XY=             -3.7767   XZ=             -0.8020   YZ=              0.7962
 Traceless Quadrupole moment (field-independent basis, Debye-Ang):
   XX=              1.5787   YY=              0.7418   ZZ=             -2.3206
   XY=             -3.7767   XZ=             -0.8020   YZ=              0.7962
 Octapole moment (field-independent basis, Debye-Ang**2):
  XXX=              7.8064  YYY=              7.9413  ZZZ=              1.4093  XYY=             -6.2074
  XXY=            -12.5002  XXZ=             -2.6938  XZZ=             18.2884  YZZ=              3.0819
  YYZ=              1.2733  XYZ=             -7.4112
 Hexadecapole moment (field-independent basis, Debye-Ang**3):
 XXXX=          -2910.0010 YYYY=          -1162.0245 ZZZZ=           -385.9418 XXXY=            -74.5146
 XXXZ=            -20.2040 YYYX=             13.9548 YYYZ=             20.1993 ZZZX=             -6.4084
 ZZZY=             -9.0907 XXYY=           -696.5449 XXZZ=           -583.4806 YYZZ=           -271.5173
 XXYZ=              4.1149 YYXZ=             12.6598 ZZXY=            -15.8317
 N-N= 9.291497214790D+02 E-N=-3.238823799127D+03  KE= 5.902432255822D+02
   1 Symmetry operations used in ECPInt.
 ECPInt:  NShTT=    9180 NPrTT=   32880 LenC2=    8777 LenP2D=   23089.
 LDataN:  DoStor=T MaxTD1= 5 Len=  102
 Calling FoFJK, ICntrl=      2127 FMM=F ISym2X=0 I1Cent= 0 IOpClX= 0 NMat=1 NMatS=1 NMatT=0.
 ***** Axes restored to original set *****
 -------------------------------------------------------------------
 Center     Atomic                   Forces (Hartrees/Bohr)
 Number     Number              X              Y              Z
 -------------------------------------------------------------------
      1        6           0.000557601    0.002514026    0.002135617
      2        6          -0.000388679   -0.018548462   -0.000992549
      3        7           0.006832377   -0.000200714   -0.003882240
      4        6          -0.033067496    0.010172880    0.002472169
      5        6          -0.006119905    0.007123213    0.000321611
      6        6           0.000787963   -0.003801389   -0.000612238
      7        6           0.009399705   -0.003109320   -0.000477310
      8        6           0.000538948    0.001586800   -0.000199574
      9        6          -0.005333968   -0.002355245    0.000287522
     10        6           0.016083036    0.005423865    0.000428641
     11        6           0.009381024    0.006863709    0.004081372
     12        6          -0.004378762   -0.002255176   -0.001217872
     13        6          -0.003057839   -0.002105820    0.000332308
     14        6          -0.005094096   -0.002468019    0.001163134
     15        6           0.009338797    0.006750695   -0.004246105
     16        1           0.005990380   -0.001541672    0.001174041
     17        1          -0.000735471    0.005973760   -0.000940569
     18        1          -0.005129099   -0.002457304    0.002854767
     19        1           0.004173183    0.003173563   -0.002261065
     20        1          -0.003291210   -0.000661105   -0.000308357
     21        1           0.001106310    0.011089069    0.000632502
     22        1           0.008085891    0.006422321   -0.000018284
     23        1           0.009255512   -0.004605125   -0.000435194
     24        1          -0.000447415   -0.010348055   -0.000469829
     25        1          -0.008574194   -0.007096878    0.000092153
     26        1           0.005181518    0.003383975   -0.009896062
     27        1          -0.004393520   -0.002423124   -0.009087586
     28        1          -0.008616662   -0.005825368    0.000072483
     29        1          -0.003856010   -0.003057706    0.009140458
     30        1           0.005772082    0.002382606    0.009856056
 -------------------------------------------------------------------
 Cartesian Forces:  Max     0.033067496 RMS     0.006541319

 GradGradGradGradGradGradGradGradGradGradGradGradGradGradGradGradGradGrad
 Berny optimization.
 FormGI is forming the generalized inverse of G from B-inverse, IUseBI=4.
 Internal  Forces:  Max     0.024200280 RMS     0.005582339
 Search for a local minimum.
 Step number   1 out of a maximum of  163
 All quantities printed in internal units (Hartrees-Bohrs-Radians)
 Mixed Optimization -- RFO/linear search
 Second derivative matrix not updated -- first step.
 ITU=  0
     Eigenvalues ---    0.00591   0.00711   0.01032   0.01116   0.01382
     Eigenvalues ---    0.01843   0.01923   0.02184   0.02186   0.02261
     Eigenvalues ---    0.02266   0.02284   0.02287   0.02326   0.02332
     Eigenvalues ---    0.02333   0.02339   0.02347   0.02354   0.02364
     Eigenvalues ---    0.02365   0.02369   0.02373   0.04171   0.05398
     Eigenvalues ---    0.05513   0.05672   0.09553   0.12889   0.15999
     Eigenvalues ---    0.16000   0.16000   0.16000   0.16000   0.16000
     Eigenvalues ---    0.16000   0.16000   0.16000   0.16000   0.16000
     Eigenvalues ---    0.16000   0.16000   0.21876   0.22000   0.22000
     Eigenvalues ---    0.22000   0.22000   0.23466   0.23469   0.24967
     Eigenvalues ---    0.24978   0.24996   0.25000   0.31026   0.34170
     Eigenvalues ---    0.34302   0.34553   0.34687   0.34711   0.35248
     Eigenvalues ---    0.36238   0.36248   0.36251   0.36251   0.36252
     Eigenvalues ---    0.36252   0.36467   0.36487   0.36528   0.36607
     Eigenvalues ---    0.39107   0.41954   0.43017   0.43088   0.43728
     Eigenvalues ---    0.43777   0.47313   0.47324   0.47829   0.47951
     Eigenvalues ---    0.48986   0.49081   0.49653   0.49736
 RFO step:  Lambda=-1.17149364D-02 EMin= 5.90701589D-03
 Linear search not attempted -- first point.
 Iteration  1 RMS(Cart)=  0.03564714 RMS(Int)=  0.00041146
 Iteration  2 RMS(Cart)=  0.00074367 RMS(Int)=  0.00003797
 Iteration  3 RMS(Cart)=  0.00000039 RMS(Int)=  0.00003797
 Variable       Old X    -DE/DX   Delta X   Delta X   Delta X     New X
                                 (Linear)    (Quad)   (Total)
    R1        2.85962   0.00639   0.00000   0.01984   0.01984   2.87947
    R2        2.06146   0.00624   0.00000   0.01740   0.01740   2.07887
    R3        2.06407   0.00590   0.00000   0.01652   0.01652   2.08059
    R4        2.06187   0.00617   0.00000   0.01722   0.01722   2.07909
    R5        2.78574  -0.01139   0.00000  -0.03128  -0.03128   2.75446
    R6        2.06824   0.00544   0.00000   0.01534   0.01534   2.08358
    R7        2.07045   0.00296   0.00000   0.00837   0.00837   2.07882
    R8        2.68982  -0.02420   0.00000  -0.05612  -0.05612   2.63370
    R9        2.72785  -0.01736   0.00000  -0.04311  -0.04311   2.68474
   R10        2.63625   0.01163   0.00000   0.02428   0.02427   2.66052
   R11        2.63522   0.01387   0.00000   0.02900   0.02899   2.66421
   R12        2.60307   0.01616   0.00000   0.03180   0.03180   2.63487
   R13        2.03143   0.01106   0.00000   0.02928   0.02928   2.06071
   R14        2.61014   0.01228   0.00000   0.02461   0.02462   2.63476
   R15        2.03711   0.01027   0.00000   0.02746   0.02746   2.06457
   R16        2.60955   0.01436   0.00000   0.02880   0.02881   2.63836
   R17        2.03690   0.01035   0.00000   0.02764   0.02764   2.06454
   R18        2.60137   0.01481   0.00000   0.02916   0.02916   2.63052
   R19        2.03695   0.01033   0.00000   0.02760   0.02760   2.06455
   R20        2.03264   0.01105   0.00000   0.02930   0.02930   2.06194
   R21        2.63578   0.00398   0.00000   0.00746   0.00747   2.64325
   R22        2.63571   0.00445   0.00000   0.00848   0.00849   2.64420
   R23        2.60130   0.01706   0.00000   0.03348   0.03348   2.63478
   R24        2.03357   0.01166   0.00000   0.03097   0.03097   2.06454
   R25        2.61168   0.01317   0.00000   0.02720   0.02720   2.63888
   R26        2.03691   0.01038   0.00000   0.02773   0.02773   2.06463
   R27        2.61170   0.01272   0.00000   0.02633   0.02633   2.63803
   R28        2.03690   0.01040   0.00000   0.02779   0.02779   2.06469
   R29        2.60135   0.01747   0.00000   0.03435   0.03435   2.63570
   R30        2.03692   0.01038   0.00000   0.02773   0.02773   2.06465
   R31        2.03326   0.01165   0.00000   0.03094   0.03094   2.06420
    A1        1.94169  -0.00013   0.00000   0.00095   0.00095   1.94264
    A2        1.95711  -0.00191   0.00000  -0.01330  -0.01335   1.94375
    A3        1.93645  -0.00123   0.00000  -0.00675  -0.00679   1.92965
    A4        1.88008   0.00098   0.00000   0.00491   0.00490   1.88497
    A5        1.86581   0.00131   0.00000   0.01182   0.01183   1.87764
    A6        1.87880   0.00123   0.00000   0.00393   0.00384   1.88264
    A7        1.96104   0.00652   0.00000   0.02868   0.02872   1.98976
    A8        1.95133  -0.00280   0.00000  -0.01209  -0.01225   1.93908
    A9        1.92964  -0.00162   0.00000  -0.00998  -0.00990   1.91974
   A10        1.89866  -0.00113   0.00000   0.00277   0.00277   1.90143
   A11        1.87884  -0.00296   0.00000  -0.01733  -0.01723   1.86162
   A12        1.83890   0.00164   0.00000   0.00629   0.00621   1.84512
   A13        2.10997   0.00440   0.00000   0.01679   0.01679   2.12676
   A14        2.05155  -0.00013   0.00000  -0.00052  -0.00052   2.05103
   A15        2.12037  -0.00427   0.00000  -0.01636  -0.01636   2.10401
   A16        2.13551  -0.00418   0.00000  -0.01576  -0.01577   2.11974
   A17        2.08718   0.00344   0.00000   0.01334   0.01334   2.10051
   A18        2.06050   0.00074   0.00000   0.00243   0.00240   2.06290
   A19        2.10798  -0.00115   0.00000  -0.00534  -0.00535   2.10263
   A20        2.09061   0.00208   0.00000   0.01142   0.01143   2.10203
   A21        2.08460  -0.00093   0.00000  -0.00608  -0.00608   2.07852
   A22        2.09900   0.00312   0.00000   0.01356   0.01357   2.11257
   A23        2.09266  -0.00262   0.00000  -0.01296  -0.01296   2.07970
   A24        2.09152  -0.00050   0.00000  -0.00060  -0.00061   2.09092
   A25        2.09081  -0.00429   0.00000  -0.01799  -0.01798   2.07283
   A26        2.09626   0.00200   0.00000   0.00814   0.00813   2.10439
   A27        2.09612   0.00229   0.00000   0.00985   0.00985   2.10596
   A28        2.09500   0.00325   0.00000   0.01452   0.01453   2.10953
   A29        2.09401  -0.00069   0.00000  -0.00182  -0.00183   2.09218
   A30        2.09418  -0.00256   0.00000  -0.01270  -0.01270   2.08148
   A31        2.11309  -0.00166   0.00000  -0.00717  -0.00718   2.10591
   A32        2.07416   0.00221   0.00000   0.01163   0.01163   2.08579
   A33        2.09594  -0.00055   0.00000  -0.00446  -0.00446   2.09148
   A34        2.10387  -0.00295   0.00000  -0.00968  -0.00977   2.09410
   A35        2.10816  -0.00158   0.00000  -0.00444  -0.00453   2.10363
   A36        2.07103   0.00453   0.00000   0.01447   0.01441   2.08544
   A37        2.10420  -0.00095   0.00000  -0.00570  -0.00569   2.09851
   A38        2.07186   0.00011   0.00000   0.00072   0.00072   2.07257
   A39        2.10713   0.00084   0.00000   0.00498   0.00497   2.11210
   A40        2.09626  -0.00033   0.00000   0.00059   0.00059   2.09685
   A41        2.09334  -0.00013   0.00000  -0.00198  -0.00199   2.09135
   A42        2.09359   0.00045   0.00000   0.00140   0.00139   2.09498
   A43        2.09445  -0.00179   0.00000  -0.00381  -0.00381   2.09064
   A44        2.09436   0.00091   0.00000   0.00201   0.00201   2.09637
   A45        2.09438   0.00087   0.00000   0.00180   0.00180   2.09618
   A46        2.09651  -0.00050   0.00000   0.00001   0.00002   2.09653
   A47        2.09341   0.00054   0.00000   0.00165   0.00165   2.09505
   A48        2.09326  -0.00003   0.00000  -0.00167  -0.00168   2.09158
   A49        2.10392  -0.00096   0.00000  -0.00556  -0.00554   2.09839
   A50        2.07359   0.00029   0.00000   0.00167   0.00166   2.07525
   A51        2.10562   0.00067   0.00000   0.00389   0.00388   2.10950
    D1        1.02032   0.00079   0.00000   0.00752   0.00751   1.02783
    D2       -1.12042  -0.00046   0.00000  -0.00828  -0.00824  -1.12865
    D3        3.11985   0.00029   0.00000  -0.00215  -0.00219   3.11766
    D4        3.12716   0.00064   0.00000   0.00526   0.00522   3.13239
    D5        0.98642  -0.00062   0.00000  -0.01055  -0.01052   0.97590
    D6       -1.05649   0.00013   0.00000  -0.00442  -0.00448  -1.06097
    D7       -1.05449   0.00004   0.00000  -0.00350  -0.00349  -1.05798
    D8        3.08796  -0.00121   0.00000  -0.01931  -0.01923   3.06872
    D9        1.04504  -0.00046   0.00000  -0.01318  -0.01319   1.03185
   D10       -1.36205  -0.00036   0.00000  -0.02567  -0.02577  -1.38781
   D11        1.72577  -0.00052   0.00000  -0.02805  -0.02816   1.69761
   D12        0.80813  -0.00026   0.00000  -0.01930  -0.01922   0.78891
   D13       -2.38725  -0.00042   0.00000  -0.02168  -0.02161  -2.40886
   D14        2.79247  -0.00042   0.00000  -0.01944  -0.01940   2.77307
   D15       -0.40290  -0.00058   0.00000  -0.02182  -0.02180  -0.42470
   D16       -0.05517  -0.00036   0.00000  -0.01340  -0.01340  -0.06857
   D17        3.08557  -0.00006   0.00000  -0.00397  -0.00397   3.08160
   D18       -3.14084  -0.00033   0.00000  -0.01147  -0.01147   3.13088
   D19       -0.00010  -0.00004   0.00000  -0.00204  -0.00204  -0.00214
   D20        1.64793  -0.00077   0.00000  -0.02577  -0.02568   1.62225
   D21       -1.51132  -0.00003   0.00000  -0.00238  -0.00249  -1.51381
   D22       -1.54778  -0.00065   0.00000  -0.02708  -0.02697  -1.57474
   D23        1.57615   0.00009   0.00000  -0.00369  -0.00377   1.57238
   D24        3.13947   0.00037   0.00000   0.01133   0.01126  -3.13245
   D25       -0.00205   0.00031   0.00000   0.00974   0.00968   0.00763
   D26       -0.00128   0.00008   0.00000   0.00203   0.00203   0.00075
   D27        3.14038   0.00002   0.00000   0.00044   0.00044   3.14083
   D28       -3.13969  -0.00033   0.00000  -0.01033  -0.01041   3.13308
   D29        0.00101  -0.00026   0.00000  -0.00824  -0.00830  -0.00729
   D30        0.00108  -0.00005   0.00000  -0.00130  -0.00130  -0.00022
   D31       -3.14141   0.00002   0.00000   0.00078   0.00082  -3.14059
   D32        0.00067  -0.00009   0.00000  -0.00234  -0.00236  -0.00168
   D33       -3.14119  -0.00002   0.00000  -0.00054  -0.00054   3.14145
   D34       -3.14099  -0.00003   0.00000  -0.00075  -0.00079   3.14141
   D35        0.00033   0.00004   0.00000   0.00105   0.00102   0.00135
   D36        0.00017   0.00006   0.00000   0.00185   0.00186   0.00202
   D37        3.14137   0.00008   0.00000   0.00232   0.00233  -3.13949
   D38       -3.14115  -0.00000   0.00000   0.00006   0.00003  -3.14112
   D39        0.00005   0.00002   0.00000   0.00052   0.00051   0.00056
   D40       -0.00037  -0.00004   0.00000  -0.00113  -0.00111  -0.00148
   D41        3.14124  -0.00003   0.00000  -0.00085  -0.00085   3.14040
   D42       -3.14157  -0.00006   0.00000  -0.00159  -0.00159   3.14003
   D43        0.00004  -0.00004   0.00000  -0.00132  -0.00132  -0.00128
   D44       -0.00027   0.00004   0.00000   0.00088   0.00087   0.00060
   D45       -3.14096  -0.00004   0.00000  -0.00124  -0.00126   3.14097
   D46        3.14130   0.00002   0.00000   0.00060   0.00061  -3.14128
   D47        0.00061  -0.00005   0.00000  -0.00152  -0.00152  -0.00091
   D48        3.12709   0.00076   0.00000   0.02424   0.02425  -3.13184
   D49       -0.01085   0.00073   0.00000   0.02339   0.02341   0.01257
   D50        0.00279   0.00009   0.00000   0.00152   0.00149   0.00427
   D51       -3.13514   0.00006   0.00000   0.00067   0.00065  -3.13450
   D52       -3.12735  -0.00081   0.00000  -0.02600  -0.02608   3.12975
   D53        0.00421  -0.00081   0.00000  -0.02591  -0.02599  -0.02178
   D54       -0.00310  -0.00016   0.00000  -0.00328  -0.00324  -0.00634
   D55        3.12847  -0.00015   0.00000  -0.00319  -0.00315   3.12532
   D56       -0.00069  -0.00002   0.00000  -0.00031  -0.00029  -0.00098
   D57       -3.14123   0.00000   0.00000   0.00021   0.00023  -3.14100
   D58        3.13717   0.00001   0.00000   0.00055   0.00056   3.13773
   D59       -0.00338   0.00003   0.00000   0.00108   0.00108  -0.00230
   D60       -0.00116   0.00002   0.00000   0.00085   0.00087  -0.00029
   D61       -3.14148   0.00006   0.00000   0.00165   0.00165  -3.13983
   D62        3.13939   0.00000   0.00000   0.00032   0.00034   3.13973
   D63       -0.00094   0.00004   0.00000   0.00112   0.00113   0.00019
   D64        0.00085  -0.00009   0.00000  -0.00261  -0.00262  -0.00177
   D65       -3.13875   0.00004   0.00000   0.00086   0.00084  -3.13792
   D66        3.14117  -0.00012   0.00000  -0.00341  -0.00340   3.13777
   D67        0.00157   0.00000   0.00000   0.00006   0.00005   0.00162
   D68        0.00131   0.00015   0.00000   0.00383   0.00380   0.00511
   D69       -3.13007   0.00014   0.00000   0.00375   0.00372  -3.12635
   D70        3.14091   0.00002   0.00000   0.00037   0.00036   3.14127
   D71        0.00953   0.00002   0.00000   0.00029   0.00028   0.00981
         Item               Value     Threshold  Converged?
 Maximum Force            0.024200     0.000450     NO 
 RMS     Force            0.005582     0.000300     NO 
 Maximum Displacement     0.135914     0.001800     NO 
 RMS     Displacement     0.035920     0.001200     NO 
 Predicted change in Energy=-6.079714D-03
 GradGradGradGradGradGradGradGradGradGradGradGradGradGradGradGradGradGrad

                          Input orientation:                          
 ---------------------------------------------------------------------
 Center     Atomic      Atomic             Coordinates (Angstroms)
 Number     Number       Type             X           Y           Z
 ---------------------------------------------------------------------
      1          6           0        0.032522    2.796614    1.489477
      2          6           0       -0.179810    2.288933    0.068568
      3          7           0       -0.045683    0.844264   -0.071193
      4          6           0        1.200673    0.225097   -0.146087
      5          6           0        2.392585    0.973970   -0.172216
      6          6           0        3.628185    0.333677   -0.258364
      7          6           0        3.714856   -1.056581   -0.318481
      8          6           0        2.536447   -1.804903   -0.293425
      9          6           0        1.295407   -1.180181   -0.208300
     10          6           0       -1.236981    0.070271   -0.059072
     11          6           0       -1.872241   -0.253884   -1.262344
     12          6           0       -3.047944   -1.003318   -1.255893
     13          6           0       -3.597283   -1.435612   -0.047015
     14          6           0       -2.965243   -1.115302    1.155774
     15          6           0       -1.787754   -0.367753    1.150342
     16          1           0        1.031545    2.529073    1.864404
     17          1           0       -0.069256    3.891562    1.543675
     18          1           0       -0.708123    2.354542    2.172463
     19          1           0        0.509611    2.782291   -0.636404
     20          1           0       -1.192464    2.546450   -0.275457
     21          1           0        2.361846    2.063069   -0.126760
     22          1           0        4.539586    0.935840   -0.277252
     23          1           0        4.687184   -1.550421   -0.383884
     24          1           0        2.583220   -2.895391   -0.340722
     25          1           0        0.385092   -1.781492   -0.190506
     26          1           0       -1.428129    0.088600   -2.199918
     27          1           0       -3.538273   -1.253171   -2.199731
     28          1           0       -4.517723   -2.024268   -0.042576
     29          1           0       -3.389567   -1.454318    2.103780
     30          1           0       -1.275495   -0.122290    2.083357
 ---------------------------------------------------------------------
                    Distance matrix (angstroms):
                    1          2          3          4          5
     1  C    0.000000
     2  C    1.523748   0.000000
     3  N    2.500696   1.457598   0.000000
     4  C    3.263793   2.492234   1.393694   0.000000
     5  C    3.413672   2.899021   2.443805   1.407887   0.000000
     6  C    4.695721   4.293103   3.713898   2.432531   1.394311
     7  C    5.628091   5.148853   4.220903   2.827284   2.427535
     8  C    5.533745   4.926315   3.706058   2.434522   2.785232
     9  C    4.504690   3.779904   2.432221   1.409841   2.417740
    10  C    3.382690   2.460968   1.420705   2.444115   3.742088
    11  C    4.528375   3.331901   2.441533   3.304279   4.569983
    12  C    5.609439   4.562818   3.718957   4.559762   5.889260
    13  C    5.783427   5.056156   4.220459   5.078204   6.457575
    14  C    4.939741   4.530946   3.724134   4.565782   5.902113
    15  C    3.666284   3.288419   2.448662   3.311027   4.585261
    16  H    1.100088   2.179466   2.783081   3.062512   2.901482
    17  H    1.101002   2.180959   3.448822   4.232136   4.185366
    18  H    1.100205   2.170206   2.784558   3.681537   4.125275
    19  H    2.178804   1.102582   2.093744   2.693923   2.651620
    20  H    2.162907   1.100062   2.062587   3.336543   3.916111
    21  H    2.928492   2.559137   2.699032   2.174128   1.090481
    22  H    5.186275   4.921702   4.590811   3.416240   2.149907
    23  H    6.638680   6.215544   5.313410   3.919792   3.417973
    24  H    6.500354   5.888893   4.579170   3.418591   3.877717
    25  H    4.889346   4.117596   2.663531   2.166460   3.409242
    26  H    4.804007   3.397910   2.648331   3.338781   4.415123
    27  H    6.539235   5.382467   4.596530   5.372182   6.651770
    28  H    6.803882   6.118296   5.313043   6.145764   7.533829
    29  H    5.491674   5.334468   4.603862   5.380766   6.671583
    30  H    3.253244   3.327746   2.662470   3.350001   4.443445
                    6          7          8          9         10
     6  C    0.000000
     7  C    1.394254   0.000000
     8  C    2.401384   1.396160   0.000000
     9  C    2.781389   2.425108   1.392014   0.000000
    10  C    4.876365   5.085054   4.220184   2.828230   0.000000
    11  C    5.622089   5.722836   4.772944   3.464539   1.398748
    12  C    6.881375   6.827668   5.723138   4.471402   2.421686
    13  C    7.441937   7.326986   6.149775   4.902007   2.799795
    14  C    6.897290   6.841096   5.730996   4.474153   2.422462
    15  C    5.639934   5.736780   4.780019   3.465809   1.399249
    16  H    4.008546   4.982174   5.069941   4.257263   3.858973
    17  H    5.438470   6.501634   6.527965   5.536632   4.305188
    18  H    5.366225   6.115824   5.823128   4.709187   3.236871
    19  H    3.982980   5.011149   5.026733   4.062257   3.277033
    20  H    5.304273   6.088142   5.730564   4.481271   2.486014
    21  H    2.147493   3.405819   3.875496   3.415056   4.114290
    22  H    1.092524   2.156761   3.394775   3.873886   5.845129
    23  H    2.164962   1.092510   2.167629   3.416439   6.150437
    24  H    3.394940   2.159240   1.092515   2.148939   4.844420
    25  H    3.872492   3.410162   2.153942   1.091131   2.465242
    26  H    5.421809   5.594778   4.789356   3.604719   2.149441
    27  H    7.592437   7.495707   6.390667   5.228344   3.410259
    28  H    8.483058   8.293847   7.062036   5.876430   3.892381
    29  H    7.617446   7.516539   6.402120   5.231620   3.411147
    30  H    5.453223   5.616523   4.796997   3.602828   2.151409
                   11         12         13         14         15
    11  C    0.000000
    12  C    1.394264   0.000000
    13  C    2.418527   1.396437   0.000000
    14  C    2.789980   2.415681   1.395985   0.000000
    15  C    2.416849   2.789621   2.418342   1.394754   0.000000
    16  H    5.094445   6.233479   6.387354   5.455083   4.104867
    17  H    5.320640   6.377304   6.584531   5.797059   4.609740
    18  H    4.467321   5.338878   5.257243   4.262402   3.101811
    19  H    3.909396   5.231711   5.916474   5.520665   4.288721
    20  H    3.045966   4.123701   4.657483   4.312724   3.298462
    21  H    4.958358   6.320087   6.910741   6.334415   4.975848
    22  H    6.595254   7.892318   8.478527   7.910955   6.616088
    23  H    6.743794   7.803328   8.292108   7.817897   6.758504
    24  H    5.260996   6.010615   6.357344   6.016116   5.264754
    25  H    2.928819   3.677818   3.999941   3.671651   2.918526
    26  H    1.092509   2.169624   3.415178   3.882367   3.400269
    27  H    2.157065   1.092556   2.161238   3.406873   3.882173
    28  H    3.408910   2.162111   1.092586   2.161586   3.408786
    29  H    3.882539   3.406979   2.160883   1.092564   2.157654
    30  H    3.401049   3.881800   3.413795   2.168347   1.092327
                   16         17         18         19         20
    16  H    0.000000
    17  H    1.780731   0.000000
    18  H    1.775332   1.779313   0.000000
    19  H    2.567211   2.513625   3.091210   0.000000
    20  H    3.086344   2.525899   2.502744   1.755837   0.000000
    21  H    2.439589   3.470446   3.846569   2.051291   3.590110
    22  H    4.408111   5.770052   5.962573   4.447367   5.954030
    23  H    5.921213   7.480266   7.133932   6.023976   7.167033
    24  H    6.057647   7.526573   6.686616   6.051723   6.623721
    25  H    4.818872   5.949568   4.887282   4.587205   4.607275
    26  H    5.340844   5.506681   4.977010   3.668158   3.130513
    27  H    7.190674   7.246753   6.335726   5.925733   4.862382
    28  H    7.427237   7.569814   6.212361   6.980668   5.657123
    29  H    5.955748   6.317959   4.658570   6.376602   5.147249
    30  H    3.521377   4.225786   2.542548   4.361226   3.562733
                   21         22         23         24         25
    21  H    0.000000
    22  H    2.456796   0.000000
    23  H    4.304720   2.492920   0.000000
    24  H    4.968008   4.302293   2.497493   0.000000
    25  H    4.323456   4.965002   4.312631   2.468826   0.000000
    26  H    4.749782   6.326775   6.586458   5.334017   3.289796
    27  H    7.078563   8.587170   8.428748   6.604958   4.439470
    28  H    8.002617   9.531640   9.223412   7.160386   4.911050
[...]
     1  C   -0.000063  -0.000003   0.000554   0.005572   0.005751   0.000330
     2  C    0.000417  -0.000446   0.010389  -0.065333  -0.009631   0.002359
     3  N    0.000115   0.003998  -0.075374   0.159957  -0.039349   0.006778
     4  C   -0.067112  -0.015416   0.421737  -0.147234  -0.002684  -0.000898
     5  C    0.010282  -0.071810   0.030871   0.012286   0.000425   0.000038
     6  C    0.474244   0.001674  -0.059510  -0.001473  -0.000133  -0.000003
     7  C    4.946366   0.458824  -0.001614   0.000560   0.000113   0.000001
     8  C    0.458824   4.905407   0.467478  -0.005053  -0.000206  -0.000044
     9  C   -0.001614   0.467478   5.079454   0.004696   0.003225  -0.000255
    10  C    0.000560  -0.005053   0.004696   5.206681   0.455902  -0.032554
    11  C    0.000113  -0.000206   0.003225   0.455902   5.027786   0.457217
    12  C    0.000001  -0.000044  -0.000255  -0.032554   0.457217   4.885637
    13  C    0.000003  -0.000010   0.000748  -0.096428   0.023026   0.445335
    14  C   -0.000028   0.000289  -0.004615   0.000118  -0.075612   0.005902
    15  C   -0.000129   0.003456  -0.003584   0.393348   0.041124  -0.064284
    16  H   -0.000128   0.000112  -0.000445  -0.007115  -0.000389   0.000017
    17  H   -0.000002   0.000003  -0.000029  -0.000525  -0.000595  -0.000039
    18  H    0.000009  -0.000018  -0.000019   0.014498   0.001939   0.000034
    19  H   -0.000064  -0.000121  -0.000724   0.018526  -0.000881  -0.000229
    20  H   -0.000039   0.000094  -0.000686  -0.002210  -0.013252  -0.000602
    21  H    0.004167   0.000129   0.002228  -0.000465  -0.000045   0.000003
    22  H   -0.054471   0.009761  -0.002456   0.000010   0.000001   0.000000
    23  H    0.447923  -0.060431   0.012348   0.000001   0.000000  -0.000000
    24  H   -0.058469   0.440420  -0.056141   0.000118  -0.000025   0.000004
    25  H    0.007445  -0.039801   0.434222   0.003485   0.000607   0.000007
    26  H    0.000004  -0.000008  -0.000062  -0.052666   0.429118  -0.036815
    27  H   -0.000000   0.000000   0.000002   0.015784  -0.056592   0.443564
    28  H    0.000000  -0.000001   0.000000  -0.003519   0.010610  -0.055305
    29  H   -0.000000  -0.000014  -0.000072   0.012802  -0.003086   0.010323
    30  H    0.000013   0.000073   0.000945  -0.040888   0.010750  -0.002661
              13         14         15         16         17         18
     1  C   -0.000004  -0.000760  -0.006553   0.420041   0.405435   0.405355
     2  C   -0.000009  -0.000905  -0.001847  -0.042402  -0.041567  -0.034855
     3  N    0.000692   0.013256  -0.043277   0.003216   0.007717  -0.006928
     4  C    0.001184  -0.003463   0.024511  -0.002952   0.000197  -0.000914
     5  C    0.000045  -0.000711  -0.001308   0.005096  -0.000532   0.000437
     6  C   -0.000004   0.000093   0.000477   0.001876  -0.000021  -0.000052
     7  C    0.000003  -0.000028  -0.000129  -0.000128  -0.000002   0.000009
     8  C   -0.000010   0.000289   0.003456   0.000112   0.000003  -0.000018
     9  C    0.000748  -0.004615  -0.003584  -0.000445  -0.000029  -0.000019
    10  C   -0.096428   0.000118   0.393348  -0.007115  -0.000525   0.014498
    11  C    0.023026  -0.075612   0.041124  -0.000389  -0.000595   0.001939
    12  C    0.445335   0.005902  -0.064284   0.000017  -0.000039   0.000034
    13  C    4.959136   0.419054   0.041802  -0.000006  -0.000003  -0.000140
    14  C    0.419054   4.972773   0.372489   0.000170   0.000115  -0.000129
    15  C    0.041802   0.372489   5.131166   0.002358   0.000330  -0.005440
    16  H   -0.000006   0.000170   0.002358   0.540471  -0.022268  -0.023531
    17  H   -0.000003   0.000115   0.000330  -0.022268   0.555750  -0.022027
    18  H   -0.000140  -0.000129  -0.005440  -0.023531  -0.022027   0.540569
    19  H   -0.000021   0.000129  -0.001063  -0.004092   0.000145   0.005147
    20  H   -0.000324   0.001044   0.001730   0.004651   0.000039  -0.003797
    21  H   -0.000001   0.000010   0.000079  -0.000655   0.000170   0.000322
    22  H    0.000000  -0.000000  -0.000001   0.000038  -0.000001  -0.000002
    23  H    0.000000  -0.000000   0.000001  -0.000001  -0.000000  -0.000000
    24  H   -0.000006   0.000022  -0.000016   0.000000   0.000000  -0.000000
    25  H    0.000437  -0.001049  -0.002942  -0.000002   0.000000   0.000004
    26  H    0.008859  -0.003274   0.009299  -0.000024  -0.000038   0.000049
    27  H   -0.059114   0.011843  -0.004672  -0.000000   0.000001   0.000001
    28  H    0.443694  -0.055836   0.011740  -0.000000  -0.000000  -0.000001
    29  H   -0.056794   0.440609  -0.053494  -0.000000  -0.000000   0.000014
    30  H    0.008907  -0.046171   0.435400  -0.000230  -0.000016   0.000065
              19         20         21         22         23         24
     1  C   -0.057063  -0.041198  -0.005917   0.000022   0.000001  -0.000001
     2  C    0.405665   0.409626   0.009148   0.000049  -0.000003   0.000016
     3  N   -0.032399  -0.029700  -0.004508  -0.000151   0.000022  -0.000160
     4  C   -0.021899   0.003409  -0.060470   0.013458  -0.003651   0.013827
     5  C    0.004585   0.001074   0.422465  -0.053087   0.013590  -0.003544
     6  C    0.001872   0.000227  -0.011724   0.433961  -0.060628   0.011169
     7  C   -0.000064  -0.000039   0.004167  -0.054471   0.447923  -0.058469
     8  C   -0.000121   0.000094   0.000129   0.009761  -0.060431   0.440420
     9  C   -0.000724  -0.000686   0.002228  -0.002456   0.012348  -0.056141
    10  C    0.018526  -0.002210  -0.000465   0.000010   0.000001   0.000118
    11  C   -0.000881  -0.013252  -0.000045   0.000001   0.000000  -0.000025
    12  C   -0.000229  -0.000602   0.000003   0.000000  -0.000000   0.000004
    13  C   -0.000021  -0.000324  -0.000001   0.000000   0.000000  -0.000006
    14  C    0.000129   0.001044   0.000010  -0.000000  -0.000000   0.000022
    15  C   -0.001063   0.001730   0.000079  -0.000001   0.000001  -0.000016
    16  H   -0.004092   0.004651  -0.000655   0.000038  -0.000001   0.000000
    17  H    0.000145   0.000039   0.000170  -0.000001  -0.000000   0.000000
    18  H    0.005147  -0.003797   0.000322  -0.000002  -0.000000  -0.000000
    19  H    0.575227  -0.013061  -0.002649  -0.000093  -0.000000  -0.000000
    20  H   -0.013061   0.564217   0.000315  -0.000000  -0.000000   0.000000
    21  H   -0.002649   0.000315   0.525754  -0.006768  -0.000165   0.000047
    22  H   -0.000093  -0.000000  -0.006768   0.554318  -0.007025  -0.000187
    23  H   -0.000000  -0.000000  -0.000165  -0.007025   0.553400  -0.007079
    24  H   -0.000000   0.000000   0.000047  -0.000187  -0.007079   0.552690
    25  H    0.000009  -0.000025  -0.000175   0.000032  -0.000104  -0.007189
    26  H   -0.000337  -0.002749  -0.000005   0.000000   0.000000  -0.000000
    27  H    0.000004   0.000053  -0.000000  -0.000000  -0.000000   0.000000
    28  H    0.000000  -0.000002   0.000000   0.000000   0.000000  -0.000000
    29  H   -0.000001  -0.000002   0.000000   0.000000   0.000000   0.000001
    30  H    0.000002  -0.000243  -0.000016  -0.000001   0.000001  -0.000006
              25         26         27         28         29         30
     1  C    0.000020   0.000816  -0.000008   0.000001  -0.000002   0.000422
     2  C   -0.000228  -0.002575  -0.000016  -0.000001   0.000025   0.000024
     3  N   -0.005367   0.005955  -0.000292   0.000011  -0.000248  -0.005462
     4  C   -0.048315   0.001095  -0.000014   0.000009  -0.000010   0.001319
     5  C    0.006446  -0.000105  -0.000002   0.000000   0.000002   0.000487
     6  C   -0.001945  -0.000005   0.000000  -0.000000   0.000000  -0.000075
     7  C    0.007445   0.000004  -0.000000   0.000000  -0.000000   0.000013
     8  C   -0.039801  -0.000008   0.000000  -0.000001  -0.000014   0.000073
     9  C    0.434222  -0.000062   0.000002   0.000000  -0.000072   0.000945
    10  C    0.003485  -0.052666   0.015784  -0.003519   0.012802  -0.040888
    11  C    0.000607   0.429118  -0.056592   0.010610  -0.003086   0.010750
    12  C    0.000007  -0.036815   0.443564  -0.055305   0.010323  -0.002661
    13  C    0.000437   0.008859  -0.059114   0.443694  -0.056794   0.008907
    14  C   -0.001049  -0.003274   0.011843  -0.055836   0.440609  -0.046171
    15  C   -0.002942   0.009299  -0.004672   0.011740  -0.053494   0.435400
    16  H   -0.000002  -0.000024  -0.000000  -0.000000  -0.000000  -0.000230
    17  H    0.000000  -0.000038   0.000001  -0.000000  -0.000000  -0.000016
    18  H    0.000004   0.000049   0.000001  -0.000001   0.000014   0.000065
    19  H    0.000009  -0.000337   0.000004   0.000000  -0.000001   0.000002
    20  H   -0.000025  -0.002749   0.000053  -0.000002  -0.000002  -0.000243
    21  H   -0.000175  -0.000005  -0.000000   0.000000   0.000000  -0.000016
    22  H    0.000032   0.000000  -0.000000   0.000000   0.000000  -0.000001
    23  H   -0.000104   0.000000  -0.000000   0.000000   0.000000   0.000001
    24  H   -0.007189  -0.000000   0.000000  -0.000000   0.000001  -0.000006
    25  H    0.507022  -0.000018  -0.000009   0.000004  -0.000009  -0.000308
    26  H   -0.000018   0.514532  -0.007221  -0.000087   0.000037  -0.000122
    27  H   -0.000009  -0.007221   0.542896  -0.006926  -0.000134   0.000014
    28  H    0.000004  -0.000087  -0.006926   0.540618  -0.006818  -0.000071
    29  H   -0.000009   0.000037  -0.000134  -0.006818   0.540087  -0.006282
    30  H   -0.000308  -0.000122   0.000014  -0.000071  -0.006282   0.500393
 Mulliken charges:
               1
     1  C   -0.356633
     2  C   -0.144535
     3  N   -0.032324
     4  C    0.247416
     5  C   -0.304101
     6  C   -0.115237
     7  C   -0.168368
     8  C   -0.098333
     9  C   -0.263313
    10  C    0.151118
    11  C   -0.265113
    12  C   -0.063860
    13  C   -0.140055
    14  C   -0.045363
    15  C   -0.280695
    16  H    0.126195
    17  H    0.117760
    18  H    0.129409
    19  H    0.123383
    20  H    0.121412
    21  H    0.128725
    22  H    0.112593
    23  H    0.111800
    24  H    0.114509
    25  H    0.147747
    26  H    0.136345
    27  H    0.120836
    28  H    0.121880
    29  H    0.123067
    30  H    0.143736
 Sum of Mulliken charges =  -0.00000
 Mulliken charges with hydrogens summed into heavy atoms:
               1
     1  C    0.016731
     2  C    0.100260
     3  N   -0.032324
     4  C    0.247416
     5  C   -0.175376
     6  C   -0.002644
     7  C   -0.056568
     8  C    0.016176
     9  C   -0.115566
    10  C    0.151118
    11  C   -0.128768
    12  C    0.056976
    13  C   -0.018175
    14  C    0.077704
    15  C   -0.136960
 Electronic spatial extent (au):  <R**2>=           3376.5465
 Charge=              0.0000 electrons
 Dipole moment (field-independent basis, Debye):
    X=              1.3078    Y=              0.9073    Z=             -0.1051  Tot=              1.5952
 Quadrupole moment (field-independent basis, Debye-Ang):
   XX=            -84.9443   YY=            -84.7387   ZZ=            -89.4805
   XY=             -3.1803   XZ=              2.0450   YZ=              2.2926
 Traceless Quadrupole moment (field-independent basis, Debye-Ang):
   XX=              1.4435   YY=              1.6491   ZZ=             -3.0927
   XY=             -3.1803   XZ=              2.0450   YZ=              2.2926
 Octapole moment (field-independent basis, Debye-Ang**2):
  XXX=              8.9101  YYY=              9.0372  ZZZ=             -0.5109  XYY=             -9.1396
  XXY=            -11.7125  XXZ=             -0.0594  XZZ=             19.8777  YZZ=              2.1299
  YYZ=              1.1720  XYZ=              5.4707
 Hexadecapole moment (field-independent basis, Debye-Ang**3):
 XXXX=          -2933.9713 YYYY=          -1133.2658 ZZZZ=           -394.2576 XXXY=            -69.9249
 XXXZ=             49.5764 YYYX=             21.9897 YYYZ=              7.9774 ZZZX=              6.1023
 ZZZY=             17.6351 XXYY=           -693.7550 XXZZ=           -601.0884 YYZZ=           -273.6306
 XXYZ=             16.0573 YYXZ=             -8.0170 ZZXY=            -17.3671
 N-N= 9.293509631888D+02 E-N=-3.244108174344D+03  KE= 5.938461052565D+02
 Breneman (CHELPG) radii used.
 Read replacement radii for each type of atom:
 Atom Element Radius
    1     6    1.50
    2     6    1.50
    3     7    1.70
    4     6    1.50
    5     6    1.50
    6     6    1.50
    7     6    1.50
    8     6    1.50
    9     6    1.50
   10     6    1.50
   11     6    1.50
   12     6    1.50
   13     6    1.50
   14     6    1.50
   15     6    1.50
   16     1    1.45
   17     1    1.45
   18     1    1.45
   19     1    1.45
   20     1    1.45
   21     1    1.45
   22     1    1.45
   23     1    1.45
   24     1    1.45
   25     1    1.45
   26     1    1.45
   27     1    1.45
   28     1    1.45
   29     1    1.45
   30     1    1.45
 Generate Potential Derived Charges using the Breneman model, NDens= 1.
 Grid spacing= 0.300 Box extension= 2.800
 NStep X,Y,Z=   51     44     35   Total possible points=       78540
 Number of Points to Fit=   18192

 **********************************************************************

            Electrostatic Properties Using The SCF Density.

 **********************************************************************

       Atomic Center    1 is at   0.071772  2.903135 -0.845634
       Atomic Center    2 is at   0.002539  2.197941  0.507076
       Atomic Center    3 is at  -0.037986  0.746536  0.417618
       Atomic Center    4 is at  -1.238362  0.063227  0.228769
       Atomic Center    5 is at  -2.456212  0.737557  0.016936
       Atomic Center    6 is at  -3.648354  0.029631 -0.125298
       Atomic Center    7 is at  -3.670690 -1.360791 -0.072880
       Atomic Center    8 is at  -2.468138 -2.037577  0.135879
       Atomic Center    9 is at  -1.273326 -1.345861  0.289268
       Atomic Center   10 is at   1.204410  0.097712  0.182150
       Atomic Center   11 is at   2.167346  0.043887  1.194899
       Atomic Center   12 is at   3.404780 -0.553033  0.960793
       Atomic Center   13 is at   3.686831 -1.118675 -0.281708
       Atomic Center   14 is at   2.726160 -1.076808 -1.292656
       Atomic Center   15 is at   1.496005 -0.465038 -1.066796
       Atomic Center   16 is at  -0.800414  2.660434 -1.470567
       Atomic Center   17 is at   0.107733  3.994967 -0.713289
       Atomic Center   18 is at   0.975520  2.596489 -1.393908
       Atomic Center   19 is at  -0.869588  2.539555  1.084732
       Atomic Center   20 is at   0.885089  2.471024  1.105619
       Atomic Center   21 is at  -2.485642  1.824925 -0.047834
       Atomic Center   22 is at  -4.574638  0.585700 -0.289294
       Atomic Center   23 is at  -4.606848 -1.909214 -0.190743
       Atomic Center   24 is at  -2.457566 -3.128864  0.191234
       Atomic Center   25 is at  -0.351264 -1.899732  0.470189
       Atomic Center   26 is at   1.931580  0.469025  2.173011
       Atomic Center   27 is at   4.148276 -0.588049  1.760160
       Atomic Center   28 is at   4.653498 -1.593360 -0.462304
       Atomic Center   29 is at   2.940402 -1.515128 -2.269930
       Atomic Center   30 is at   0.741188 -0.425378 -1.855194
   18192 points will be used for fitting atomic charges
 Fitting point charges to electrostatic potential
 Charges from ESP fit, RMS=   0.00377 RRMS=   0.37676:
 ESP charges:
               1
     1  C   -0.039005
     2  C    0.214654
     3  N   -0.541888
     4  C    0.426287
     5  C   -0.272536
     6  C   -0.059077
     7  C   -0.173515
     8  C   -0.052713
     9  C   -0.245606
    10  C    0.398679
    11  C   -0.223323
    12  C   -0.088988
    13  C   -0.112729
    14  C   -0.135486
    15  C   -0.092873
    16  H    0.012564
    17  H    0.011937
    18  H   -0.017135
    19  H   -0.005780
    20  H   -0.001229
    21  H    0.131429
    22  H    0.090405
    23  H    0.095742
    24  H    0.097729
    25  H    0.071788
    26  H    0.128633
    27  H    0.100257
    28  H    0.099691
    29  H    0.110271
    30  H    0.071817
 Sum of ESP charges =   0.00000
 ESP charges with hydrogens summed into heavy atoms:
               1
     1  C   -0.031639
     2  C    0.207645
     3  N   -0.541888
     4  C    0.426287
     5  C   -0.141107
     6  C    0.031328
     7  C   -0.077774
     8  C    0.045015
     9  C   -0.173818
    10  C    0.398679
    11  C   -0.094690
    12  C    0.011270
    13  C   -0.013038
    14  C   -0.025215
    15  C   -0.021055
 Charge=   0.00000 Dipole=     1.2579     0.8526    -0.0294 Tot=     1.5199
 -----------------------------------------------------------------

              Electrostatic Properties (Atomic Units)

 -----------------------------------------------------------------
    Center     Electric         -------- Electric Field --------
               Potential          X             Y             Z
 -----------------------------------------------------------------
    1 Atom    -14.776093
    2 Atom    -14.730753
    3 Atom    -18.364610
    4 Atom    -14.728312
    5 Atom    -14.779705
    6 Atom    -14.776157
    7 Atom    -14.786168
    8 Atom    -14.777051
    9 Atom    -14.782482
   10 Atom    -14.727337
   11 Atom    -14.765973
   12 Atom    -14.763129
   13 Atom    -14.765560
   14 Atom    -14.763633
   15 Atom    -14.766926
   16 Atom     -1.120325
   17 Atom     -1.116613
   18 Atom     -1.120752
   19 Atom     -1.114273
   20 Atom     -1.115025
   21 Atom     -1.110812
   22 Atom     -1.115356
   23 Atom     -1.119347
   24 Atom     -1.116534
   25 Atom     -1.115842
   26 Atom     -1.099953
   27 Atom     -1.102304
   28 Atom     -1.103606
   29 Atom     -1.103009
   30 Atom     -1.102026
 -----------------------------------------------------------------
 Unable to Open any file for archive entry.
 1\1\GINC-NOTCH312\SP\RwB97XD\def2TZVP\C14H15N1\U1366379\17-Feb-2026\0\
 \#N Guess=Read Geom=Check Integral(Ultrafine) Density Pop=(ChelpG,Read
 Radii) NMR wB97XD def2TZVP\\prod_5i_2\\0,1\C,0,-0.2300180009,2.8090643
 8,1.1753960614\C,0,-0.1280422304,2.2585726186,-0.2453344038\N,0,0.0052
 262921,0.8115139615,-0.312295863\C,0,1.2481268231,0.1901395758,-0.2001
 747771\C,0,2.4225676273,0.9144675428,0.0805214147\C,0,3.6584045912,0.2
 731300888,0.1436692688\C,0,3.7684123982,-1.0994010004,-0.0577658025\C,
 0,2.6094207026,-1.8255150203,-0.3356986355\C,0,1.3718505703,-1.1992385
 144,-0.4116723115\C,0,-1.1914134749,0.0630530493,-0.1454924672\C,0,-2.
 1578237814,0.0564138585,-1.1563386915\C,0,-3.3528148043,-0.64008505,-0
 .9853263321\C,0,-3.5875427501,-1.3523347196,0.1897973434\C,0,-2.622650
 7457,-1.3575129047,1.1975734702\C,0,-1.4357927498,-0.6476278468,1.0363
 67975\H,0,0.6612400747,2.5571881649,1.7690065122\H,0,-0.3363041211,3.9
 042373103,1.1611056635\H,0,-1.1076665608,2.3883031041,1.6892915252\H,0
 ,0.7155754586,2.7151492616,-0.7846282415\H,0,-1.0313380961,2.537106009
 7,-0.8094245879\H,0,2.3835466711,1.9882999512,0.261602826\H,0,4.548959
 1103,0.8665815852,0.3646611804\H,0,4.738461308,-1.5962523401,-0.001238
 1513\H,0,2.667592688,-2.9030377442,-0.5078760916\H,0,0.4852219786,-1.7
 884274564,-0.6492633507\H,0,-1.9580619076,0.5979994051,-2.0835995351\H
 ,0,-4.0995609249,-0.6368554793,-1.7824213097\H,0,-4.5205430203,-1.9044
 994569,0.3202184876\H,0,-2.8001033234,-1.9107108649,2.1225444563\H,0,-
 0.6781398023,-0.6443514692,1.8230343674\\Version=ES64L-G16RevC.01\Stat
 e=1-A\HF=-597.2780227\RMSD=1.406e-09\Dipole=-0.5357424,0.3168148,0.080
 4087\Quadrupole=0.8027564,1.8264779,-2.6292344,2.1372598,1.8375645,-1.
 177854\PG=C01 [X(C14H15N1)]\\@
 The archive entry for this job was punched.


     "IF I COULD JUST GET IT ON PAPER"
 LIFE AND INK, THEY RUN OUT AT THE SAME TIME,
 OR SO SAID MY OLD FRIEND THE SQUID.
     -- JIMMY BUFFETT, 1981
 Job cpu time:       0 days  1 hours  4 minutes 42.7 seconds.
 Elapsed time:       0 days  0 hours  8 minutes 20.6 seconds.
 File lengths (MBytes):  RWF=    190 Int=      0 D2E=      0 Chk=     29 Scr=      2
 Normal termination of Gaussian 16 at Tue Feb 17 16:32:27 2026.
