 Entering Gaussian System, Link 0=g16
 Input=prod_5g_1.com
 Output=prod_5g_1.log
 Initial command:
 /uufs/chpc.utah.edu/sys/installdir/gaussian16/C01/AVX/g16/l1.exe "/scratch/general/vast/u1366379/GAUSSSCRDIR/11028661-notchpeak.peaks/Gau-1136512.inp" -scrdir="/scratch/general/vast/u1366379/GAUSSSCRDIR/11028661-notchpeak.peaks/"
 Entering Link 1 = /uufs/chpc.utah.edu/sys/installdir/gaussian16/C01/AVX/g16/l1.exe PID=   1136521.
  
 Copyright (c) 1988-2019, Gaussian, Inc.  All Rights Reserved.
  
 This is part of the Gaussian(R) 16 program.  It is based on
 the Gaussian(R) 09 system (copyright 2009, Gaussian, Inc.),
 the Gaussian(R) 03 system (copyright 2003, Gaussian, Inc.),
 the Gaussian(R) 98 system (copyright 1998, Gaussian, Inc.),
 the Gaussian(R) 94 system (copyright 1995, Gaussian, Inc.),
 the Gaussian 92(TM) system (copyright 1992, Gaussian, Inc.),
 the Gaussian 90(TM) system (copyright 1990, Gaussian, Inc.),
 the Gaussian 88(TM) system (copyright 1988, Gaussian, Inc.),
 the Gaussian 86(TM) system (copyright 1986, Carnegie Mellon
 University), and the Gaussian 82(TM) system (copyright 1983,
 Carnegie Mellon University). Gaussian is a federally registered
 trademark of Gaussian, Inc.
  
 This software contains proprietary and confidential information,
 including trade secrets, belonging to Gaussian, Inc.
  
 This software is provided under written license and may be
 used, copied, transmitted, or stored only in accord with that
 written license.
  
 The following legend is applicable only to US Government
 contracts under FAR:
  
                    RESTRICTED RIGHTS LEGEND
  
 Use, reproduction and disclosure by the US Government is
 subject to restrictions as set forth in subparagraphs (a)
 and (c) of the Commercial Computer Software - Restricted
 Rights clause in FAR 52.227-19.
  
 Gaussian, Inc.
 340 Quinnipiac St., Bldg. 40, Wallingford CT 06492
  
  
 ---------------------------------------------------------------
 Warning -- This program may not be used in any manner that
 competes with the business of Gaussian, Inc. or will provide
 assistance to any competitor of Gaussian, Inc.  The licensee
 of this program is prohibited from giving any competitor of
 Gaussian, Inc. access to this program.  By using this program,
 the user acknowledges that Gaussian, Inc. is engaged in the
 business of creating and licensing software in the field of
 computational chemistry and represents and warrants to the
 licensee that it is not a competitor of Gaussian, Inc. and that
 it will not use this program in any manner prohibited above.
 ---------------------------------------------------------------
  

 Cite this work as:
 Gaussian 16, Revision C.01,
 M. J. Frisch, G. W. Trucks, H. B. Schlegel, G. E. Scuseria, 
 M. A. Robb, J. R. Cheeseman, G. Scalmani, V. Barone, 
 G. A. Petersson, H. Nakatsuji, X. Li, M. Caricato, A. V. Marenich, 
 J. Bloino, B. G. Janesko, R. Gomperts, B. Mennucci, H. P. Hratchian, 
 J. V. Ortiz, A. F. Izmaylov, J. L. Sonnenberg, D. Williams-Young, 
 F. Ding, F. Lipparini, F. Egidi, J. Goings, B. Peng, A. Petrone, 
 T. Henderson, D. Ranasinghe, V. G. Zakrzewski, J. Gao, N. Rega, 
 G. Zheng, W. Liang, M. Hada, M. Ehara, K. Toyota, R. Fukuda, 
 J. Hasegawa, M. Ishida, T. Nakajima, Y. Honda, O. Kitao, H. Nakai, 
 T. Vreven, K. Throssell, J. A. Montgomery, Jr., J. E. Peralta, 
 F. Ogliaro, M. J. Bearpark, J. J. Heyd, E. N. Brothers, K. N. Kudin, 
 V. N. Staroverov, T. A. Keith, R. Kobayashi, J. Normand, 
 K. Raghavachari, A. P. Rendell, J. C. Burant, S. S. Iyengar, 
 J. Tomasi, M. Cossi, J. M. Millam, M. Klene, C. Adamo, R. Cammi, 
 J. W. Ochterski, R. L. Martin, K. Morokuma, O. Farkas, 
 J. B. Foresman, and D. J. Fox, Gaussian, Inc., Wallingford CT, 2019.
 
 ******************************************
 Gaussian 16:  ES64L-G16RevC.01  3-Jul-2019
                17-Feb-2026 
 ******************************************
 %NProcShared=8
 Will use up to    8 processors via shared memory.
 %Mem=8GB
 %chk=prod_5g_1.chk
 ------------------------------------------------------
 #N OPT FREQ=NORAMAN Integral(Ultrafine) wB97XD def2SVP
 ------------------------------------------------------
 1/18=20,19=15,26=4,38=1/1,3;
 2/9=110,12=2,17=6,18=5,40=1/2;
 3/5=43,7=101,11=2,25=1,30=1,71=1,74=-58,75=-5/1,2,3;
 4//1;
 5/5=2,38=5/2;
 6/7=2,8=2,9=2,10=2,28=1/1;
 7//1,2,3,16;
 1/18=20,19=15,26=4/3(2);
 2/9=110/2;
 99//99;
 2/9=110/2;
 3/5=43,7=101,11=2,25=1,30=1,71=1,74=-58,75=-5/1,2,3;
 4/5=5,16=3,69=1/1;
 5/5=2,38=5/2;
 7//1,2,3,16;
 1/18=20,19=15,26=4/3(-5);
 2/9=110/2;
 6/7=2,8=2,9=2,10=2,19=2,28=1/1;
 99/9=1/99;
 ---------
 prod_5g_1
 ---------
 Symbolic Z-matrix:
 Charge =  0 Multiplicity = 1
 C                    -1.81455   2.96     -0.54038 
 O                    -2.85513   2.04986  -0.27754 
 C                    -2.44266   0.72318  -0.09685 
 C                    -1.12093   0.29416  -0.17875 
 C                    -0.76596  -1.03561   0.01527 
 N                     0.59995  -1.43071  -0.08816 
 C                     0.92095  -2.84086  -0.30362 
 C                     1.67536  -0.48961   0.02492 
 C                     1.67409   0.46938   1.03777 
 C                     2.7007    1.3794    1.14763 
 C                     3.75062   1.35042   0.2506 
 C                     3.76951   0.40612  -0.75749 
 C                     2.7445   -0.50603  -0.87067 
 C                    -1.7765   -1.95818   0.2868 
 C                    -3.0905   -1.55331   0.37059 
 C                    -3.4237   -0.23087   0.1835 
 H                    -2.24425   3.95632  -0.6488 
 H                    -1.31027   2.69023  -1.46903 
 H                    -1.10814   2.96824   0.29062 
 H                    -0.3475    0.99847  -0.41333 
 H                     0.65344  -3.42378   0.57548 
 H                     1.98634  -2.9724   -0.47983 
 H                     0.37663  -3.22182  -1.16572 
 H                     0.86049   0.47821   1.74204 
 H                     2.68633   2.11422   1.93596 
 H                     4.55399   2.06364   0.33704 
 H                     4.58714   0.38582  -1.45945 
 H                     2.74584  -1.22528  -1.67075 
 H                    -1.52464  -2.99218   0.43982 
 H                    -3.86193  -2.27492   0.58448 
 H                    -4.44692   0.09411   0.24781 
 

 GradGradGradGradGradGradGradGradGradGradGradGradGradGradGradGradGradGrad
 Berny optimization.
 Initialization pass.
                           ----------------------------
                           !    Initial Parameters    !
                           ! (Angstroms and Degrees)  !
 --------------------------                            --------------------------
 ! Name  Definition              Value          Derivative Info.                !
 --------------------------------------------------------------------------------
 ! R1    R(1,2)                  1.4072         estimate D2E/DX2                !
 ! R2    R(1,17)                 1.0904         estimate D2E/DX2                !
 ! R3    R(1,18)                 1.0906         estimate D2E/DX2                !
 ! R4    R(1,19)                 1.0907         estimate D2E/DX2                !
 ! R5    R(2,3)                  1.401          estimate D2E/DX2                !
 ! R6    R(3,4)                  1.392          estimate D2E/DX2                !
 ! R7    R(3,16)                 1.3969         estimate D2E/DX2                !
 ! R8    R(4,5)                  1.3899         estimate D2E/DX2                !
 ! R9    R(4,20)                 1.072          estimate D2E/DX2                !
 ! R10   R(5,6)                  1.4257         estimate D2E/DX2                !
 ! R11   R(5,14)                 1.395          estimate D2E/DX2                !
 ! R12   R(6,7)                  1.4622         estimate D2E/DX2                !
 ! R13   R(6,8)                  1.4335         estimate D2E/DX2                !
 ! R14   R(7,21)                 1.0882         estimate D2E/DX2                !
 ! R15   R(7,22)                 1.0878         estimate D2E/DX2                !
 ! R16   R(7,23)                 1.0884         estimate D2E/DX2                !
 ! R17   R(8,9)                  1.3948         estimate D2E/DX2                !
 ! R18   R(8,13)                 1.3948         estimate D2E/DX2                !
 ! R19   R(9,10)                 1.3763         estimate D2E/DX2                !
 ! R20   R(9,24)                 1.0761         estimate D2E/DX2                !
 ! R21   R(10,11)                1.3812         estimate D2E/DX2                !
 ! R22   R(10,25)                1.0778         estimate D2E/DX2                !
 ! R23   R(11,12)                1.3814         estimate D2E/DX2                !
 ! R24   R(11,26)                1.0778         estimate D2E/DX2                !
 ! R25   R(12,13)                1.3768         estimate D2E/DX2                !
 ! R26   R(12,27)                1.0778         estimate D2E/DX2                !
 ! R27   R(13,28)                1.0758         estimate D2E/DX2                !
 ! R28   R(14,15)                1.3775         estimate D2E/DX2                !
 ! R29   R(14,29)                1.0752         estimate D2E/DX2                !
 ! R30   R(15,16)                1.3765         estimate D2E/DX2                !
 ! R31   R(15,30)                1.0778         estimate D2E/DX2                !
 ! R32   R(16,31)                1.0755         estimate D2E/DX2                !
 ! A1    A(2,1,17)             108.5494         estimate D2E/DX2                !
 ! A2    A(2,1,18)             109.936          estimate D2E/DX2                !
 ! A3    A(2,1,19)             109.9684         estimate D2E/DX2                !
 ! A4    A(17,1,18)            108.8776         estimate D2E/DX2                !
 ! A5    A(17,1,19)            108.9092         estimate D2E/DX2                !
 ! A6    A(18,1,19)            110.5572         estimate D2E/DX2                !
 ! A7    A(1,2,3)              114.7611         estimate D2E/DX2                !
 ! A8    A(2,3,4)              124.3187         estimate D2E/DX2                !
 ! A9    A(2,3,16)             117.7665         estimate D2E/DX2                !
 ! A10   A(4,3,16)             117.9148         estimate D2E/DX2                !
 ! A11   A(3,4,5)              121.9468         estimate D2E/DX2                !
 ! A12   A(3,4,20)             119.6972         estimate D2E/DX2                !
 ! A13   A(5,4,20)             118.3486         estimate D2E/DX2                !
 ! A14   A(4,5,6)              119.9796         estimate D2E/DX2                !
 ! A15   A(4,5,14)             118.3513         estimate D2E/DX2                !
 ! A16   A(6,5,14)             121.66           estimate D2E/DX2                !
 ! A17   A(5,6,7)              119.2286         estimate D2E/DX2                !
 ! A18   A(5,6,8)              122.079          estimate D2E/DX2                !
 ! A19   A(7,6,8)              118.6897         estimate D2E/DX2                !
 ! A20   A(6,7,21)             110.0965         estimate D2E/DX2                !
 ! A21   A(6,7,22)             110.8232         estimate D2E/DX2                !
 ! A22   A(6,7,23)             110.1504         estimate D2E/DX2                !
 ! A23   A(21,7,22)            107.8687         estimate D2E/DX2                !
 ! A24   A(21,7,23)            109.2349         estimate D2E/DX2                !
 ! A25   A(22,7,23)            108.6121         estimate D2E/DX2                !
 ! A26   A(6,8,9)              120.5283         estimate D2E/DX2                !
 ! A27   A(6,8,13)             121.1088         estimate D2E/DX2                !
 ! A28   A(9,8,13)             118.3628         estimate D2E/DX2                !
 ! A29   A(8,9,10)             120.7903         estimate D2E/DX2                !
 ! A30   A(8,9,24)             118.7876         estimate D2E/DX2                !
 ! A31   A(10,9,24)            120.4176         estimate D2E/DX2                !
 ! A32   A(9,10,11)            120.0854         estimate D2E/DX2                !
 ! A33   A(9,10,25)            119.9504         estimate D2E/DX2                !
 ! A34   A(11,10,25)           119.9641         estimate D2E/DX2                !
 ! A35   A(10,11,12)           119.9117         estimate D2E/DX2                !
 ! A36   A(10,11,26)           120.042          estimate D2E/DX2                !
 ! A37   A(12,11,26)           120.0464         estimate D2E/DX2                !
 ! A38   A(11,12,13)           120.1789         estimate D2E/DX2                !
 ! A39   A(11,12,27)           119.9023         estimate D2E/DX2                !
 ! A40   A(13,12,27)           119.9184         estimate D2E/DX2                !
 ! A41   A(8,13,12)            120.6706         estimate D2E/DX2                !
 ! A42   A(8,13,28)            119.1002         estimate D2E/DX2                !
 ! A43   A(12,13,28)           120.2079         estimate D2E/DX2                !
 ! A44   A(5,14,15)            120.5614         estimate D2E/DX2                !
 ! A45   A(5,14,29)            119.6052         estimate D2E/DX2                !
 ! A46   A(15,14,29)           119.8315         estimate D2E/DX2                !
 ! A47   A(14,15,16)           120.3307         estimate D2E/DX2                !
 ! A48   A(14,15,30)           119.8712         estimate D2E/DX2                !
 ! A49   A(16,15,30)           119.7981         estimate D2E/DX2                !
 ! A50   A(3,16,15)            120.8923         estimate D2E/DX2                !
 ! A51   A(3,16,31)            118.2807         estimate D2E/DX2                !
 ! A52   A(15,16,31)           120.8269         estimate D2E/DX2                !
 ! D1    D(17,1,2,3)          -179.2014         estimate D2E/DX2                !
 ! D2    D(18,1,2,3)            61.8031         estimate D2E/DX2                !
 ! D3    D(19,1,2,3)           -60.1487         estimate D2E/DX2                !
 ! D4    D(1,2,3,4)             -0.7643         estimate D2E/DX2                !
 ! D5    D(1,2,3,16)           179.2569         estimate D2E/DX2                !
 ! D6    D(2,3,4,5)            179.7144         estimate D2E/DX2                !
 ! D7    D(2,3,4,20)            -1.2926         estimate D2E/DX2                !
 ! D8    D(16,3,4,5)            -0.3068         estimate D2E/DX2                !
 ! D9    D(16,3,4,20)          178.6862         estimate D2E/DX2                !
 ! D10   D(2,3,16,15)          179.8956         estimate D2E/DX2                !
 ! D11   D(2,3,16,31)           -0.0005         estimate D2E/DX2                !
 ! D12   D(4,3,16,15)           -0.0846         estimate D2E/DX2                !
 ! D13   D(4,3,16,31)         -179.9807         estimate D2E/DX2                !
 ! D14   D(3,4,5,6)            179.5369         estimate D2E/DX2                !
 ! D15   D(3,4,5,14)             0.6166         estimate D2E/DX2                !
 ! D16   D(20,4,5,6)             0.5308         estimate D2E/DX2                !
 ! D17   D(20,4,5,14)         -178.3895         estimate D2E/DX2                !
 ! D18   D(4,5,6,7)           -160.8675         estimate D2E/DX2                !
 ! D19   D(4,5,6,8)             19.7302         estimate D2E/DX2                !
 ! D20   D(14,5,6,7)            18.0162         estimate D2E/DX2                !
 ! D21   D(14,5,6,8)          -161.3861         estimate D2E/DX2                !
 ! D22   D(4,5,14,15)           -0.5433         estimate D2E/DX2                !
 ! D23   D(4,5,14,29)          179.9713         estimate D2E/DX2                !
 ! D24   D(6,5,14,15)         -179.4445         estimate D2E/DX2                !
 ! D25   D(6,5,14,29)            1.0701         estimate D2E/DX2                !
 ! D26   D(5,6,7,21)           -67.5126         estimate D2E/DX2                !
 ! D27   D(5,6,7,22)           173.2311         estimate D2E/DX2                !
 ! D28   D(5,6,7,23)            53.0134         estimate D2E/DX2                !
 ! D29   D(8,6,7,21)           111.9101         estimate D2E/DX2                !
 ! D30   D(8,6,7,22)            -7.3462         estimate D2E/DX2                !
 ! D31   D(8,6,7,23)          -127.5639         estimate D2E/DX2                !
 ! D32   D(5,6,8,9)             45.2461         estimate D2E/DX2                !
 ! D33   D(5,6,8,13)          -134.6521         estimate D2E/DX2                !
 ! D34   D(7,6,8,9)           -134.1593         estimate D2E/DX2                !
 ! D35   D(7,6,8,13)            45.9425         estimate D2E/DX2                !
 ! D36   D(6,8,9,10)          -179.6992         estimate D2E/DX2                !
 ! D37   D(6,8,9,24)             1.0672         estimate D2E/DX2                !
 ! D38   D(13,8,9,10)            0.2017         estimate D2E/DX2                !
 ! D39   D(13,8,9,24)         -179.0319         estimate D2E/DX2                !
 ! D40   D(6,8,13,12)          179.6919         estimate D2E/DX2                !
 ! D41   D(6,8,13,28)            1.3649         estimate D2E/DX2                !
 ! D42   D(9,8,13,12)           -0.2084         estimate D2E/DX2                !
 ! D43   D(9,8,13,28)         -178.5355         estimate D2E/DX2                !
 ! D44   D(8,9,10,11)           -0.0895         estimate D2E/DX2                !
 ! D45   D(8,9,10,25)         -179.958          estimate D2E/DX2                !
 ! D46   D(24,9,10,11)         179.1317         estimate D2E/DX2                !
 ! D47   D(24,9,10,25)          -0.7369         estimate D2E/DX2                !
 ! D48   D(9,10,11,12)          -0.0208         estimate D2E/DX2                !
 ! D49   D(9,10,11,26)         179.9752         estimate D2E/DX2                !
 ! D50   D(25,10,11,12)        179.8477         estimate D2E/DX2                !
 ! D51   D(25,10,11,26)         -0.1563         estimate D2E/DX2                !
 ! D52   D(10,11,12,13)          0.0139         estimate D2E/DX2                !
 ! D53   D(10,11,12,27)        179.7877         estimate D2E/DX2                !
 ! D54   D(26,11,12,13)       -179.9821         estimate D2E/DX2                !
 ! D55   D(26,11,12,27)         -0.2083         estimate D2E/DX2                !
 ! D56   D(11,12,13,8)           0.1032         estimate D2E/DX2                !
 ! D57   D(11,12,13,28)        178.4118         estimate D2E/DX2                !
 ! D58   D(27,12,13,8)        -179.6705         estimate D2E/DX2                !
 ! D59   D(27,12,13,28)         -1.362          estimate D2E/DX2                !
 ! D60   D(5,14,15,16)           0.1712         estimate D2E/DX2                !
 ! D61   D(5,14,15,30)        -179.7778         estimate D2E/DX2                !
 ! D62   D(29,14,15,16)        179.6554         estimate D2E/DX2                !
 ! D63   D(29,14,15,30)         -0.2936         estimate D2E/DX2                !
 ! D64   D(14,15,16,3)           0.1503         estimate D2E/DX2                !
 ! D65   D(14,15,16,31)       -179.9563         estimate D2E/DX2                !
 ! D66   D(30,15,16,3)        -179.9006         estimate D2E/DX2                !
 ! D67   D(30,15,16,31)         -0.0072         estimate D2E/DX2                !
 --------------------------------------------------------------------------------
 Trust Radius=3.00D-01 FncErr=1.00D-07 GrdErr=1.00D-06 EigMax=2.50D+02 EigMin=1.00D-04
 Number of steps in this run=    161 maximum allowed number of steps=    186.
 GradGradGradGradGradGradGradGradGradGradGradGradGradGradGradGradGradGrad

                          Input orientation:                          
 ---------------------------------------------------------------------
 Center     Atomic      Atomic             Coordinates (Angstroms)
 Number     Number       Type             X           Y           Z
 ---------------------------------------------------------------------
      1          6           0       -1.814550    2.960000   -0.540380
      2          8           0       -2.855130    2.049860   -0.277540
      3          6           0       -2.442660    0.723180   -0.096850
      4          6           0       -1.120930    0.294160   -0.178750
      5          6           0       -0.765960   -1.035610    0.015270
      6          7           0        0.599950   -1.430710   -0.088160
      7          6           0        0.920950   -2.840860   -0.303620
      8          6           0        1.675360   -0.489610    0.024920
      9          6           0        1.674090    0.469380    1.037770
     10          6           0        2.700700    1.379400    1.147630
     11          6           0        3.750620    1.350420    0.250600
     12          6           0        3.769510    0.406120   -0.757490
     13          6           0        2.744500   -0.506030   -0.870670
     14          6           0       -1.776500   -1.958180    0.286800
     15          6           0       -3.090500   -1.553310    0.370590
     16          6           0       -3.423700   -0.230870    0.183500
     17          1           0       -2.244250    3.956320   -0.648800
     18          1           0       -1.310270    2.690230   -1.469030
     19          1           0       -1.108140    2.968240    0.290620
     20          1           0       -0.347500    0.998470   -0.413330
     21          1           0        0.653440   -3.423780    0.575480
     22          1           0        1.986340   -2.972400   -0.479830
     23          1           0        0.376630   -3.221820   -1.165720
     24          1           0        0.860490    0.478210    1.742040
     25          1           0        2.686330    2.114220    1.935960
     26          1           0        4.553990    2.063640    0.337040
     27          1           0        4.587140    0.385820   -1.459450
     28          1           0        2.745840   -1.225280   -1.670750
     29          1           0       -1.524640   -2.992180    0.439820
     30          1           0       -3.861930   -2.274920    0.584480
     31          1           0       -4.446920    0.094110    0.247810
 ---------------------------------------------------------------------
                    Distance matrix (angstroms):
                    1          2          3          4          5
     1  C    0.000000
     2  O    1.407212   0.000000
     3  C    2.365292   1.401021   0.000000
     4  C    2.778235   2.469755   1.392026   0.000000
     5  C    4.168116   3.737712   2.432537   1.389941   0.000000
     6  N    5.031168   4.907933   3.727840   2.438198   1.425662
     7  C    6.417865   6.178884   4.904998   3.743423   2.491241
     8  C    4.939519   5.202473   4.294622   2.911188   2.501650
     9  C    4.567752   4.974112   4.277781   3.053319   3.043739
    10  C    5.072983   5.774762   5.332308   4.188303   4.374042
    11  C    5.847009   6.663639   6.234651   5.003202   5.113513
    12  C    6.144198   6.842374   6.255240   4.925838   4.821435
    13  C    5.736497   6.183869   5.386686   4.007569   3.659054
    14  C    4.987401   4.188831   2.789381   2.391557   1.395011
    15  C    4.777853   3.668556   2.412593   2.755744   2.407852
    16  C    3.646233   2.395320   1.396870   2.389483   2.781994
    17  H    1.090436   2.036074   3.285911   3.859302   5.248399
    18  H    1.090626   2.053367   2.652258   2.727971   4.047382
    19  H    1.090708   2.053826   2.640335   2.714991   4.027868
    20  H    2.452749   2.722511   2.136736   1.072042   2.120445
    21  H    6.934606   6.557320   5.218730   4.188118   2.834058
    22  H    7.045836   6.978814   5.781006   4.518428   3.401681
    23  H    6.588415   6.246899   4.965270   3.947013   2.734916
    24  H    4.304017   4.511609   3.788446   2.765743   2.814023
    25  H    5.206297   5.967537   5.689802   4.720153   5.052602
    26  H    6.490888   7.434579   7.137101   5.966726   6.165286
    27  H    6.960799   7.717080   7.168583   5.850697   5.731574
    28  H    6.292175   6.636147   5.761440   4.414371   3.900177
    29  H    6.039312   5.263742   3.864541   3.368329   2.141029
    30  H    5.732492   4.523323   3.386317   3.833507   3.383034
    31  H    3.970383   2.575800   2.128750   3.359194   3.857436
                    6          7          8          9         10
     6  N    0.000000
     7  C    1.462186   0.000000
     8  C    1.433514   2.491074   0.000000
     9  C    2.455980   3.650238   1.394822   0.000000
    10  C    3.719818   4.804605   2.409356   1.376275   0.000000
    11  C    4.216179   5.087339   2.782687   2.389110   1.381244
    12  C    3.723984   4.343175   2.408311   2.760026   2.391466
    13  C    2.463016   3.016341   1.394780   2.395693   2.762300
    14  C    2.462993   2.898958   3.760401   4.285274   5.650291
    15  C    3.720874   4.266623   4.895341   5.218977   6.537781
    16  C    4.207514   5.091691   5.108083   5.216090   6.405528
    17  H    6.117506   7.505951   5.965194   5.509688   5.858345
    18  H    4.747409   6.076963   4.610559   4.485825   4.965185
    19  H    4.734111   6.181907   4.446931   3.813573   4.214990
    20  H    2.627606   4.044930   2.549197   2.544102   3.445755
    21  H    2.101335   1.088198   3.155438   4.051189   5.252539
    22  H    2.110045   1.087846   2.552592   3.774448   4.700755
    23  H    2.102161   1.088408   3.251045   4.490404   5.650143
    24  H    2.657346   3.899308   2.132883   1.076113   2.133504
    25  H    4.584383   5.717089   3.384385   2.129994   1.077790
    26  H    5.293931   6.137063   3.860442   3.365488   2.135398
    27  H    4.591068   5.018800   3.383518   3.837831   3.367896
    28  H    2.674254   2.794524   2.135986   3.369956   3.837924
    29  H    2.689021   2.560569   4.083503   4.750980   6.120883
    30  H    4.590589   4.897443   5.844828   6.195496   7.532550
    31  H    5.282883   6.142650   6.154082   6.183173   7.317795
                   11         12         13         14         15
    11  C    0.000000
    12  C    1.381414   0.000000
    13  C    2.390801   1.376762   0.000000
    14  C    6.441832   6.118716   4.887527   0.000000
    15  C    7.432830   7.222996   6.056793   1.377511   0.000000
    16  C    7.346826   7.282410   6.263679   2.389046   1.376544
    17  H    6.598341   6.984343   6.696971   6.006284   5.666685
    18  H    5.510429   5.614945   5.197622   4.990794   4.955911
    19  H    5.121181   5.608428   5.316200   4.971552   4.937668
    20  H    4.166444   4.173619   3.468882   3.357678   3.827553
    21  H    5.700093   5.114180   3.870032   2.852355   4.190194
    22  H    4.725779   3.830299   2.609702   3.971817   5.339601
    23  H    5.856206   4.983998   3.615159   2.888351   4.143086
    24  H    3.367194   3.836045   3.368156   3.873943   4.649545
    25  H    2.134606   3.368317   3.840087   6.262669   7.019468
    26  H    1.077756   2.135598   3.366901   7.500178   8.457049
    27  H    2.134125   1.077812   2.130113   7.002831   8.127449
    28  H    3.366808   2.131528   1.075849   4.982038   6.191731
    29  H    6.835375   6.403906   5.111153   1.075177   2.127688
    30  H    8.438334   8.199252   6.992235   2.130248   1.077764
    31  H    8.293249   8.283580   7.302581   3.368168   2.137509
                   16         17         18         19         20
    16  C    0.000000
    17  H    4.429039   0.000000
    18  H    3.966140   1.774283   0.000000
    19  H    3.950645   1.774699   1.792907   0.000000
    20  H    3.366079   3.521645   2.214380   2.225784   0.000000
    21  H    5.193399   8.022552   6.739236   6.636432   4.640681
    22  H    6.101191   8.119951   6.626578   6.742448   4.606413
    23  H    5.020825   7.659106   6.155482   6.530108   4.347563
    24  H    4.613689   5.239540   4.462757   3.490326   2.524981
    25  H    6.775177   5.863867   5.281908   4.223091   3.996021
    26  H    8.302523   7.125320   6.167986   5.734123   5.071710
    27  H    8.200802   7.750710   6.331654   6.493678   5.081376
    28  H    6.518460   7.265973   5.641271   6.023765   4.011848
    29  H    3.361095   7.069978   5.998287   5.976817   4.247212
    30  H    2.128608   6.554862   5.948158   5.929624   4.905296
    31  H    1.075512   4.535673   4.418818   4.405668   4.249731
                   21         22         23         24         25
    21  H    0.000000
    22  H    1.758990   0.000000
    23  H    1.774595   1.767434   0.000000
    24  H    4.077899   4.255697   4.730688   0.000000
    25  H    6.054171   5.674481   6.590027   2.459233   0.000000
    26  H    6.736685   5.711550   6.902515   4.257882   2.459117
    27  H    5.841916   4.359066   5.552453   4.913857   4.257846
    28  H    3.775856   2.246677   3.139169   4.254828   4.915705
    29  H    2.224571   3.629480   2.499064   4.407746   6.785722
    30  H    4.659241   5.985106   4.682436   5.587568   7.998172
    31  H    6.204562   7.163782   6.021635   5.527102   7.603549
                   26         27         28         29         30
    26  H    0.000000
    27  H    2.458364   0.000000
    28  H    4.256480   2.455744   0.000000
    29  H    7.907062   7.236848   5.080693   0.000000
    30  H    9.471644   9.090873   7.060484   2.449145   0.000000
    31  H    9.214304   9.198591   7.560255   4.254618   2.463303
                   31
    31  H    0.000000
 Stoichiometry    C14H15NO
 Framework group  C1[X(C14H15NO)]
 Deg. of freedom    87
 Full point group                 C1      NOp   1
 Largest Abelian subgroup         C1      NOp   1
 Largest concise Abelian subgroup C1      NOp   1
                         Standard orientation:                         
 ---------------------------------------------------------------------
 Center     Atomic      Atomic             Coordinates (Angstroms)
 Number     Number       Type             X           Y           Z
 ---------------------------------------------------------------------
      1          6           0       -1.822790    2.963076   -0.551119
      2          8           0       -2.865968    2.055569   -0.289475
      3          6           0       -2.456539    0.728712   -0.103249
      4          6           0       -1.135274    0.297116   -0.178876
      5          6           0       -0.783399   -1.032689    0.020472
      6          7           0        0.582186   -1.430508   -0.076620
      7          6           0        0.901490   -2.841865   -0.286635
      8          6           0        1.658833   -0.490972    0.037690
      9          6           0        1.655452    0.471061    1.047645
     10          6           0        2.683256    1.379594    1.158645
     11          6           0        3.736493    1.346063    0.265672
     12          6           0        3.757502    0.398703   -0.739501
     13          6           0        2.731307   -0.511973   -0.853808
     14          6           0       -1.796592   -1.952653    0.290956
     15          6           0       -3.110177   -1.545214    0.368574
     16          6           0       -3.440321   -0.222757    0.176261
     17          1           0       -2.250309    3.959822   -0.664148
     18          1           0       -1.315496    2.689624   -1.477046
     19          1           0       -1.119502    2.972569    0.282511
     20          1           0       -0.359716    0.999351   -0.412650
     21          1           0        0.629636   -3.421665    0.593196
     22          1           0        1.967301   -2.975814   -0.458430
     23          1           0        0.359745   -3.224455   -1.149634
     24          1           0        0.839222    0.483445    1.748812
     25          1           0        2.667222    2.116806    1.944706
     26          1           0        4.540798    2.058121    0.353000
     27          1           0        4.577733    0.374848   -1.438308
     28          1           0        2.734383   -1.233627   -1.651715
     29          1           0       -1.547147   -2.986631    0.448027
     30          1           0       -3.883688   -2.264815    0.581718
     31          1           0       -4.463197    0.104220    0.235735
 ---------------------------------------------------------------------
 Rotational constants (GHZ):           0.8281207           0.3781278           0.2804118
 Standard basis: def2SVP (5D, 7F)
 There are   315 symmetry adapted cartesian basis functions of A   symmetry.
 There are   299 symmetry adapted basis functions of A   symmetry.
   299 basis functions,   505 primitive gaussians,   315 cartesian basis functions
    57 alpha electrons       57 beta electrons
       nuclear repulsion energy      1042.2373573326 Hartrees.
 NAtoms=   31 NActive=   31 NUniq=   31 SFac= 1.00D+00 NAtFMM=   60 NAOKFM=F Big=F
 Integral buffers will be    131072 words long.
 Raffenetti 2 integral format.
 Two-electron integral symmetry is turned on.
 Nuclear repulsion after empirical dispersion term =     1042.2165542555 Hartrees.
 One-electron integrals computed using PRISM.
   1 Symmetry operations used in ECPInt.
 ECPInt:  NShTT=   10011 NPrTT=   36031 LenC2=    9483 LenP2D=   24751.
 LDataN:  DoStor=T MaxTD1= 4 Len=   56
 NBasis=   299 RedAO= T EigKep=  2.14D-04  NBF=   299
 NBsUse=   299 1.00D-06 EigRej= -1.00D+00 NBFU=   299
 ExpMin= 1.22D-01 ExpMax= 2.27D+03 ExpMxC= 3.41D+02 IAcc=3 IRadAn=         5 AccDes= 0.00D+00
 Harris functional with IExCor= 4639 and IRadAn=       5 diagonalized for initial guess.
 HarFok:  IExCor= 4639 AccDes= 0.00D+00 IRadAn=         5 IDoV= 1 UseB2=F ITyADJ=14
 ICtDFT=  3500011 ScaDFX=  1.000000  1.000000  1.000000  1.000000
 FoFCou: FMM=F IPFlag=           0 FMFlag=      100000 FMFlg1=           0
         NFxFlg=           0 DoJE=T BraDBF=F KetDBF=T FulRan=T
         wScrn=  0.000000 ICntrl=       500 IOpCl=  0 I1Cent=   200000004 NGrid=           0
         NMat0=    1 NMatS0=      1 NMatT0=    0 NMatD0=    1 NMtDS0=    0 NMtDT0=    0
 Petite list used in FoFCou.
 Requested convergence on RMS density matrix=1.00D-08 within 128 cycles.
 Requested convergence on MAX density matrix=1.00D-06.
 Requested convergence on             energy=1.00D-06.
 No special actions if energy rises.
 Integral accuracy reduced to 1.0D-05 until final iterations.
 Initial convergence to 1.0D-05 achieved.  Increase integral accuracy.
 SCF Done:  E(RwB97XD) =  -671.772209525     A.U. after   15 cycles
            NFock= 15  Conv=0.46D-08     -V/T= 2.0105

 **********************************************************************

            Population analysis using the SCF Density.

 **********************************************************************

 Orbital symmetries:
       Occupied  (A) (A) (A) (A) (A) (A) (A) (A) (A) (A) (A) (A)
                 (A) (A) (A) (A) (A) (A) (A) (A) (A) (A) (A) (A)
                 (A) (A) (A) (A) (A) (A) (A) (A) (A) (A) (A) (A)
                 (A) (A) (A) (A) (A) (A) (A) (A) (A) (A) (A) (A)
                 (A) (A) (A) (A) (A) (A) (A) (A) (A)
       Virtual   (A) (A) (A) (A) (A) (A) (A) (A) (A) (A) (A) (A)
                 (A) (A) (A) (A) (A) (A) (A) (A) (A) (A) (A) (A)
                 (A) (A) (A) (A) (A) (A) (A) (A) (A) (A) (A) (A)
                 (A) (A) (A) (A) (A) (A) (A) (A) (A) (A) (A) (A)
                 (A) (A) (A) (A) (A) (A) (A) (A) (A) (A) (A) (A)
                 (A) (A) (A) (A) (A) (A) (A) (A) (A) (A) (A) (A)
                 (A) (A) (A) (A) (A) (A) (A) (A) (A) (A) (A) (A)
                 (A) (A) (A) (A) (A) (A) (A) (A) (A) (A) (A) (A)
                 (A) (A) (A) (A) (A) (A) (A) (A) (A) (A) (A) (A)
                 (A) (A) (A) (A) (A) (A) (A) (A) (A) (A) (A) (A)
                 (A) (A) (A) (A) (A) (A) (A) (A) (A) (A) (A) (A)
                 (A) (A) (A) (A) (A) (A) (A) (A) (A) (A) (A) (A)
                 (A) (A) (A) (A) (A) (A) (A) (A) (A) (A) (A) (A)
                 (A) (A) (A) (A) (A) (A) (A) (A) (A) (A) (A) (A)
                 (A) (A) (A) (A) (A) (A) (A) (A) (A) (A) (A) (A)
                 (A) (A) (A) (A) (A) (A) (A) (A) (A) (A) (A) (A)
                 (A) (A) (A) (A) (A) (A) (A) (A) (A) (A) (A) (A)
                 (A) (A) (A) (A) (A) (A) (A) (A) (A) (A) (A) (A)
                 (A) (A) (A) (A) (A) (A) (A) (A) (A) (A) (A) (A)
                 (A) (A) (A) (A) (A) (A) (A) (A) (A) (A) (A) (A)
                 (A) (A)
 The electronic state is 1-A.
 Alpha  occ. eigenvalues --  -19.28010 -14.46691 -10.35538 -10.34353 -10.34307
 Alpha  occ. eigenvalues --  -10.34170 -10.33072 -10.30226 -10.30156 -10.29996
 Alpha  occ. eigenvalues --  -10.29773 -10.29644 -10.29550 -10.28660 -10.28451
 Alpha  occ. eigenvalues --  -10.28119  -1.14332  -1.04328  -0.95770  -0.93849
 Alpha  occ. eigenvalues --   -0.85274  -0.85110  -0.83940  -0.83382  -0.78280
 Alpha  occ. eigenvalues --   -0.77175  -0.71312  -0.70202  -0.68104  -0.66587
 Alpha  occ. eigenvalues --   -0.63491  -0.61244  -0.58038  -0.56712  -0.56379
 Alpha  occ. eigenvalues --   -0.55684  -0.55464  -0.54086  -0.53109  -0.52328
 Alpha  occ. eigenvalues --   -0.51810  -0.51016  -0.49477  -0.48227  -0.46720
 Alpha  occ. eigenvalues --   -0.46595  -0.45201  -0.44789  -0.43308  -0.43064
 Alpha  occ. eigenvalues --   -0.41044  -0.40926  -0.37438  -0.33992  -0.33567
 Alpha  occ. eigenvalues --   -0.30262  -0.26170
 Alpha virt. eigenvalues --    0.05129   0.05828   0.07993   0.09220   0.13691
 Alpha virt. eigenvalues --    0.15191   0.15695   0.17054   0.18057   0.19640
 Alpha virt. eigenvalues --    0.20067   0.20659   0.20964   0.21071   0.22339
 Alpha virt. eigenvalues --    0.22666   0.22967   0.23586   0.23823   0.24425
 Alpha virt. eigenvalues --    0.25002   0.26506   0.26774   0.31503   0.32425
 Alpha virt. eigenvalues --    0.34587   0.37058   0.37218   0.37546   0.38052
 Alpha virt. eigenvalues --    0.39817   0.40842   0.41490   0.42377   0.43890
 Alpha virt. eigenvalues --    0.44889   0.47941   0.48982   0.49537   0.50760
 Alpha virt. eigenvalues --    0.50984   0.51965   0.53635   0.53848   0.54642
 Alpha virt. eigenvalues --    0.56077   0.56136   0.57415   0.57601   0.58198
 Alpha virt. eigenvalues --    0.58455   0.59523   0.60128   0.61458   0.62257
 Alpha virt. eigenvalues --    0.64468   0.64921   0.65159   0.65889   0.67016
 Alpha virt. eigenvalues --    0.67600   0.69501   0.71674   0.72273   0.72681
 Alpha virt. eigenvalues --    0.72808   0.73595   0.73971   0.74409   0.75022
 Alpha virt. eigenvalues --    0.75256   0.75675   0.75996   0.76810   0.77236
 Alpha virt. eigenvalues --    0.77992   0.78358   0.79908   0.80139   0.81214
 Alpha virt. eigenvalues --    0.82160   0.82187   0.83536   0.84633   0.85627
 Alpha virt. eigenvalues --    0.86296   0.87586   0.88883   0.89410   0.90567
 Alpha virt. eigenvalues --    0.92420   0.92805   0.93663   0.96260   0.99605
 Alpha virt. eigenvalues --    1.00615   1.02257   1.03715   1.07350   1.08855
 Alpha virt. eigenvalues --    1.11578   1.12291   1.13465   1.17025   1.18712
 Alpha virt. eigenvalues --    1.19956   1.24843   1.27502   1.28607   1.28967
 Alpha virt. eigenvalues --    1.30665   1.31859   1.33084   1.34094   1.35125
 Alpha virt. eigenvalues --    1.35505   1.36867   1.37345   1.38452   1.38623
 Alpha virt. eigenvalues --    1.39761   1.41736   1.43448   1.45710   1.47067
 Alpha virt. eigenvalues --    1.55441   1.57055   1.57838   1.60825   1.61714
 Alpha virt. eigenvalues --    1.63962   1.64524   1.67776   1.71361   1.74879
 Alpha virt. eigenvalues --    1.77251   1.77609   1.78380   1.79492   1.80021
 Alpha virt. eigenvalues --    1.80276   1.80707   1.81810   1.83357   1.84109
 Alpha virt. eigenvalues --    1.84882   1.85578   1.86149   1.86442   1.88271
 Alpha virt. eigenvalues --    1.88613   1.89099   1.89999   1.90762   1.91124
 Alpha virt. eigenvalues --    1.91590   1.92402   1.92972   1.94299   1.97492
 Alpha virt. eigenvalues --    1.98163   1.99131   2.00287   2.02055   2.02794
 Alpha virt. eigenvalues --    2.03942   2.04979   2.06370   2.07052   2.08404
 Alpha virt. eigenvalues --    2.10158   2.10394   2.13057   2.14798   2.16980
 Alpha virt. eigenvalues --    2.19655   2.22015   2.23366   2.24931   2.26114
 Alpha virt. eigenvalues --    2.27626   2.28116   2.29326   2.29624   2.30486
 Alpha virt. eigenvalues --    2.32048   2.33042   2.35219   2.37631   2.38181
 Alpha virt. eigenvalues --    2.40129   2.40769   2.42243   2.42287   2.42617
 Alpha virt. eigenvalues --    2.43580   2.45554   2.46386   2.49685   2.52354
 Alpha virt. eigenvalues --    2.54386   2.57848   2.62284   2.65157   2.69060
 Alpha virt. eigenvalues --    2.69724   2.70146   2.73036   2.74024   2.74966
 Alpha virt. eigenvalues --    2.76438   2.77755   2.78348   2.82508   2.84387
 Alpha virt. eigenvalues --    2.84970   2.86195   2.89541   2.90873   2.92643
 Alpha virt. eigenvalues --    2.96215   2.97588   2.98356   2.98999   3.00337
 Alpha virt. eigenvalues --    3.00547   3.04526   3.05048   3.09457   3.12706
 Alpha virt. eigenvalues --    3.14688   3.15017   3.18329   3.24178   3.25753
 Alpha virt. eigenvalues --    3.29497   3.36854   3.44066   3.54230   3.55506
 Alpha virt. eigenvalues --    3.78956   3.82412
          Condensed to atoms (all electrons):
               1          2          3          4          5          6
     1  C    4.390211   0.300906  -0.057606   0.000676   0.001307  -0.000006
     2  O    0.300906   7.910981   0.391416  -0.086623   0.005191  -0.000009
     3  C   -0.057606   0.391416   5.019881   0.135260   0.164827   0.008851
     4  C    0.000676  -0.086623   0.135260   5.581218   0.180215  -0.089513
     5  C    0.001307   0.005191   0.164827   0.180215   5.067773   0.343772
     6  N   -0.000006  -0.000009   0.008851  -0.089513   0.343772   6.812012
     7  C    0.000000   0.000000  -0.000159   0.007046  -0.051198   0.338524
     8  C   -0.000062  -0.000005  -0.000531  -0.007456  -0.045410   0.305727
     9  C   -0.000454   0.000021  -0.000345  -0.004776  -0.006812  -0.076705
    10  C   -0.000046   0.000000   0.000050  -0.002035   0.000237   0.009281
    11  C   -0.000006   0.000000  -0.000004   0.000050   0.000025  -0.000431
    12  C    0.000003  -0.000000   0.000004   0.000021  -0.000162   0.008584
    13  C   -0.000003   0.000000  -0.000068   0.000857   0.003983  -0.075985
    14  C    0.000118  -0.000275  -0.177561   0.085228   0.233037  -0.089981
    15  C   -0.000328   0.004123   0.144259  -0.170481   0.146181   0.008859
    16  C    0.006451  -0.066739   0.271529   0.059929  -0.160328  -0.000935
    17  H    0.395486  -0.020668   0.004796   0.000684  -0.000046  -0.000001
    18  H    0.403848  -0.030222  -0.009330   0.004371   0.000962   0.000003
    19  H    0.401772  -0.030458  -0.009024   0.005290   0.000734   0.000028
    20  H    0.011760  -0.008933  -0.089944   0.461981  -0.058872  -0.015811
    21  H    0.000000  -0.000000   0.000069  -0.000645  -0.011399  -0.031214
    22  H   -0.000000  -0.000000   0.000003  -0.000127   0.005958  -0.017879
    23  H   -0.000000   0.000000  -0.000068   0.000209  -0.005694  -0.029284
    24  H   -0.000057   0.000016  -0.000315   0.002081   0.003760  -0.011317
    25  H    0.000001  -0.000000   0.000002   0.000040  -0.000022  -0.000133
    26  H    0.000000   0.000000  -0.000000  -0.000000   0.000001   0.000008
    27  H    0.000000  -0.000000  -0.000000  -0.000002   0.000007  -0.000146
    28  H    0.000000  -0.000000   0.000003  -0.000018  -0.000346  -0.010262
    29  H    0.000000   0.000004  -0.002353   0.019291  -0.078420  -0.016594
    30  H    0.000007  -0.000062   0.015455  -0.002599   0.015803  -0.000106
    31  H   -0.000257   0.000957  -0.069003   0.021599  -0.002580   0.000010
               7          8          9         10         11         12
     1  C    0.000000  -0.000062  -0.000454  -0.000046  -0.000006   0.000003
     2  O    0.000000  -0.000005   0.000021   0.000000   0.000000  -0.000000
     3  C   -0.000159  -0.000531  -0.000345   0.000050  -0.000004   0.000004
     4  C    0.007046  -0.007456  -0.004776  -0.002035   0.000050   0.000021
     5  C   -0.051198  -0.045410  -0.006812   0.000237   0.000025  -0.000162
     6  N    0.338524   0.305727  -0.076705   0.009281  -0.000431   0.008584
     7  C    4.432516  -0.049793   0.004167  -0.000118   0.000009   0.000374
     8  C   -0.049793   5.128624   0.268158   0.120969  -0.166904   0.114976
     9  C    0.004167   0.268158   5.176254   0.258963   0.091103  -0.150115
    10  C   -0.000118   0.120969   0.258963   5.080882   0.269592   0.100417
    11  C    0.000009  -0.166904   0.091103   0.269592   5.108293   0.280339
    12  C    0.000374   0.114976  -0.150115   0.100417   0.280339   5.052657
    13  C   -0.007771   0.279480   0.059781  -0.149545   0.087305   0.274690
    14  C    0.003177   0.007391   0.000377  -0.000042   0.000001   0.000001
    15  C    0.000351  -0.000129  -0.000015   0.000003  -0.000000  -0.000000
    16  C    0.000105   0.000042  -0.000026  -0.000003   0.000000  -0.000000
    17  H    0.000000   0.000001   0.000009  -0.000003   0.000000  -0.000000
    18  H    0.000000   0.000062   0.000010   0.000038  -0.000001  -0.000003
    19  H   -0.000000  -0.000014   0.000857   0.000425  -0.000007  -0.000003
    20  H   -0.000122   0.007549   0.001176  -0.000641  -0.000008   0.000167
    21  H    0.400846   0.004148   0.000931  -0.000066  -0.000003   0.000035
    22  H    0.400091  -0.008108  -0.000030   0.000005  -0.000074   0.000479
    23  H    0.402147   0.002293  -0.000590   0.000030   0.000000  -0.000064
    24  H   -0.000148  -0.068710   0.461981  -0.071077   0.014851  -0.002541
    25  H    0.000005   0.015433  -0.067983   0.454070  -0.072561   0.014431
    26  H    0.000000  -0.001722   0.014826  -0.069762   0.453345  -0.069696
    27  H   -0.000013   0.015199  -0.002032   0.014096  -0.070714   0.450160
    28  H    0.001504  -0.071079   0.016530  -0.002637   0.014998  -0.067157
    29  H    0.010800  -0.000175  -0.000013  -0.000001   0.000000   0.000000
    30  H   -0.000031   0.000007  -0.000000  -0.000000   0.000000   0.000000
    31  H   -0.000000   0.000001   0.000000   0.000000  -0.000000   0.000000
              13         14         15         16         17         18
     1  C   -0.000003   0.000118  -0.000328   0.006451   0.395486   0.403848
     2  O    0.000000  -0.000275   0.004123  -0.066739  -0.020668  -0.030222
     3  C   -0.000068  -0.177561   0.144259   0.271529   0.004796  -0.009330
     4  C    0.000857   0.085228  -0.170481   0.059929   0.000684   0.004371
     5  C    0.003983   0.233037   0.146181  -0.160328  -0.000046   0.000962
     6  N   -0.075985  -0.089981   0.008859  -0.000935  -0.000001   0.000003
     7  C   -0.007771   0.003177   0.000351   0.000105   0.000000   0.000000
     8  C    0.279480   0.007391  -0.000129   0.000042   0.000001   0.000062
     9  C    0.059781   0.000377  -0.000015  -0.000026   0.000009   0.000010
    10  C   -0.149545  -0.000042   0.000003  -0.000003  -0.000003   0.000038
    11  C    0.087305   0.000001  -0.000000   0.000000   0.000000  -0.000001
    12  C    0.274690   0.000001  -0.000000  -0.000000  -0.000000  -0.000003
    13  C    5.156988  -0.000415   0.000002  -0.000001  -0.000000   0.000020
    14  C   -0.000415   5.285540   0.214412   0.108369   0.000006  -0.000097
    15  C    0.000002   0.214412   5.088260   0.249936   0.000005   0.000037
    16  C   -0.000001   0.108369   0.249936   5.188474  -0.000109  -0.000247
    17  H   -0.000000   0.000006   0.000005  -0.000109   0.617101  -0.023602
    18  H    0.000020  -0.000097   0.000037  -0.000247  -0.023602   0.656439
    19  H   -0.000014  -0.000107   0.000030  -0.000115  -0.023692  -0.042493
    20  H   -0.001294   0.017444  -0.002380   0.013755  -0.000548   0.002093
    21  H    0.000026   0.003060   0.000909  -0.000071  -0.000000   0.000000
    22  H    0.003473   0.000560  -0.000048   0.000004  -0.000000  -0.000000
    23  H    0.001249   0.005203   0.000763  -0.000080   0.000000  -0.000000
    24  H    0.016200  -0.000679   0.000034  -0.000020  -0.000003   0.000002
    25  H   -0.002235  -0.000000   0.000000  -0.000000  -0.000000  -0.000002
    26  H    0.014662   0.000000  -0.000000   0.000000   0.000000  -0.000000
    27  H   -0.065160  -0.000000   0.000000   0.000000   0.000000   0.000000
    28  H    0.453119  -0.000025   0.000000   0.000000  -0.000000   0.000000
    29  H    0.000014   0.460647  -0.075383   0.015906  -0.000000  -0.000000
    30  H   -0.000000  -0.071931   0.459591  -0.073541  -0.000000  -0.000000
    31  H    0.000000   0.015709  -0.077076   0.446594  -0.000092   0.000081
              19         20         21         22         23         24
     1  C    0.401772   0.011760   0.000000  -0.000000  -0.000000  -0.000057
     2  O   -0.030458  -0.008933  -0.000000  -0.000000   0.000000   0.000016
     3  C   -0.009024  -0.089944   0.000069   0.000003  -0.000068  -0.000315
     4  C    0.005290   0.461981  -0.000645  -0.000127   0.000209   0.002081
     5  C    0.000734  -0.058872  -0.011399   0.005958  -0.005694   0.003760
     6  N    0.000028  -0.015811  -0.031214  -0.017879  -0.029284  -0.011317
     7  C   -0.000000  -0.000122   0.400846   0.400091   0.402147  -0.000148
     8  C   -0.000014   0.007549   0.004148  -0.008108   0.002293  -0.068710
     9  C    0.000857   0.001176   0.000931  -0.000030  -0.000590   0.461981
    10  C    0.000425  -0.000641  -0.000066   0.000005   0.000030  -0.071077
    11  C   -0.000007  -0.000008  -0.000003  -0.000074   0.000000   0.014851
    12  C   -0.000003   0.000167   0.000035   0.000479  -0.000064  -0.002541
    13  C   -0.000014  -0.001294   0.000026   0.003473   0.001249   0.016200
    14  C   -0.000107   0.017444   0.003060   0.000560   0.005203  -0.000679
    15  C    0.000030  -0.002380   0.000909  -0.000048   0.000763   0.000034
    16  C   -0.000115   0.013755  -0.000071   0.000004  -0.000080  -0.000020
    17  H   -0.023692  -0.000548  -0.000000  -0.000000   0.000000  -0.000003
    18  H   -0.042493   0.002093   0.000000  -0.000000  -0.000000   0.000002
    19  H    0.663145   0.000326  -0.000000   0.000000   0.000000   0.000204
    20  H    0.000326   0.664919  -0.000035  -0.000011   0.000036  -0.003174
    21  H   -0.000000  -0.000035   0.652226  -0.021041  -0.038933   0.000012
    22  H    0.000000  -0.000011  -0.021041   0.605135  -0.019487  -0.000033
    23  H    0.000000   0.000036  -0.038933  -0.019487   0.642448   0.000002
    24  H    0.000204  -0.003174   0.000012  -0.000033   0.000002   0.654828
    25  H    0.000043   0.000036   0.000001   0.000001  -0.000000  -0.012558
    26  H   -0.000000  -0.000000  -0.000000  -0.000001   0.000000  -0.000221
    27  H    0.000000  -0.000005  -0.000002   0.000047   0.000002   0.000021
    28  H   -0.000001  -0.000050   0.000286   0.000722  -0.000699  -0.000193
    29  H   -0.000000  -0.000194  -0.001832   0.000037  -0.001233  -0.000009
    30  H   -0.000000   0.000005   0.000024  -0.000001   0.000001  -0.000002
    31  H    0.000087  -0.000199   0.000000  -0.000000  -0.000000  -0.000000
              25         26         27         28         29         30
     1  C    0.000001   0.000000   0.000000   0.000000   0.000000   0.000007
     2  O   -0.000000   0.000000  -0.000000  -0.000000   0.000004  -0.000062
     3  C    0.000002  -0.000000  -0.000000   0.000003  -0.002353   0.015455
     4  C    0.000040  -0.000000  -0.000002  -0.000018   0.019291  -0.002599
     5  C   -0.000022   0.000001   0.000007  -0.000346  -0.078420   0.015803
     6  N   -0.000133   0.000008  -0.000146  -0.010262  -0.016594  -0.000106
     7  C    0.000005   0.000000  -0.000013   0.001504   0.010800  -0.000031
     8  C    0.015433  -0.001722   0.015199  -0.071079  -0.000175   0.000007
     9  C   -0.067983   0.014826  -0.002032   0.016530  -0.000013  -0.000000
    10  C    0.454070  -0.069762   0.014096  -0.002637  -0.000001  -0.000000
    11  C   -0.072561   0.453345  -0.070714   0.014998   0.000000   0.000000
    12  C    0.014431  -0.069696   0.450160  -0.067157   0.000000   0.000000
    13  C   -0.002235   0.014662  -0.065160   0.453119   0.000014  -0.000000
    14  C   -0.000000   0.000000  -0.000000  -0.000025   0.460647  -0.071931
    15  C    0.000000  -0.000000   0.000000   0.000000  -0.075383   0.459591
    16  C   -0.000000   0.000000   0.000000   0.000000   0.015906  -0.073541
    17  H   -0.000000   0.000000   0.000000  -0.000000  -0.000000  -0.000000
    18  H   -0.000002  -0.000000   0.000000   0.000000  -0.000000  -0.000000
    19  H    0.000043  -0.000000   0.000000  -0.000001  -0.000000  -0.000000
    20  H    0.000036  -0.000000  -0.000005  -0.000050  -0.000194   0.000005
    21  H    0.000001  -0.000000  -0.000002   0.000286  -0.001832   0.000024
    22  H    0.000001  -0.000001   0.000047   0.000722   0.000037  -0.000001
    23  H   -0.000000   0.000000   0.000002  -0.000699  -0.001233   0.000001
    24  H   -0.012558  -0.000221   0.000021  -0.000193  -0.000009  -0.000002
    25  H    0.671210  -0.012316  -0.000265   0.000026  -0.000000   0.000000
    26  H   -0.012316   0.673097  -0.012301  -0.000227   0.000000   0.000000
    27  H   -0.000265  -0.012301   0.671903  -0.013048  -0.000000  -0.000000
    28  H    0.000026  -0.000227  -0.013048   0.677720  -0.000003  -0.000000
    29  H   -0.000000   0.000000  -0.000000  -0.000003   0.703171  -0.013535
    30  H    0.000000   0.000000  -0.000000  -0.000000  -0.013535   0.672897
    31  H    0.000000  -0.000000   0.000000   0.000000  -0.000224  -0.013199
              31
     1  C   -0.000257
     2  O    0.000957
     3  C   -0.069003
     4  C    0.021599
     5  C   -0.002580
     6  N    0.000010
     7  C   -0.000000
     8  C    0.000001
     9  C    0.000000
    10  C    0.000000
    11  C   -0.000000
    12  C    0.000000
    13  C    0.000000
    14  C    0.015709
    15  C   -0.077076
    16  C    0.446594
    17  H   -0.000092
    18  H    0.000081
    19  H    0.000087
    20  H   -0.000199
    21  H    0.000000
    22  H   -0.000000
    23  H   -0.000000
    24  H   -0.000000
    25  H    0.000000
    26  H   -0.000000
    27  H    0.000000
    28  H    0.000000
    29  H   -0.000224
    30  H   -0.013199
    31  H    0.675811
 Mulliken charges:
               1
     1  C    0.146276
     2  O   -0.369622
     3  C    0.259902
     4  C   -0.201771
     5  C    0.247517
     6  N   -0.369344
     7  C    0.107690
     8  C    0.150040
     9  C   -0.045245
    10  C   -0.013081
    11  C   -0.009197
    12  C   -0.007598
    13  C   -0.049357
    14  C   -0.099166
    15  C    0.008086
    16  C   -0.058879
    17  H    0.050676
    18  H    0.038029
    19  H    0.032987
    20  H    0.000976
    21  H    0.042669
    22  H    0.050324
    23  H    0.041751
    24  H    0.017065
    25  H    0.012776
    26  H    0.010309
    27  H    0.012252
    28  H    0.000839
    29  H   -0.019902
    30  H    0.011217
    31  H    0.001781
 Sum of Mulliken charges =  -0.00000
 Mulliken charges with hydrogens summed into heavy atoms:
               1
     1  C    0.267969
     2  O   -0.369622
     3  C    0.259902
     4  C   -0.200795
     5  C    0.247517
     6  N   -0.369344
     7  C    0.242434
     8  C    0.150040
     9  C   -0.028180
    10  C   -0.000305
    11  C    0.001112
    12  C    0.004654
    13  C   -0.048519
    14  C   -0.119068
    15  C    0.019303
    16  C   -0.057098
 Electronic spatial extent (au):  <R**2>=           3926.9037
 Charge=             -0.0000 electrons
 Dipole moment (field-independent basis, Debye):
    X=              2.0225    Y=             -0.2959    Z=             -0.3321  Tot=              2.0708
 Quadrupole moment (field-independent basis, Debye-Ang):
   XX=            -95.5458   YY=            -83.0158   ZZ=            -95.1348
   XY=              2.6945   XZ=             -2.9784   YZ=              1.2199
 Traceless Quadrupole moment (field-independent basis, Debye-Ang):
   XX=             -4.3137   YY=              8.2164   ZZ=             -3.9027
   XY=              2.6945   XZ=             -2.9784   YZ=              1.2199
 Octapole moment (field-independent basis, Debye-Ang**2):
  XXX=             11.9193  YYY=              7.9613  ZZZ=             -3.4358  XYY=             -1.2174
  XXY=             -5.5154  XXZ=             -7.9544  XZZ=              5.1918  YZZ=              6.7573
  YYZ=             -1.4723  XYZ=             11.4674
 Hexadecapole moment (field-independent basis, Debye-Ang**3):
 XXXX=          -3355.5888 YYYY=          -1429.8508 ZZZZ=           -311.0096 XXXY=             97.0727
 XXXZ=            -80.7774 YYYX=            -51.8920 YYYZ=            -11.9808 ZZZX=              1.1144
 ZZZY=              8.7710 XXYY=           -809.5079 XXZZ=           -638.5147 YYZZ=           -305.8522
 XXYZ=              8.3750 YYXZ=              9.1792 ZZXY=            -14.1727
 N-N= 1.042216554255D+03 E-N=-3.642227486857D+03  KE= 6.648116978208D+02
   1 Symmetry operations used in ECPInt.
 ECPInt:  NShTT=   10011 NPrTT=   36031 LenC2=    9483 LenP2D=   24751.
 LDataN:  DoStor=T MaxTD1= 5 Len=  102
 Calling FoFJK, ICntrl=      2127 FMM=F ISym2X=0 I1Cent= 0 IOpClX= 0 NMat=1 NMatS=1 NMatT=0.
 ***** Axes restored to original set *****
 -------------------------------------------------------------------
 Center     Atomic                   Forces (Hartrees/Bohr)
 Number     Number              X              Y              Z
 -------------------------------------------------------------------
      1        6          -0.010799711   -0.005375149    0.001876592
      2        8           0.013144858   -0.033134554    0.004057887
      3        6          -0.008258435    0.017105052   -0.001108306
      4        6          -0.004930753    0.016220143   -0.003848947
      5        6           0.023790675   -0.010978120    0.001165411
      6        7           0.000383664    0.007071252   -0.001016380
      7        6          -0.006994865    0.018327310    0.002976369
      8        6          -0.018016800   -0.011600322   -0.001714009
      9        6          -0.003939220   -0.006764881    0.000459836
     10        6           0.000863831    0.002364567   -0.000418907
     11        6           0.005518228    0.004274172   -0.000398281
     12        6           0.003838253    0.001561167    0.001723160
     13        6          -0.009247221   -0.004756617    0.000272123
     14        6           0.013574039   -0.007570498   -0.000731834
     15        6           0.000629269    0.006620940   -0.002213429
     16        6          -0.008164454    0.012878182   -0.001079981
     17        1          -0.004760777    0.002868753    0.000078526
     18        1           0.007165073    0.001008281   -0.006243541
     19        1           0.008390639    0.002449599    0.003982351
     20        1           0.008459654    0.007034851   -0.002869583
     21        1          -0.001642727   -0.008201563    0.006892162
     22        1           0.005184214    0.001537545   -0.000090208
     23        1          -0.004247604   -0.005421031   -0.006589740
     24        1          -0.008306099    0.000510740    0.007629375
     25        1          -0.000469612    0.006630310    0.008098763
     26        1           0.007783284    0.006885263    0.000732168
     27        1           0.007549389   -0.000578702   -0.007132672
     28        1           0.000675965   -0.007486729   -0.009121114
     29        1           0.001252624   -0.010732607    0.001805058
     30        1          -0.007185231   -0.006589582    0.002003509
     31        1          -0.011240147    0.003842226    0.000823644
 -------------------------------------------------------------------
 Cartesian Forces:  Max     0.033134554 RMS     0.008033061

 GradGradGradGradGradGradGradGradGradGradGradGradGradGradGradGradGradGrad
 Berny optimization.
 FormGI is forming the generalized inverse of G from B-inverse, IUseBI=4.
 Internal  Forces:  Max     0.034823663 RMS     0.006484931
 Search for a local minimum.
 Step number   1 out of a maximum of  161
 All quantities printed in internal units (Hartrees-Bohrs-Radians)
 Mixed Optimization -- RFO/linear search
 Second derivative matrix not updated -- first step.
 ITU=  0
     Eigenvalues ---    0.00869   0.01123   0.01248   0.01352   0.01596
     Eigenvalues ---    0.01678   0.01882   0.01928   0.02081   0.02179
     Eigenvalues ---    0.02185   0.02197   0.02209   0.02261   0.02267
     Eigenvalues ---    0.02283   0.02288   0.02335   0.02336   0.02344
     Eigenvalues ---    0.02354   0.02368   0.02374   0.02393   0.07396
     Eigenvalues ---    0.07447   0.10340   0.10568   0.15994   0.15998
     Eigenvalues ---    0.15999   0.15999   0.16000   0.16000   0.16000
     Eigenvalues ---    0.16000   0.16000   0.16000   0.16000   0.16000
     Eigenvalues ---    0.16000   0.16000   0.16000   0.22000   0.22000
     Eigenvalues ---    0.22000   0.23452   0.23468   0.23481   0.24995
     Eigenvalues ---    0.24999   0.24999   0.25000   0.25000   0.25000
     Eigenvalues ---    0.34731   0.34740   0.34762   0.34997   0.35022
     Eigenvalues ---    0.35063   0.36260   0.36263   0.36266   0.36267
     Eigenvalues ---    0.36468   0.36501   0.36542   0.36583   0.36692
     Eigenvalues ---    0.36973   0.40489   0.41619   0.42665   0.43058
     Eigenvalues ---    0.43436   0.43773   0.44446   0.45452   0.46300
     Eigenvalues ---    0.47009   0.47337   0.47917   0.48659   0.49078
     Eigenvalues ---    0.49314   0.49745
 RFO step:  Lambda=-1.70090245D-02 EMin= 8.69182737D-03
 Linear search not attempted -- first point.
 Iteration  1 RMS(Cart)=  0.08167227 RMS(Int)=  0.00238710
 Iteration  2 RMS(Cart)=  0.00418279 RMS(Int)=  0.00015374
 Iteration  3 RMS(Cart)=  0.00001454 RMS(Int)=  0.00015356
 Iteration  4 RMS(Cart)=  0.00000001 RMS(Int)=  0.00015356
 Variable       Old X    -DE/DX   Delta X   Delta X   Delta X     New X
                                 (Linear)    (Quad)   (Total)
    R1        2.65925   0.00068   0.00000   0.00148   0.00148   2.66072
    R2        2.06063   0.00449   0.00000   0.01231   0.01231   2.07294
    R3        2.06098   0.00838   0.00000   0.02300   0.02300   2.08399
    R4        2.06114   0.00849   0.00000   0.02330   0.02330   2.08444
    R5        2.64755  -0.03482   0.00000  -0.07385  -0.07385   2.57369
    R6        2.63055   0.00293   0.00000   0.00535   0.00540   2.63595
    R7        2.63970   0.00187   0.00000   0.00316   0.00321   2.64291
    R8        2.62661   0.01626   0.00000   0.03323   0.03323   2.65984
    R9        2.02587   0.01135   0.00000   0.02936   0.02936   2.05522
   R10        2.69411  -0.02155   0.00000  -0.04975  -0.04975   2.64436
   R11        2.63619   0.00694   0.00000   0.01516   0.01512   2.65130
   R12        2.76313  -0.00818   0.00000  -0.02131  -0.02131   2.74182
   R13        2.70895  -0.01620   0.00000  -0.03840  -0.03840   2.67055
   R14        2.05640   0.01037   0.00000   0.02823   0.02823   2.08463
   R15        2.05573   0.00490   0.00000   0.01334   0.01334   2.06907
   R16        2.05679   0.00924   0.00000   0.02518   0.02518   2.08197
   R17        2.63583   0.00865   0.00000   0.01740   0.01740   2.65323
   R18        2.63575   0.00726   0.00000   0.01446   0.01446   2.65021
   R19        2.60078   0.01600   0.00000   0.03112   0.03112   2.63190
   R20        2.03356   0.01128   0.00000   0.02954   0.02954   2.06310
   R21        2.61017   0.01402   0.00000   0.02829   0.02829   2.63847
   R22        2.03673   0.01045   0.00000   0.02752   0.02752   2.06425
   R23        2.61049   0.01255   0.00000   0.02536   0.02536   2.63585
   R24        2.03666   0.01042   0.00000   0.02743   0.02743   2.06410
   R25        2.60170   0.01689   0.00000   0.03281   0.03281   2.63452
   R26        2.03677   0.01039   0.00000   0.02736   0.02736   2.06413
   R27        2.03306   0.01179   0.00000   0.03087   0.03087   2.06393
   R28        2.60312   0.01767   0.00000   0.03510   0.03505   2.63817
   R29        2.03179   0.01087   0.00000   0.02839   0.02839   2.06018
   R30        2.60129   0.01090   0.00000   0.02112   0.02112   2.62241
   R31        2.03668   0.00995   0.00000   0.02621   0.02621   2.06289
   R32        2.03242   0.01191   0.00000   0.03113   0.03113   2.06355
    A1        1.89454  -0.00742   0.00000  -0.04444  -0.04418   1.85036
    A2        1.91875   0.00663   0.00000   0.03873   0.03839   1.95714
    A3        1.91931   0.00644   0.00000   0.03769   0.03735   1.95666
    A4        1.90027  -0.00073   0.00000  -0.00669  -0.00643   1.89384
    A5        1.90082  -0.00062   0.00000  -0.00608  -0.00583   1.89499
    A6        1.92959  -0.00451   0.00000  -0.02063  -0.02141   1.90817
    A7        2.00296   0.01661   0.00000   0.06220   0.06220   2.06516
    A8        2.16977  -0.00177   0.00000  -0.00581  -0.00586   2.16391
    A9        2.05541  -0.01020   0.00000  -0.03737  -0.03743   2.01798
   A10        2.05800   0.01197   0.00000   0.04318   0.04326   2.10126
   A11        2.12837  -0.00617   0.00000  -0.02614  -0.02608   2.10229
   A12        2.08911   0.00356   0.00000   0.01579   0.01576   2.10487
   A13        2.06557   0.00260   0.00000   0.01036   0.01033   2.07590
   A14        2.09404   0.00400   0.00000   0.01360   0.01354   2.10758
   A15        2.06562   0.00221   0.00000   0.01067   0.01054   2.07616
   A16        2.12337  -0.00621   0.00000  -0.02464  -0.02468   2.09869
   A17        2.08093  -0.00461   0.00000  -0.01729  -0.01732   2.06361
   A18        2.13068   0.00159   0.00000   0.00592   0.00589   2.13657
   A19        2.07153   0.00301   0.00000   0.01124   0.01121   2.08274
   A20        1.92155   0.00464   0.00000   0.02712   0.02699   1.94854
   A21        1.93423  -0.00473   0.00000  -0.02912  -0.02897   1.90526
   A22        1.92249   0.00322   0.00000   0.01969   0.01953   1.94202
   A23        1.88266  -0.00068   0.00000  -0.00671  -0.00653   1.87614
   A24        1.90651  -0.00294   0.00000  -0.01192  -0.01232   1.89419
   A25        1.89564   0.00033   0.00000   0.00009   0.00021   1.89585
   A26        2.10362   0.00075   0.00000   0.00385   0.00378   2.10739
   A27        2.11375  -0.00284   0.00000  -0.00961  -0.00968   2.10407
   A28        2.06582   0.00209   0.00000   0.00580   0.00572   2.07154
   A29        2.10819  -0.00087   0.00000  -0.00461  -0.00461   2.10358
   A30        2.07323   0.00098   0.00000   0.00541   0.00541   2.07865
   A31        2.10168  -0.00011   0.00000  -0.00077  -0.00077   2.10092
   A32        2.09589   0.00134   0.00000   0.00706   0.00704   2.10293
   A33        2.09353  -0.00130   0.00000  -0.00708  -0.00711   2.08642
   A34        2.09377  -0.00004   0.00000  -0.00001  -0.00004   2.09373
   A35        2.09285  -0.00327   0.00000  -0.01131  -0.01131   2.08154
   A36        2.09513   0.00174   0.00000   0.00624   0.00623   2.10136
   A37        2.09520   0.00153   0.00000   0.00508   0.00507   2.10027
   A38        2.09752   0.00105   0.00000   0.00557   0.00556   2.10308
   A39        2.09269   0.00010   0.00000   0.00074   0.00072   2.09341
   A40        2.09297  -0.00115   0.00000  -0.00635  -0.00636   2.08661
   A41        2.10610  -0.00033   0.00000  -0.00253  -0.00254   2.10356
   A42        2.07869   0.00101   0.00000   0.00615   0.00614   2.08483
   A43        2.09802  -0.00067   0.00000  -0.00338  -0.00340   2.09463
   A44        2.10419  -0.00431   0.00000  -0.01410  -0.01420   2.08999
   A45        2.08750   0.00352   0.00000   0.01479   0.01485   2.10235
   A46        2.09145   0.00078   0.00000  -0.00070  -0.00064   2.09081
   A47        2.10017   0.00397   0.00000   0.01915   0.01908   2.11925
   A48        2.09215  -0.00188   0.00000  -0.00901  -0.00898   2.08317
   A49        2.09087  -0.00209   0.00000  -0.01015  -0.01012   2.08075
   A50        2.10997  -0.00767   0.00000  -0.03289  -0.03286   2.07711
   A51        2.06439   0.00360   0.00000   0.01508   0.01506   2.07945
   A52        2.10883   0.00408   0.00000   0.01780   0.01778   2.12661
    D1       -3.12765   0.00006   0.00000   0.00189   0.00188  -3.12577
    D2        1.07867   0.00152   0.00000   0.01406   0.01487   1.09354
    D3       -1.04979  -0.00139   0.00000  -0.01017  -0.01098  -1.06077
    D4       -0.01334  -0.00011   0.00000  -0.00262  -0.00253  -0.01587
    D5        3.12862   0.00021   0.00000   0.00585   0.00576   3.13438
    D6        3.13661  -0.00006   0.00000  -0.00168  -0.00152   3.13509
    D7       -0.02256  -0.00006   0.00000  -0.00110  -0.00106  -0.02362
    D8       -0.00535  -0.00038   0.00000  -0.01019  -0.01019  -0.01555
    D9        3.11866  -0.00038   0.00000  -0.00961  -0.00974   3.10892
   D10        3.13977  -0.00040   0.00000  -0.01075  -0.01065   3.12912
   D11       -0.00001  -0.00022   0.00000  -0.00588  -0.00585  -0.00586
   D12       -0.00148  -0.00010   0.00000  -0.00281  -0.00268  -0.00415
   D13       -3.14126   0.00008   0.00000   0.00205   0.00212  -3.13913
   D14        3.13351  -0.00025   0.00000  -0.00598  -0.00633   3.12718
   D15        0.01076   0.00062   0.00000   0.01643   0.01644   0.02720
   D16        0.00926  -0.00026   0.00000  -0.00661  -0.00684   0.00243
   D17       -3.11348   0.00061   0.00000   0.01580   0.01593  -3.09755
   D18       -2.80767   0.00082   0.00000   0.02432   0.02432  -2.78335
   D19        0.34436   0.00122   0.00000   0.03882   0.03873   0.38309
   D20        0.31444   0.00001   0.00000   0.00156   0.00165   0.31609
   D21       -2.81672   0.00041   0.00000   0.01606   0.01607  -2.80065
   D22       -0.00948  -0.00036   0.00000  -0.00975  -0.00989  -0.01937
   D23        3.14109  -0.00035   0.00000  -0.00978  -0.00985   3.13124
   D24       -3.13190   0.00042   0.00000   0.01261   0.01233  -3.11956
   D25        0.01868   0.00043   0.00000   0.01258   0.01237   0.03105
   D26       -1.17832  -0.00059   0.00000  -0.00246  -0.00271  -1.18103
   D27        3.02345   0.00027   0.00000   0.00692   0.00692   3.03038
   D28        0.92526   0.00080   0.00000   0.01275   0.01293   0.93819
   D29        1.95320  -0.00098   0.00000  -0.01649  -0.01669   1.93650
   D30       -0.12822  -0.00012   0.00000  -0.00711  -0.00706  -0.13528
   D31       -2.22641   0.00041   0.00000  -0.00128  -0.00105  -2.22746
   D32        0.78969   0.00157   0.00000   0.05086   0.05076   0.84045
   D33       -2.35012   0.00076   0.00000   0.02828   0.02824  -2.32188
   D34       -2.34152   0.00201   0.00000   0.06545   0.06549  -2.27603
   D35        0.80185   0.00120   0.00000   0.04287   0.04298   0.84482
   D36       -3.13634  -0.00039   0.00000  -0.01146  -0.01161   3.13523
   D37        0.01863  -0.00053   0.00000  -0.01486  -0.01498   0.00365
   D38        0.00352   0.00039   0.00000   0.01049   0.01048   0.01400
   D39       -3.12470   0.00026   0.00000   0.00710   0.00711  -3.11758
   D40        3.13622   0.00094   0.00000   0.02480   0.02470  -3.12227
   D41        0.02382   0.00057   0.00000   0.01564   0.01554   0.03936
   D42       -0.00364   0.00014   0.00000   0.00270   0.00264  -0.00099
   D43       -3.11603  -0.00022   0.00000  -0.00646  -0.00652  -3.12255
   D44       -0.00156  -0.00053   0.00000  -0.01346  -0.01347  -0.01503
   D45       -3.14086  -0.00001   0.00000  -0.00054  -0.00055  -3.14141
   D46        3.12644  -0.00039   0.00000  -0.00997  -0.01001   3.11642
   D47       -0.01286   0.00013   0.00000   0.00296   0.00290  -0.00996
   D48       -0.00036   0.00014   0.00000   0.00314   0.00316   0.00280
   D49        3.14116   0.00027   0.00000   0.00686   0.00687  -3.13516
   D50        3.13893  -0.00038   0.00000  -0.00979  -0.00982   3.12911
   D51       -0.00273  -0.00024   0.00000  -0.00608  -0.00611  -0.00884
   D52        0.00024   0.00040   0.00000   0.00999   0.00999   0.01024
   D53        3.13789  -0.00000   0.00000   0.00029   0.00024   3.13813
   D54       -3.14128   0.00026   0.00000   0.00628   0.00629  -3.13499
   D55       -0.00364  -0.00014   0.00000  -0.00342  -0.00346  -0.00710
   D56        0.00180  -0.00054   0.00000  -0.01292  -0.01295  -0.01115
   D57        3.11387  -0.00014   0.00000  -0.00350  -0.00358   3.11029
   D58       -3.13584  -0.00015   0.00000  -0.00323  -0.00325  -3.13909
   D59       -0.02377   0.00025   0.00000   0.00619   0.00612  -0.01765
   D60        0.00299  -0.00015   0.00000  -0.00298  -0.00312  -0.00013
   D61       -3.13771   0.00008   0.00000   0.00234   0.00232  -3.13539
   D62        3.13558  -0.00014   0.00000  -0.00286  -0.00307   3.13251
   D63       -0.00512   0.00009   0.00000   0.00245   0.00237  -0.00276
   D64        0.00262   0.00038   0.00000   0.00936   0.00941   0.01203
   D65       -3.14083   0.00019   0.00000   0.00436   0.00447  -3.13636
   D66       -3.13986   0.00015   0.00000   0.00405   0.00398  -3.13588
   D67       -0.00013  -0.00004   0.00000  -0.00094  -0.00096  -0.00109
         Item               Value     Threshold  Converged?
 Maximum Force            0.034824     0.000450     NO 
 RMS     Force            0.006485     0.000300     NO 
 Maximum Displacement     0.481290     0.001800     NO 
 RMS     Displacement     0.084340     0.001200     NO 
 Predicted change in Energy=-9.054103D-03
 GradGradGradGradGradGradGradGradGradGradGradGradGradGradGradGradGradGrad

                          Input orientation:                          
 ---------------------------------------------------------------------
 Center     Atomic      Atomic             Coordinates (Angstroms)
 Number     Number       Type             X           Y           Z
 ---------------------------------------------------------------------
      1          6           0       -1.934339    2.986733   -0.601563
      2          8           0       -2.883695    1.989151   -0.308305
      3          6           0       -2.443225    0.715232   -0.113377
      4          6           0       -1.105574    0.330320   -0.204134
      5          6           0       -0.731598   -1.008014    0.019776
      6          7           0        0.606164   -1.404549   -0.086461
      7          6           0        0.890349   -2.811586   -0.297713
      8          6           0        1.678612   -0.492135    0.033821
      9          6           0        1.726107    0.423570    1.097083
     10          6           0        2.789044    1.315699    1.215422
     11          6           0        3.832862    1.300933    0.288252
     12          6           0        3.798862    0.383888   -0.762193
     13          6           0        2.729781   -0.501070   -0.894500
     14          6           0       -1.728670   -1.953642    0.302748
     15          6           0       -3.063174   -1.551068    0.380305
     16          6           0       -3.432380   -0.227974    0.183154
     17          1           0       -2.498938    3.921918   -0.701373
     18          1           0       -1.407523    2.792834   -1.550790
     19          1           0       -1.195167    3.107275    0.208240
     20          1           0       -0.337406    1.054936   -0.464274
     21          1           0        0.623085   -3.417570    0.584482
     22          1           0        1.963753   -2.939273   -0.471812
     23          1           0        0.343355   -3.203185   -1.170217
     24          1           0        0.922694    0.420956    1.836290
     25          1           0        2.809847    2.021181    2.049145
     26          1           0        4.668742    1.997233    0.385881
     27          1           0        4.607996    0.364818   -1.495700
     28          1           0        2.696769   -1.195947   -1.736476
     29          1           0       -1.467464   -2.998683    0.470677
     30          1           0       -3.833116   -2.291093    0.606620
     31          1           0       -4.473455    0.095332    0.246952
 ---------------------------------------------------------------------
                    Distance matrix (angstroms):
                    1          2          3          4          5
     1  C    0.000000
     2  O    1.407994   0.000000
     3  C    2.378446   1.361940   0.000000
     4  C    2.810931   2.433986   1.394886   0.000000
     5  C    4.217897   3.704344   2.432484   1.407527   0.000000
     6  N    5.099299   4.872939   3.713889   2.440013   1.399333
     7  C    6.456910   6.106603   4.856454   3.723444   2.446299
     8  C    5.055656   5.204660   4.297552   2.912859   2.464841
     9  C    4.780594   5.067193   4.351278   3.117736   3.041437
    10  C    5.329553   5.912296   5.431658   4.260769   4.384533
    11  C    6.074069   6.778029   6.316140   5.056944   5.122267
    12  C    6.298428   6.887630   6.284457   4.936374   4.803533
    13  C    5.831347   6.168950   5.371177   3.984691   3.615804
    14  C    5.026667   4.153683   2.794036   2.421086   1.403010
    15  C    4.778072   3.611031   2.400870   2.777299   2.420978
    16  C    3.632389   2.336286   1.398569   2.423987   2.815916
    17  H    1.096952   2.009509   3.260625   3.884364   5.286566
    18  H    1.102798   2.090158   2.730433   2.822876   4.167733
    19  H    1.103036   2.090011   2.717159   2.808836   4.145603
    20  H    2.510156   2.716740   2.161713   1.087577   2.155333
    21  H    6.997301   6.505937   5.193200   4.202006   2.821350
    22  H    7.094330   6.914757   5.736318   4.492511   3.352065
    23  H    6.620147   6.173904   4.923000   3.939336   2.718525
    24  H    4.548514   4.641888   3.900925   2.878440   2.842246
    25  H    5.519588   6.162388   5.828960   4.823567   5.082932
    26  H    6.749432   7.584277   7.243815   6.038993   6.191059
    27  H    7.104652   7.757178   7.193979   5.857834   5.717745
    28  H    6.342712   6.582256   5.718968   4.374399   3.856609
    29  H    6.098596   5.243187   3.884121   3.415932   2.169693
    30  H    5.737639   4.478725   3.389422   3.868929   3.407358
    31  H    3.940468   2.534205   2.153124   3.406071   3.907746
                    6          7          8          9         10
     6  N    0.000000
     7  C    1.450910   0.000000
     8  C    1.413192   2.472069   0.000000
     9  C    2.448891   3.620798   1.404030   0.000000
    10  C    3.722850   4.788434   2.428477   1.392742   0.000000
    11  C    4.227484   5.090633   2.814360   2.421238   1.396216
    12  C    3.721349   4.345830   2.428273   2.784743   2.408104
    13  C    2.445189   3.012997   1.402432   2.414275   2.784947
    14  C    2.429905   2.820617   3.717243   4.268206   5.650778
    15  C    3.701808   4.204635   4.870927   5.229740   6.569948
    16  C    4.215076   5.058880   5.119993   5.279183   6.492659
    17  H    6.196049   7.549190   6.121789   5.772685   6.199131
    18  H    4.880289   6.185462   4.777682   4.737540   5.238800
    19  H    4.867052   6.295894   4.609206   4.065238   4.483090
    20  H    2.661228   4.060187   2.589567   2.663559   3.558660
    21  H    2.121958   1.103139   3.158407   4.029116   5.243405
    22  H    2.084927   1.094903   2.515045   3.718416   4.651091
    23  H    2.116290   1.101733   3.253061   4.495109   5.665066
    24  H    2.670137   3.873544   2.157324   1.091745   2.160857
    25  H    4.599202   5.705072   3.414379   2.152504   1.092352
    26  H    5.319752   6.153722   3.906632   3.411938   2.164692
    27  H    4.596877   5.034443   3.413956   3.877017   3.400433
    28  H    2.671459   2.818418   2.160079   3.405007   3.876929
    29  H    2.674247   2.486907   4.046161   4.722615   6.106258
    30  H    4.579686   4.837339   5.826104   6.206038   7.565221
    31  H    5.306914   6.125130   6.183727   6.266182   7.427726
                   11         12         13         14         15
    11  C    0.000000
    12  C    1.394834   0.000000
    13  C    2.421343   1.394126   0.000000
    14  C    6.443842   6.095223   4.839541   0.000000
    15  C    7.463089   7.220588   6.023782   1.396059   0.000000
    16  C    7.425116   7.318395   6.261642   2.427934   1.387718
    17  H    6.923916   7.223824   6.851249   6.010305   5.607313
    18  H    5.750607   5.790626   5.328959   5.105661   5.033865
    19  H    5.343253   5.770520   5.444392   5.089836   5.021873
[...]
    17  H    0.000000   0.000000   0.000015   0.000005  -0.000000   0.000000
    18  H    0.000005   0.000380  -0.000141   0.000172  -0.000072   0.000044
    19  H   -0.000005  -0.000533   0.000738  -0.000486   0.000203  -0.000096
    20  H   -0.000337   0.001306  -0.005372  -0.000411   0.000022   0.000332
    21  H    0.408297  -0.006160   0.003853  -0.000904   0.000070   0.000209
    22  H    0.406756  -0.007122  -0.000033   0.000508  -0.000159  -0.000184
    23  H    0.414019   0.014438  -0.001468   0.000167  -0.000033  -0.000263
    24  H    0.000085  -0.041672   0.434466  -0.044602   0.008274  -0.002318
    25  H    0.000004   0.013044  -0.055797   0.442610  -0.057075   0.010702
    26  H   -0.000002  -0.003773   0.011890  -0.056485   0.444215  -0.055820
    27  H    0.000024   0.014708  -0.004620   0.011748  -0.058084   0.442294
    28  H   -0.002337  -0.052114   0.009042  -0.002821   0.008254  -0.034454
    29  H    0.004704  -0.001138   0.000217  -0.000008  -0.000001   0.000010
    30  H   -0.000003   0.000019  -0.000002  -0.000000   0.000000   0.000000
    31  H   -0.000005   0.000003  -0.000002  -0.000000   0.000000  -0.000000
              13         14         15         16         17         18
     1  C    0.000130   0.001255  -0.001870   0.004689   0.400560   0.413161
     2  O    0.000004  -0.000835   0.002846  -0.056644  -0.031289  -0.041815
     3  C    0.000536  -0.139858   0.060827   0.380070   0.008420  -0.019139
     4  C    0.009687   0.099894  -0.141089   0.078607  -0.004252   0.013425
     5  C   -0.013352   0.332788   0.051249  -0.106113   0.000418  -0.001288
     6  N   -0.038764  -0.087527   0.002413   0.001524   0.000000   0.000003
     7  C   -0.007552  -0.012827  -0.001361   0.000067   0.000000   0.000005
     8  C    0.461602   0.004052  -0.000421   0.000140   0.000000   0.000380
     9  C    0.025705   0.002400   0.000335  -0.000239   0.000015  -0.000141
    10  C   -0.060828  -0.000859   0.000085  -0.000023   0.000005   0.000172
    11  C    0.012831   0.000063  -0.000003   0.000001  -0.000000  -0.000072
    12  C    0.455743   0.000111  -0.000005   0.000000   0.000000   0.000044
    13  C    5.042026  -0.000303  -0.000003  -0.000004  -0.000000  -0.000084
    14  C   -0.000303   5.297548   0.396008   0.046658  -0.000066   0.000236
    15  C   -0.000003   0.396008   4.878800   0.449169   0.000153  -0.000334
    16  C   -0.000004   0.046658   0.449169   5.090998  -0.000370   0.001158
    17  H   -0.000000  -0.000066   0.000153  -0.000370   0.529806  -0.021244
    18  H   -0.000084   0.000236  -0.000334   0.001158  -0.021244   0.586600
    19  H    0.000109   0.000117  -0.000246   0.001077  -0.020355  -0.054982
    20  H   -0.000230   0.004834  -0.000309   0.002174  -0.000394   0.002943
    21  H    0.003136   0.009923  -0.000986   0.000162  -0.000000   0.000000
    22  H   -0.004787   0.000678   0.000087  -0.000009  -0.000000  -0.000000
    23  H   -0.000630  -0.002634   0.001588  -0.000291   0.000000  -0.000001
    24  H    0.008844   0.000935  -0.000044   0.000032  -0.000001  -0.000021
    25  H   -0.003538   0.000006   0.000000  -0.000001  -0.000000   0.000003
    26  H    0.011142   0.000000  -0.000000   0.000000  -0.000000  -0.000001
    27  H   -0.055475  -0.000002   0.000000  -0.000000  -0.000000   0.000001
    28  H    0.426480   0.000008  -0.000005   0.000002  -0.000000  -0.000002
    29  H   -0.000053   0.436601  -0.028427   0.007697  -0.000000   0.000002
    30  H    0.000001  -0.065145   0.451994  -0.068055   0.000000  -0.000002
    31  H   -0.000000   0.017815  -0.067233   0.456041  -0.000224   0.000130
              19         20         21         22         23         24
     1  C    0.413070   0.008664  -0.000000  -0.000000  -0.000001   0.000056
     2  O   -0.041553  -0.007120   0.000000  -0.000000   0.000001  -0.000032
     3  C   -0.017980  -0.055461  -0.000264   0.000045   0.000081  -0.000353
     4  C    0.015228   0.412527  -0.000884  -0.000388   0.000145   0.003217
     5  C   -0.002289  -0.004887  -0.006764   0.007153  -0.006919  -0.000766
     6  N   -0.000039  -0.002023  -0.052365  -0.026984  -0.044316  -0.003676
     7  C   -0.000005  -0.000337   0.408297   0.406756   0.414019   0.000085
     8  C   -0.000533   0.001306  -0.006160  -0.007122   0.014438  -0.041672
     9  C    0.000738  -0.005372   0.003853  -0.000033  -0.001468   0.434466
    10  C   -0.000486  -0.000411  -0.000904   0.000508   0.000167  -0.044602
    11  C    0.000203   0.000022   0.000070  -0.000159  -0.000033   0.008274
    12  C   -0.000096   0.000332   0.000209  -0.000184  -0.000263  -0.002318
    13  C    0.000109  -0.000230   0.003136  -0.004787  -0.000630   0.008844
    14  C    0.000117   0.004834   0.009923   0.000678  -0.002634   0.000935
    15  C   -0.000246  -0.000309  -0.000986   0.000087   0.001588  -0.000044
    16  C    0.001077   0.002174   0.000162  -0.000009  -0.000291   0.000032
    17  H   -0.020355  -0.000394  -0.000000  -0.000000   0.000000  -0.000001
    18  H   -0.054982   0.002943   0.000000  -0.000000  -0.000001  -0.000021
    19  H    0.586993  -0.000150  -0.000000   0.000000   0.000000   0.000172
    20  H   -0.000150   0.474932   0.000032   0.000005  -0.000012  -0.000896
    21  H   -0.000000   0.000032   0.586839  -0.026273  -0.048277   0.000462
    22  H    0.000000   0.000005  -0.026273   0.519663  -0.012789  -0.000176
    23  H    0.000000  -0.000012  -0.048277  -0.012789   0.555238  -0.000031
    24  H    0.000172  -0.000896   0.000462  -0.000176  -0.000031   0.498405
    25  H   -0.000029   0.000000   0.000002   0.000002  -0.000001  -0.006442
    26  H    0.000002   0.000002  -0.000000  -0.000001   0.000000  -0.000071
    27  H   -0.000001  -0.000004  -0.000009   0.000039   0.000007   0.000014
    28  H    0.000001  -0.000020   0.000599  -0.002868  -0.000728  -0.000137
    29  H    0.000001  -0.000148   0.002738   0.000438  -0.007208   0.000003
    30  H   -0.000001  -0.000009  -0.000004  -0.000001  -0.000013  -0.000001
    31  H    0.000135   0.000090   0.000001  -0.000000  -0.000001   0.000002
              25         26         27         28         29         30
     1  C   -0.000002   0.000001  -0.000000   0.000003   0.000001   0.000029
     2  O    0.000001  -0.000000  -0.000000  -0.000000   0.000009  -0.000125
     3  C   -0.000009  -0.000001   0.000001  -0.000001  -0.003094   0.016470
     4  C   -0.000160   0.000004   0.000002  -0.000113   0.010584  -0.006022
     5  C    0.000070   0.000005  -0.000021   0.000764  -0.064923   0.016936
     6  N   -0.000217   0.000013  -0.000255   0.006306  -0.005385  -0.000151
     7  C    0.000004  -0.000002   0.000024  -0.002337   0.004704  -0.000003
     8  C    0.013044  -0.003773   0.014708  -0.052114  -0.001138   0.000019
     9  C   -0.055797   0.011890  -0.004620   0.009042   0.000217  -0.000002
    10  C    0.442610  -0.056485   0.011748  -0.002821  -0.000008  -0.000000
    11  C   -0.057075   0.444215  -0.058084   0.008254  -0.000001   0.000000
    12  C    0.010702  -0.055820   0.442294  -0.034454   0.000010   0.000000
    13  C   -0.003538   0.011142  -0.055475   0.426480  -0.000053   0.000001
    14  C    0.000006   0.000000  -0.000002   0.000008   0.436601  -0.065145
    15  C    0.000000  -0.000000   0.000000  -0.000005  -0.028427   0.451994
    16  C   -0.000001   0.000000  -0.000000   0.000002   0.007697  -0.068055
    17  H   -0.000000  -0.000000  -0.000000  -0.000000  -0.000000   0.000000
    18  H    0.000003  -0.000001   0.000001  -0.000002   0.000002  -0.000002
    19  H   -0.000029   0.000002  -0.000001   0.000001   0.000001  -0.000001
    20  H    0.000000   0.000002  -0.000004  -0.000020  -0.000148  -0.000009
    21  H    0.000002  -0.000000  -0.000009   0.000599   0.002738  -0.000004
    22  H    0.000002  -0.000001   0.000039  -0.002868   0.000438  -0.000001
    23  H   -0.000001   0.000000   0.000007  -0.000728  -0.007208  -0.000013
    24  H   -0.006442  -0.000071   0.000014  -0.000137   0.000003  -0.000001
    25  H    0.540094  -0.006811  -0.000136   0.000031   0.000000   0.000000
    26  H   -0.006811   0.540973  -0.006866  -0.000085   0.000000   0.000000
    27  H   -0.000136  -0.006866   0.542731  -0.007121  -0.000000  -0.000000
    28  H    0.000031  -0.000085  -0.007121   0.510588   0.000003   0.000000
    29  H    0.000000   0.000000  -0.000000   0.000003   0.527838  -0.006875
    30  H    0.000000   0.000000  -0.000000   0.000000  -0.006875   0.558028
    31  H    0.000000   0.000000   0.000000   0.000000  -0.000020  -0.009264
              31
     1  C   -0.000248
     2  O    0.008614
     3  C   -0.082576
     4  C    0.026508
     5  C   -0.008776
     6  N    0.000021
     7  C   -0.000005
     8  C    0.000003
     9  C   -0.000002
    10  C   -0.000000
    11  C    0.000000
    12  C   -0.000000
    13  C   -0.000000
    14  C    0.017815
    15  C   -0.067233
    16  C    0.456041
    17  H   -0.000224
    18  H    0.000130
    19  H    0.000135
    20  H    0.000090
    21  H    0.000001
    22  H   -0.000000
    23  H   -0.000001
    24  H    0.000002
    25  H    0.000000
    26  H    0.000000
    27  H    0.000000
    28  H    0.000000
    29  H   -0.000020
    30  H   -0.009264
    31  H    0.543577
 Mulliken charges:
               1
     1  C   -0.206140
     2  O   -0.283754
     3  C    0.404914
     4  C   -0.414699
     5  C    0.220459
     6  N   -0.057919
     7  C   -0.312255
     8  C    0.197539
     9  C   -0.292726
    10  C   -0.059833
    11  C   -0.144642
    12  C   -0.065730
    13  C   -0.272372
    14  C   -0.341876
    15  C   -0.053218
    16  C   -0.288517
    17  H    0.138819
    18  H    0.120861
    19  H    0.120899
    20  H    0.169920
    21  H    0.126567
    22  H    0.146402
    23  H    0.139928
    24  H    0.146271
    25  H    0.123648
    26  H    0.121668
    27  H    0.121023
    28  H    0.140724
    29  H    0.126433
    30  H    0.112195
    31  H    0.115412
 Sum of Mulliken charges =  -0.00000
 Mulliken charges with hydrogens summed into heavy atoms:
               1
     1  C    0.174439
     2  O   -0.283754
     3  C    0.404914
     4  C   -0.244779
     5  C    0.220459
     6  N   -0.057919
     7  C    0.100642
     8  C    0.197539
     9  C   -0.146455
    10  C    0.063814
    11  C   -0.022974
    12  C    0.055292
    13  C   -0.131648
    14  C   -0.215443
    15  C    0.058976
    16  C   -0.173105
 Electronic spatial extent (au):  <R**2>=           3930.9013
 Charge=              0.0000 electrons
 Dipole moment (field-independent basis, Debye):
    X=              2.1553    Y=              0.1717    Z=             -0.2293  Tot=              2.1743
 Quadrupole moment (field-independent basis, Debye-Ang):
   XX=            -95.1745   YY=            -84.4799   ZZ=            -94.6028
   XY=              2.1181   XZ=             -2.5731   YZ=              0.8010
 Traceless Quadrupole moment (field-independent basis, Debye-Ang):
   XX=             -3.7554   YY=              6.9392   ZZ=             -3.1837
   XY=              2.1181   XZ=             -2.5731   YZ=              0.8010
 Octapole moment (field-independent basis, Debye-Ang**2):
  XXX=              9.2630  YYY=              9.3249  ZZZ=             -2.5955  XYY=             -6.2806
  XXY=              5.8538  XXZ=             -6.8843  XZZ=              9.9854  YZZ=              7.7324
  YYZ=             -1.5732  XYZ=             11.8441
 Hexadecapole moment (field-independent basis, Debye-Ang**3):
 XXXX=          -3369.7318 YYYY=          -1432.0153 ZZZZ=           -354.3596 XXXY=            100.6915
 XXXZ=            -77.8964 YYYX=            -61.9319 YYYZ=            -10.9311 ZZZX=              1.0759
 ZZZY=             13.1053 XXYY=           -799.5606 XXZZ=           -641.1807 YYZZ=           -316.2844
 XXYZ=              5.3983 YYXZ=             10.9594 ZZXY=            -10.1526
 N-N= 1.040745215506D+03 E-N=-3.644815221633D+03  KE= 6.688043549897D+02
 Breneman (CHELPG) radii used.
 Read replacement radii for each type of atom:
 Atom Element Radius
    1     6    1.50
    2     8    1.70
    3     6    1.50
    4     6    1.50
    5     6    1.50
    6     7    1.70
    7     6    1.50
    8     6    1.50
    9     6    1.50
   10     6    1.50
   11     6    1.50
   12     6    1.50
   13     6    1.50
   14     6    1.50
   15     6    1.50
   16     6    1.50
   17     1    1.45
   18     1    1.45
   19     1    1.45
   20     1    1.45
   21     1    1.45
   22     1    1.45
   23     1    1.45
   24     1    1.45
   25     1    1.45
   26     1    1.45
   27     1    1.45
   28     1    1.45
   29     1    1.45
   30     1    1.45
   31     1    1.45
 Generate Potential Derived Charges using the Breneman model, NDens= 1.
 Grid spacing= 0.300 Box extension= 2.800
 NStep X,Y,Z=   50     44     34   Total possible points=       74800
 Number of Points to Fit=   18891

 **********************************************************************

            Electrostatic Properties Using The SCF Density.

 **********************************************************************

       Atomic Center    1 is at  -1.936476  2.989639 -0.517942
       Atomic Center    2 is at  -2.872130  1.990927 -0.222551
       Atomic Center    3 is at  -2.449856  0.715772 -0.075524
       Atomic Center    4 is at  -1.121204  0.324393 -0.221384
       Atomic Center    5 is at  -0.747295 -1.025855 -0.046177
       Atomic Center    6 is at   0.583866 -1.404677 -0.216082
       Atomic Center    7 is at   0.925479 -2.809698 -0.267941
       Atomic Center    8 is at   1.637777 -0.474246 -0.030804
       Atomic Center    9 is at   1.718259  0.301361  1.133870
       Atomic Center   10 is at   2.765036  1.202210  1.308670
       Atomic Center   11 is at   3.757983  1.327840  0.336402
       Atomic Center   12 is at   3.689202  0.550959 -0.818848
       Atomic Center   13 is at   2.631048 -0.336158 -1.007225
       Atomic Center   14 is at  -1.741853 -1.968067  0.255763
       Atomic Center   15 is at  -3.070788 -1.555858  0.384830
       Atomic Center   16 is at  -3.440795 -0.230509  0.230600
       Atomic Center   17 is at  -2.490396  3.935145 -0.569156
       Atomic Center   18 is at  -1.440297  2.814998 -1.488870
       Atomic Center   19 is at  -1.161139  3.071658  0.264235
       Atomic Center   20 is at  -0.354842  1.050816 -0.484132
       Atomic Center   21 is at   0.791673 -3.314157  0.707815
       Atomic Center   22 is at   1.978432 -2.915943 -0.555545
       Atomic Center   23 is at   0.310659 -3.336374 -1.014429
       Atomic Center   24 is at   0.945130  0.195059  1.897639
       Atomic Center   25 is at   2.813411  1.801442  2.220759
       Atomic Center   26 is at   4.582233  2.029564  0.479369
       Atomic Center   27 is at   4.457253  0.646039 -1.589660
       Atomic Center   28 is at   2.561050 -0.926162 -1.923810
       Atomic Center   29 is at  -1.494415 -3.018167  0.402924
       Atomic Center   30 is at  -3.833968 -2.300632  0.622993
       Atomic Center   31 is at  -4.473908  0.101338  0.337107
   18891 points will be used for fitting atomic charges
 Fitting point charges to electrostatic potential
 Charges from ESP fit, RMS=   0.00375 RRMS=   0.34600:
 ESP charges:
               1
     1  C    0.141734
     2  O   -0.368656
     3  C    0.445951
     4  C   -0.376655
     5  C    0.390828
     6  N   -0.402783
     7  C    0.044513
     8  C    0.344310
     9  C   -0.131162
    10  C   -0.101826
    11  C   -0.139870
    12  C   -0.057536
    13  C   -0.222917
    14  C   -0.342167
    15  C   -0.010781
    16  C   -0.352473
    17  H    0.048434
    18  H    0.007828
    19  H    0.011702
    20  H    0.099717
    21  H    0.021440
    22  H    0.028039
    23  H    0.040255
    24  H    0.080544
    25  H    0.105364
    26  H    0.100709
    27  H    0.090273
    28  H    0.127964
    29  H    0.136239
    30  H    0.100545
    31  H    0.140437
 Sum of ESP charges =  -0.00000
 ESP charges with hydrogens summed into heavy atoms:
               1
     1  C    0.209697
     2  O   -0.368656
     3  C    0.445951
     4  C   -0.276938
     5  C    0.390828
     6  N   -0.402783
     7  C    0.134248
     8  C    0.344310
     9  C   -0.050618
    10  C    0.003538
    11  C   -0.039161
    12  C    0.032737
    13  C   -0.094953
    14  C   -0.205928
    15  C    0.089764
    16  C   -0.212036
 Charge=  -0.00000 Dipole=     2.1779     0.0862    -0.1963 Tot=     2.1884
 -----------------------------------------------------------------

              Electrostatic Properties (Atomic Units)

 -----------------------------------------------------------------
    Center     Electric         -------- Electric Field --------
               Potential          X             Y             Z
 -----------------------------------------------------------------
    1 Atom    -14.718908
    2 Atom    -22.331473
    3 Atom    -14.714818
    4 Atom    -14.783272
    5 Atom    -14.727442
    6 Atom    -18.360182
    7 Atom    -14.736044
    8 Atom    -14.724790
    9 Atom    -14.766757
   10 Atom    -14.763160
   11 Atom    -14.765908
   12 Atom    -14.762606
   13 Atom    -14.765499
   14 Atom    -14.786259
   15 Atom    -14.775059
   16 Atom    -14.790100
   17 Atom     -1.109272
   18 Atom     -1.111625
   19 Atom     -1.111284
   20 Atom     -1.106515
   21 Atom     -1.115434
   22 Atom     -1.104346
   23 Atom     -1.111414
   24 Atom     -1.102039
   25 Atom     -1.102579
   26 Atom     -1.103448
   27 Atom     -1.101805
   28 Atom     -1.098969
   29 Atom     -1.114607
   30 Atom     -1.115745
   31 Atom     -1.117372
 -----------------------------------------------------------------
 Unable to Open any file for archive entry.
 1\1\GINC-NOTCH131\SP\RwB97XD\def2TZVP\C14H15N1O1\U1366379\17-Feb-2026\
 0\\#N Guess=Read Geom=Check Integral(Ultrafine) Density Pop=(ChelpG,Re
 adRadii) NMR wB97XD def2TZVP\\prod_5g_1\\0,1\C,0,-1.8858908245,2.98345
 53449,-0.6411965887\O,0,-2.8327704994,2.0010203711,-0.32755574\C,0,-2.
 4225435238,0.7272987174,-0.1396723437\C,0,-1.0956793149,0.3214289113,-
 0.2599644432\C,0,-0.7347272451,-1.0261640419,-0.0422946934\N,0,0.59500
 3294,-1.4201892114,-0.1869514987\C,0,0.9256112816,-2.8287722219,-0.195
 0277913\C,0,1.6544928224,-0.4931888941,-0.0169227653\C,0,1.7290273152,
 0.3147581578,1.125957059\C,0,2.7812518369,1.211946255,1.2862791112\C,0
 ,3.7854084928,1.301867858,0.3215949848\C,0,3.7224642506,0.492823871,-0
 .8117024255\C,0,2.6591193935,-0.3909367557,-0.9861099434\C,0,-1.740111
 3241,-1.9514714889,0.2756455695\C,0,-3.0669102974,-1.5252593579,0.3785
 547497\C,0,-3.4243871971,-0.2019842012,0.1826039631\H,0,-2.431466245,3
 .931452974,-0.7253309969\H,0,-1.3809339907,2.7771987994,-1.601338287\H
 ,0,-1.1182112586,3.0816919549,0.1466433998\H,0,-0.3206540774,1.0339652
 472,-0.5350388605\H,0,0.7773752838,-3.3040397351,0.7932182214\H,0,1.98
 06367812,-2.9515116073,-0.4681046315\H,0,0.314410926,-3.3717162348,-0.
 9327815482\H,0,0.9470298644,0.2364554582,1.8840593157\H,0,2.8249042793
 ,1.836624293,2.1813756101\H,0,4.6138293943,2.000864835,0.4533766307\H,
 0,4.4993671617,0.5597481389,-1.576579482\H,0,2.5939700362,-1.006348225
 4,-1.88619672\H,0,-1.502860642,-2.9988528456,0.4553577488\H,0,-3.83864
 46361,-2.2568659861,0.6296132224\H,0,-4.4558113378,0.1409196203,0.2684
 49173\\Version=ES64L-G16RevC.01\State=1-A\HF=-672.4946324\RMSD=1.496e-
 09\Dipole=0.8494035,0.0582562,-0.0829402\Quadrupole=-2.7253692,5.16251
 16,-2.4371424,1.5778429,-1.9578156,0.4118493\PG=C01 [X(C14H15N1O1)]\\@
 The archive entry for this job was punched.


 YOU CANNOT THROW TO THE GROUND THE LETTERS OF
 THE GREEK ALPHABET AND PICK UP THE ILIAD.
        - RUFUS CHOATE, 1799-1859
 Job cpu time:       0 days  1 hours 38 minutes 14.6 seconds.
 Elapsed time:       0 days  0 hours 12 minutes 41.7 seconds.
 File lengths (MBytes):  RWF=    209 Int=      0 D2E=      0 Chk=     32 Scr=      2
 Normal termination of Gaussian 16 at Tue Feb 17 16:55:24 2026.
