 Entering Gaussian System, Link 0=g16
 Input=prod_3c_1.com
 Output=prod_3c_1.log
 Initial command:
 /uufs/chpc.utah.edu/sys/installdir/gaussian16/C01/AVX/g16/l1.exe "/scratch/general/vast/u1366379/GAUSSSCRDIR/11028600-notchpeak.peaks/Gau-1426230.inp" -scrdir="/scratch/general/vast/u1366379/GAUSSSCRDIR/11028600-notchpeak.peaks/"
 Entering Link 1 = /uufs/chpc.utah.edu/sys/installdir/gaussian16/C01/AVX/g16/l1.exe PID=   1426231.
  
 Copyright (c) 1988-2019, Gaussian, Inc.  All Rights Reserved.
  
 This is part of the Gaussian(R) 16 program.  It is based on
 the Gaussian(R) 09 system (copyright 2009, Gaussian, Inc.),
 the Gaussian(R) 03 system (copyright 2003, Gaussian, Inc.),
 the Gaussian(R) 98 system (copyright 1998, Gaussian, Inc.),
 the Gaussian(R) 94 system (copyright 1995, Gaussian, Inc.),
 the Gaussian 92(TM) system (copyright 1992, Gaussian, Inc.),
 the Gaussian 90(TM) system (copyright 1990, Gaussian, Inc.),
 the Gaussian 88(TM) system (copyright 1988, Gaussian, Inc.),
 the Gaussian 86(TM) system (copyright 1986, Carnegie Mellon
 University), and the Gaussian 82(TM) system (copyright 1983,
 Carnegie Mellon University). Gaussian is a federally registered
 trademark of Gaussian, Inc.
  
 This software contains proprietary and confidential information,
 including trade secrets, belonging to Gaussian, Inc.
  
 This software is provided under written license and may be
 used, copied, transmitted, or stored only in accord with that
 written license.
  
 The following legend is applicable only to US Government
 contracts under FAR:
  
                    RESTRICTED RIGHTS LEGEND
  
 Use, reproduction and disclosure by the US Government is
 subject to restrictions as set forth in subparagraphs (a)
 and (c) of the Commercial Computer Software - Restricted
 Rights clause in FAR 52.227-19.
  
 Gaussian, Inc.
 340 Quinnipiac St., Bldg. 40, Wallingford CT 06492
  
  
 ---------------------------------------------------------------
 Warning -- This program may not be used in any manner that
 competes with the business of Gaussian, Inc. or will provide
 assistance to any competitor of Gaussian, Inc.  The licensee
 of this program is prohibited from giving any competitor of
 Gaussian, Inc. access to this program.  By using this program,
 the user acknowledges that Gaussian, Inc. is engaged in the
 business of creating and licensing software in the field of
 computational chemistry and represents and warrants to the
 licensee that it is not a competitor of Gaussian, Inc. and that
 it will not use this program in any manner prohibited above.
 ---------------------------------------------------------------
  

 Cite this work as:
 Gaussian 16, Revision C.01,
 M. J. Frisch, G. W. Trucks, H. B. Schlegel, G. E. Scuseria, 
 M. A. Robb, J. R. Cheeseman, G. Scalmani, V. Barone, 
 G. A. Petersson, H. Nakatsuji, X. Li, M. Caricato, A. V. Marenich, 
 J. Bloino, B. G. Janesko, R. Gomperts, B. Mennucci, H. P. Hratchian, 
 J. V. Ortiz, A. F. Izmaylov, J. L. Sonnenberg, D. Williams-Young, 
 F. Ding, F. Lipparini, F. Egidi, J. Goings, B. Peng, A. Petrone, 
 T. Henderson, D. Ranasinghe, V. G. Zakrzewski, J. Gao, N. Rega, 
 G. Zheng, W. Liang, M. Hada, M. Ehara, K. Toyota, R. Fukuda, 
 J. Hasegawa, M. Ishida, T. Nakajima, Y. Honda, O. Kitao, H. Nakai, 
 T. Vreven, K. Throssell, J. A. Montgomery, Jr., J. E. Peralta, 
 F. Ogliaro, M. J. Bearpark, J. J. Heyd, E. N. Brothers, K. N. Kudin, 
 V. N. Staroverov, T. A. Keith, R. Kobayashi, J. Normand, 
 K. Raghavachari, A. P. Rendell, J. C. Burant, S. S. Iyengar, 
 J. Tomasi, M. Cossi, J. M. Millam, M. Klene, C. Adamo, R. Cammi, 
 J. W. Ochterski, R. L. Martin, K. Morokuma, O. Farkas, 
 J. B. Foresman, and D. J. Fox, Gaussian, Inc., Wallingford CT, 2019.
 
 ******************************************
 Gaussian 16:  ES64L-G16RevC.01  3-Jul-2019
                17-Feb-2026 
 ******************************************
 %NProcShared=8
 Will use up to    8 processors via shared memory.
 %Mem=8GB
 %chk=prod_3c_1.chk
 ------------------------------------------------------
 #N OPT FREQ=NORAMAN Integral(Ultrafine) wB97XD def2SVP
 ------------------------------------------------------
 1/18=20,19=15,26=4,38=1/1,3;
 2/9=110,12=2,17=6,18=5,40=1/2;
 3/5=43,7=101,11=2,25=1,30=1,71=1,74=-58,75=-5/1,2,3;
 4//1;
 5/5=2,38=5/2;
 6/7=2,8=2,9=2,10=2,28=1/1;
 7//1,2,3,16;
 1/18=20,19=15,26=4/3(2);
 2/9=110/2;
 99//99;
 2/9=110/2;
 3/5=43,7=101,11=2,25=1,30=1,71=1,74=-58,75=-5/1,2,3;
 4/5=5,16=3,69=1/1;
 5/5=2,38=5/2;
 7//1,2,3,16;
 1/18=20,19=15,26=4/3(-5);
 2/9=110/2;
 6/7=2,8=2,9=2,10=2,19=2,28=1/1;
 99/9=1/99;
 ---------
 prod_3c_1
 ---------
 Symbolic Z-matrix:
 Charge =  0 Multiplicity = 1
 F                     2.86668   2.1776    0.46994 
 C                     2.55294   0.88321   0.20439 
 C                     1.24525   0.45518   0.29124 
 C                     0.89805  -0.86575   0.01959 
 N                    -0.43648  -1.31546   0.12551 
 C                    -1.62292  -0.55431   0.03226 
 C                    -1.66974   0.64387  -0.67882 
 C                    -2.84063   1.36098  -0.77214 
 C                    -3.98958   0.89461  -0.16431 
 C                    -3.96482  -0.29813   0.53131 
 C                    -2.79621  -1.01897   0.62536 
 C                     1.91176  -1.75965  -0.3221 
 C                     3.2181   -1.33607  -0.41134 
 C                     3.53953  -0.01905  -0.15359 
 H                     0.49711   1.15296   0.61526 
 H                    -0.55808  -2.31036   0.29847 
 H                    -0.78527   0.98664  -1.18555 
 H                    -2.86216   2.28588  -1.32481 
 H                    -4.90529   1.45798  -0.23707 
 H                    -4.86238  -0.66498   1.00156 
 H                    -2.77211  -1.94717   1.16897 
 H                     1.65644  -2.78476  -0.52527 
 H                     3.99279  -2.03394  -0.68349 
 H                     4.5558    0.32677  -0.21895 
 

 GradGradGradGradGradGradGradGradGradGradGradGradGradGradGradGradGradGrad
 Berny optimization.
 Initialization pass.
                           ----------------------------
                           !    Initial Parameters    !
                           ! (Angstroms and Degrees)  !
 --------------------------                            --------------------------
 ! Name  Definition              Value          Derivative Info.                !
 --------------------------------------------------------------------------------
 ! R1    R(1,2)                  1.3581         estimate D2E/DX2                !
 ! R2    R(2,3)                  1.3787         estimate D2E/DX2                !
 ! R3    R(2,14)                 1.384          estimate D2E/DX2                !
 ! R4    R(3,4)                  1.3926         estimate D2E/DX2                !
 ! R5    R(3,15)                 1.0731         estimate D2E/DX2                !
 ! R6    R(4,5)                  1.4122         estimate D2E/DX2                !
 ! R7    R(4,12)                 1.3941         estimate D2E/DX2                !
 ! R8    R(5,6)                  1.4127         estimate D2E/DX2                !
 ! R9    R(5,16)                 1.0171         estimate D2E/DX2                !
 ! R10   R(6,7)                  1.3941         estimate D2E/DX2                !
 ! R11   R(6,11)                 1.3944         estimate D2E/DX2                !
 ! R12   R(7,8)                  1.3762         estimate D2E/DX2                !
 ! R13   R(7,17)                 1.0754         estimate D2E/DX2                !
 ! R14   R(8,9)                  1.381          estimate D2E/DX2                !
 ! R15   R(8,18)                 1.0777         estimate D2E/DX2                !
 ! R16   R(9,10)                 1.381          estimate D2E/DX2                !
 ! R17   R(9,19)                 1.0776         estimate D2E/DX2                !
 ! R18   R(10,11)                1.3763         estimate D2E/DX2                !
 ! R19   R(10,20)                1.0776         estimate D2E/DX2                !
 ! R20   R(11,21)                1.0759         estimate D2E/DX2                !
 ! R21   R(12,13)                1.3762         estimate D2E/DX2                !
 ! R22   R(12,22)                1.0758         estimate D2E/DX2                !
 ! R23   R(13,14)                1.38           estimate D2E/DX2                !
 ! R24   R(13,23)                1.0776         estimate D2E/DX2                !
 ! R25   R(14,24)                1.0755         estimate D2E/DX2                !
 ! A1    A(1,2,3)              120.1788         estimate D2E/DX2                !
 ! A2    A(1,2,14)             120.4791         estimate D2E/DX2                !
 ! A3    A(3,2,14)             119.342          estimate D2E/DX2                !
 ! A4    A(2,3,4)              121.2444         estimate D2E/DX2                !
 ! A5    A(2,3,15)             118.5812         estimate D2E/DX2                !
 ! A6    A(4,3,15)             120.1237         estimate D2E/DX2                !
 ! A7    A(3,4,5)              121.5361         estimate D2E/DX2                !
 ! A8    A(3,4,12)             118.3432         estimate D2E/DX2                !
 ! A9    A(5,4,12)             120.0889         estimate D2E/DX2                !
 ! A10   A(4,5,6)              128.1053         estimate D2E/DX2                !
 ! A11   A(4,5,16)             115.926          estimate D2E/DX2                !
 ! A12   A(6,5,16)             115.9665         estimate D2E/DX2                !
 ! A13   A(5,6,7)              121.6654         estimate D2E/DX2                !
 ! A14   A(5,6,11)             119.9378         estimate D2E/DX2                !
 ! A15   A(7,6,11)             118.3665         estimate D2E/DX2                !
 ! A16   A(6,7,8)              120.7316         estimate D2E/DX2                !
 ! A17   A(6,7,17)             119.1211         estimate D2E/DX2                !
 ! A18   A(8,7,17)             120.1126         estimate D2E/DX2                !
 ! A19   A(7,8,9)              120.1356         estimate D2E/DX2                !
 ! A20   A(7,8,18)             119.9331         estimate D2E/DX2                !
 ! A21   A(9,8,18)             119.9306         estimate D2E/DX2                !
 ! A22   A(8,9,10)             119.8989         estimate D2E/DX2                !
 ! A23   A(8,9,19)             120.0483         estimate D2E/DX2                !
 ! A24   A(10,9,19)            120.052          estimate D2E/DX2                !
 ! A25   A(9,10,11)            120.1334         estimate D2E/DX2                !
 ! A26   A(9,10,20)            119.9261         estimate D2E/DX2                !
 ! A27   A(11,10,20)           119.9405         estimate D2E/DX2                !
 ! A28   A(6,11,10)            120.7224         estimate D2E/DX2                !
 ! A29   A(6,11,21)            118.9168         estimate D2E/DX2                !
 ! A30   A(10,11,21)           120.3574         estimate D2E/DX2                !
 ! A31   A(4,12,13)            120.5829         estimate D2E/DX2                !
 ! A32   A(4,12,22)            118.9943         estimate D2E/DX2                !
 ! A33   A(13,12,22)           120.4198         estimate D2E/DX2                !
 ! A34   A(12,13,14)           120.1817         estimate D2E/DX2                !
 ! A35   A(12,13,23)           119.9641         estimate D2E/DX2                !
 ! A36   A(14,13,23)           119.8542         estimate D2E/DX2                !
 ! A37   A(2,14,13)            120.2942         estimate D2E/DX2                !
 ! A38   A(2,14,24)            118.6648         estimate D2E/DX2                !
 ! A39   A(13,14,24)           121.0398         estimate D2E/DX2                !
 ! D1    D(1,2,3,4)            179.788          estimate D2E/DX2                !
 ! D2    D(1,2,3,15)            -2.7989         estimate D2E/DX2                !
 ! D3    D(14,2,3,4)            -0.3025         estimate D2E/DX2                !
 ! D4    D(14,2,3,15)          177.1106         estimate D2E/DX2                !
 ! D5    D(1,2,14,13)          179.4384         estimate D2E/DX2                !
 ! D6    D(1,2,14,24)           -0.1499         estimate D2E/DX2                !
 ! D7    D(3,2,14,13)           -0.4708         estimate D2E/DX2                !
 ! D8    D(3,2,14,24)          179.9409         estimate D2E/DX2                !
 ! D9    D(2,3,4,5)            179.0644         estimate D2E/DX2                !
 ! D10   D(2,3,4,12)             1.1158         estimate D2E/DX2                !
 ! D11   D(15,3,4,5)             1.6907         estimate D2E/DX2                !
 ! D12   D(15,3,4,12)         -176.2579         estimate D2E/DX2                !
 ! D13   D(3,4,5,6)             24.2303         estimate D2E/DX2                !
 ! D14   D(3,4,5,16)          -155.1939         estimate D2E/DX2                !
 ! D15   D(12,4,5,6)          -157.8564         estimate D2E/DX2                !
 ! D16   D(12,4,5,16)           22.7194         estimate D2E/DX2                !
 ! D17   D(3,4,12,13)           -1.1801         estimate D2E/DX2                !
 ! D18   D(3,4,12,22)          179.4457         estimate D2E/DX2                !
 ! D19   D(5,4,12,13)         -179.1593         estimate D2E/DX2                !
 ! D20   D(5,4,12,22)            1.4664         estimate D2E/DX2                !
 ! D21   D(4,5,6,7)             25.5652         estimate D2E/DX2                !
 ! D22   D(4,5,6,11)          -156.4699         estimate D2E/DX2                !
 ! D23   D(16,5,6,7)          -155.0108         estimate D2E/DX2                !
 ! D24   D(16,5,6,11)           22.9541         estimate D2E/DX2                !
 ! D25   D(5,6,7,8)            179.1221         estimate D2E/DX2                !
 ! D26   D(5,6,7,17)             1.2634         estimate D2E/DX2                !
 ! D27   D(11,6,7,8)             1.1263         estimate D2E/DX2                !
 ! D28   D(11,6,7,17)         -176.7324         estimate D2E/DX2                !
 ! D29   D(5,6,11,10)         -179.2438         estimate D2E/DX2                !
 ! D30   D(5,6,11,21)            1.436          estimate D2E/DX2                !
 ! D31   D(7,6,11,10)           -1.2122         estimate D2E/DX2                !
 ! D32   D(7,6,11,21)          179.4675         estimate D2E/DX2                !
 ! D33   D(6,7,8,9)             -0.3295         estimate D2E/DX2                !
 ! D34   D(6,7,8,18)           179.9758         estimate D2E/DX2                !
 ! D35   D(17,7,8,9)           177.5079         estimate D2E/DX2                !
 ! D36   D(17,7,8,18)           -2.1867         estimate D2E/DX2                !
 ! D37   D(7,8,9,10)            -0.4092         estimate D2E/DX2                !
 ! D38   D(7,8,9,19)           179.9107         estimate D2E/DX2                !
 ! D39   D(18,8,9,10)          179.2855         estimate D2E/DX2                !
 ! D40   D(18,8,9,19)           -0.3946         estimate D2E/DX2                !
 ! D41   D(8,9,10,11)            0.3235         estimate D2E/DX2                !
 ! D42   D(8,9,10,20)         -179.6886         estimate D2E/DX2                !
 ! D43   D(19,9,10,11)        -179.9964         estimate D2E/DX2                !
 ! D44   D(19,9,10,20)          -0.0085         estimate D2E/DX2                !
 ! D45   D(9,10,11,6)            0.5015         estimate D2E/DX2                !
 ! D46   D(9,10,11,21)         179.812          estimate D2E/DX2                !
 ! D47   D(20,10,11,6)        -179.4864         estimate D2E/DX2                !
 ! D48   D(20,10,11,21)         -0.1759         estimate D2E/DX2                !
 ! D49   D(4,12,13,14)           0.439          estimate D2E/DX2                !
 ! D50   D(4,12,13,23)        -179.5406         estimate D2E/DX2                !
 ! D51   D(22,12,13,14)        179.8043         estimate D2E/DX2                !
 ! D52   D(22,12,13,23)         -0.1752         estimate D2E/DX2                !
 ! D53   D(12,13,14,2)           0.4033         estimate D2E/DX2                !
 ! D54   D(12,13,14,24)        179.9816         estimate D2E/DX2                !
 ! D55   D(23,13,14,2)        -179.6172         estimate D2E/DX2                !
 ! D56   D(23,13,14,24)         -0.0388         estimate D2E/DX2                !
 --------------------------------------------------------------------------------
 Trust Radius=3.00D-01 FncErr=1.00D-07 GrdErr=1.00D-06 EigMax=2.50D+02 EigMin=1.00D-04
 Number of steps in this run=    130 maximum allowed number of steps=    144.
 GradGradGradGradGradGradGradGradGradGradGradGradGradGradGradGradGradGrad

                          Input orientation:                          
 ---------------------------------------------------------------------
 Center     Atomic      Atomic             Coordinates (Angstroms)
 Number     Number       Type             X           Y           Z
 ---------------------------------------------------------------------
      1          9           0        2.866680    2.177600    0.469940
      2          6           0        2.552940    0.883210    0.204390
      3          6           0        1.245250    0.455180    0.291240
      4          6           0        0.898050   -0.865750    0.019590
      5          7           0       -0.436480   -1.315460    0.125510
      6          6           0       -1.622920   -0.554310    0.032260
      7          6           0       -1.669740    0.643870   -0.678820
      8          6           0       -2.840630    1.360980   -0.772140
      9          6           0       -3.989580    0.894610   -0.164310
     10          6           0       -3.964820   -0.298130    0.531310
     11          6           0       -2.796210   -1.018970    0.625360
     12          6           0        1.911760   -1.759650   -0.322100
     13          6           0        3.218100   -1.336070   -0.411340
     14          6           0        3.539530   -0.019050   -0.153590
     15          1           0        0.497110    1.152960    0.615260
     16          1           0       -0.558080   -2.310360    0.298470
     17          1           0       -0.785270    0.986640   -1.185550
     18          1           0       -2.862160    2.285880   -1.324810
     19          1           0       -4.905290    1.457980   -0.237070
     20          1           0       -4.862380   -0.664980    1.001560
     21          1           0       -2.772110   -1.947170    1.168970
     22          1           0        1.656440   -2.784760   -0.525270
     23          1           0        3.992790   -2.033940   -0.683490
     24          1           0        4.555800    0.326770   -0.218950
 ---------------------------------------------------------------------
                    Distance matrix (angstroms):
                    1          2          3          4          5
     1  F    0.000000
     2  C    1.358085   0.000000
     3  C    2.372277   1.378697   0.000000
     4  C    3.652437   2.414886   1.392551   0.000000
     5  N    4.819851   3.711739   2.447621   1.412242   0.000000
     6  C    5.273652   4.419717   3.051645   2.540166   1.412687
     7  C    4.924539   4.320691   3.077952   3.059457   2.450888
     8  C    5.897713   5.502043   4.318063   4.422996   3.707970
     9  C    7.004044   6.552911   5.272956   5.198232   4.194392
    10  C    7.266526   6.632016   5.269719   4.922556   3.694431
    11  C    6.504655   5.692882   4.314876   3.746731   2.430243
    12  C    4.128091   2.770020   2.392884   1.394065   2.431438
    13  C    3.639509   2.397241   2.755782   2.406145   3.693858
    14  C    2.380502   1.384046   2.384636   2.779264   4.191328
    15  H    2.585704   2.113768   1.073126   2.142607   2.684128
    16  H    5.648023   4.459393   3.301555   2.070021   1.017117
    17  H    4.182795   3.617496   2.566392   2.777999   2.672115
    18  H    6.004370   5.799073   4.778483   5.087176   4.577882
    19  H    7.837170   7.493360   6.254108   6.256545   5.271973
    20  H    8.252348   7.617043   6.249997   5.846976   4.558418
    21  H    7.021276   6.107178   4.762444   3.995074   2.634964
    22  H    5.203858   3.845792   3.366449   2.134157   2.638687
    23  H    4.509500   3.372130   3.833379   3.381775   4.559510
    24  H    2.598705   2.121389   3.352093   3.854626   5.266729
                    6          7          8          9         10
     6  C    0.000000
     7  C    1.394081   0.000000
     8  C    2.407948   1.376204   0.000000
     9  C    2.781922   2.389403   1.380958   0.000000
    10  C    2.408148   2.760285   2.390697   1.380988   0.000000
    11  C    1.394377   2.394756   2.760279   2.389456   1.376265
    12  C    3.751317   4.327967   5.703164   6.472697   6.115435
    13  C    4.923759   5.280406   6.641722   7.549014   7.318487
    14  C    5.193451   5.277483   6.556945   7.584351   7.540706
    15  H    2.783736   2.574695   3.620588   4.561235   4.692710
    16  H    2.070861   3.304294   4.453648   4.718177   3.963478
    17  H    2.135239   1.075432   2.129681   3.364373   3.835072
    18  H    3.382903   2.129640   1.077658   2.133886   3.367217
    19  H    3.859508   3.365517   2.135071   1.077592   2.135138
    20  H    3.383178   3.837931   3.367194   2.133859   1.077649
    21  H    2.133731   3.367942   3.836204   3.366836   2.132721
    22  H    4.004991   4.779389   6.121417   6.748748   6.236846
    23  H    5.851308   6.263780   7.630791   8.518461   8.234824
    24  H    6.246278   6.250550   7.488844   8.564400   8.576384
                   11         12         13         14         15
    11  C    0.000000
    12  C    4.859143   0.000000
    13  C    6.111238   1.376193   0.000000
    14  C    6.461285   2.389083   1.379962   0.000000
    15  H    3.945040   3.370931   3.827919   3.349785   0.000000
    16  H    2.604567   2.605475   3.963913   4.716446   3.634332
    17  H    3.368345   3.944823   4.692692   4.558536   2.216997
    18  H    3.837909   6.337354   7.136001   6.904064   4.041296
    19  H    3.365603   7.538736   8.592238   8.573422   5.477721
    20  H    2.129764   6.988516   8.230480   8.505509   5.672589
    21  H    1.075940   4.919054   6.225226   6.730796   4.539295
    22  H    4.926262   1.075787   2.133182   3.366501   4.260340
    23  H    6.988117   2.129912   1.077605   2.132140   4.905391
    24  H    7.521697   3.369679   2.142777   1.075485   4.225099
                   16         17         18         19         20
    16  H    0.000000
    17  H    3.622725   0.000000
    18  H    5.391590   2.453750   0.000000
    19  H    5.778012   4.253979   2.458247   0.000000
    20  H    4.661396   4.912649   4.256812   2.458252   0.000000
    21  H    2.406576   4.254238   4.913834   4.257047   2.457899
    22  H    2.409917   4.541076   6.838743   7.819220   7.022798
    23  H    4.663804   5.675018   8.127883   9.569150   9.117427
    24  H    5.777019   5.467794   7.751591   9.528494   9.548577
                   21         22         23         24
    21  H    0.000000
    22  H    4.814983   0.000000
    23  H    7.014486   2.459125   0.000000
    24  H    7.797140   4.264005   2.470977   0.000000
 Stoichiometry    C12H10FN
 Framework group  C1[X(C12H10FN)]
 Deg. of freedom    66
 Full point group                 C1      NOp   1
 Largest Abelian subgroup         C1      NOp   1
 Largest concise Abelian subgroup C1      NOp   1
                         Standard orientation:                         
 ---------------------------------------------------------------------
 Center     Atomic      Atomic             Coordinates (Angstroms)
 Number     Number       Type             X           Y           Z
 ---------------------------------------------------------------------
      1          9           0       -2.865837    2.250430   -0.544924
      2          6           0       -2.578612    0.956558   -0.248625
      3          6           0       -1.278928    0.501762   -0.317814
      4          6           0       -0.958796   -0.819141   -0.014617
      5          7           0        0.367415   -1.296549   -0.102221
      6          6           0        1.567735   -0.556325   -0.018641
      7          6           0        1.633523    0.656387    0.665805
      8          6           0        2.817448    1.352889    0.750342
      9          6           0        3.960684    0.851121    0.160186
     10          6           0        3.916967   -0.356228   -0.508788
     11          6           0        2.735254   -1.056519   -0.593958
     12          6           0       -1.991480   -1.685607    0.340656
     13          6           0       -3.289914   -1.235230    0.412342
     14          6           0       -3.584436    0.081583    0.123288
     15          1           0       -0.515639    1.177667   -0.652688
     16          1           0        0.470829   -2.297221   -0.252185
     17          1           0        0.752915    1.027284    1.159281
     18          1           0        2.853601    2.289370    1.282361
     19          1           0        4.886638    1.398368    0.226020
     20          1           0        4.809988   -0.750627   -0.965176
     21          1           0        2.696416   -1.996046   -1.116861
     22          1           0       -1.757119   -2.710597    0.568223
     23          1           0       -4.079451   -1.911881    0.695198
     24          1           0       -4.594218    0.448151    0.174629
 ---------------------------------------------------------------------
 Rotational constants (GHZ):           1.5956196           0.3711576           0.3151995
 Standard basis: def2SVP (5D, 7F)
 There are   260 symmetry adapted cartesian basis functions of A   symmetry.
 There are   246 symmetry adapted basis functions of A   symmetry.
   246 basis functions,   420 primitive gaussians,   260 cartesian basis functions
    49 alpha electrons       49 beta electrons
       nuclear repulsion energy       797.7665654591 Hartrees.
 NAtoms=   24 NActive=   24 NUniq=   24 SFac= 1.00D+00 NAtFMM=   60 NAOKFM=F Big=F
 Integral buffers will be    131072 words long.
 Raffenetti 2 integral format.
 Two-electron integral symmetry is turned on.
 Nuclear repulsion after empirical dispersion term =      797.7527321153 Hartrees.
 One-electron integrals computed using PRISM.
   1 Symmetry operations used in ECPInt.
 ECPInt:  NShTT=    6555 NPrTT=   24083 LenC2=    6166 LenP2D=   16642.
 LDataN:  DoStor=T MaxTD1= 4 Len=   56
 NBasis=   246 RedAO= T EigKep=  2.26D-04  NBF=   246
 NBsUse=   246 1.00D-06 EigRej= -1.00D+00 NBFU=   246
 ExpMin= 1.22D-01 ExpMax= 2.89D+03 ExpMxC= 4.35D+02 IAcc=3 IRadAn=         5 AccDes= 0.00D+00
 Harris functional with IExCor= 4639 and IRadAn=       5 diagonalized for initial guess.
 HarFok:  IExCor= 4639 AccDes= 0.00D+00 IRadAn=         5 IDoV= 1 UseB2=F ITyADJ=14
 ICtDFT=  3500011 ScaDFX=  1.000000  1.000000  1.000000  1.000000
 FoFCou: FMM=F IPFlag=           0 FMFlag=      100000 FMFlg1=           0
         NFxFlg=           0 DoJE=T BraDBF=F KetDBF=T FulRan=T
         wScrn=  0.000000 ICntrl=       500 IOpCl=  0 I1Cent=   200000004 NGrid=           0
         NMat0=    1 NMatS0=      1 NMatT0=    0 NMatD0=    1 NMtDS0=    0 NMtDT0=    0
 Petite list used in FoFCou.
 Requested convergence on RMS density matrix=1.00D-08 within 128 cycles.
 Requested convergence on MAX density matrix=1.00D-06.
 Requested convergence on             energy=1.00D-06.
 No special actions if energy rises.
 Integral accuracy reduced to 1.0D-05 until final iterations.
 Initial convergence to 1.0D-05 achieved.  Increase integral accuracy.
 SCF Done:  E(RwB97XD) =  -617.239861337     A.U. after   15 cycles
            NFock= 15  Conv=0.56D-08     -V/T= 2.0097

 **********************************************************************

            Population analysis using the SCF Density.

 **********************************************************************

 Orbital symmetries:
       Occupied  (A) (A) (A) (A) (A) (A) (A) (A) (A) (A) (A) (A)
                 (A) (A) (A) (A) (A) (A) (A) (A) (A) (A) (A) (A)
                 (A) (A) (A) (A) (A) (A) (A) (A) (A) (A) (A) (A)
                 (A) (A) (A) (A) (A) (A) (A) (A) (A) (A) (A) (A)
                 (A)
       Virtual   (A) (A) (A) (A) (A) (A) (A) (A) (A) (A) (A) (A)
                 (A) (A) (A) (A) (A) (A) (A) (A) (A) (A) (A) (A)
                 (A) (A) (A) (A) (A) (A) (A) (A) (A) (A) (A) (A)
                 (A) (A) (A) (A) (A) (A) (A) (A) (A) (A) (A) (A)
                 (A) (A) (A) (A) (A) (A) (A) (A) (A) (A) (A) (A)
                 (A) (A) (A) (A) (A) (A) (A) (A) (A) (A) (A) (A)
                 (A) (A) (A) (A) (A) (A) (A) (A) (A) (A) (A) (A)
                 (A) (A) (A) (A) (A) (A) (A) (A) (A) (A) (A) (A)
                 (A) (A) (A) (A) (A) (A) (A) (A) (A) (A) (A) (A)
                 (A) (A) (A) (A) (A) (A) (A) (A) (A) (A) (A) (A)
                 (A) (A) (A) (A) (A) (A) (A) (A) (A) (A) (A) (A)
                 (A) (A) (A) (A) (A) (A) (A) (A) (A) (A) (A) (A)
                 (A) (A) (A) (A) (A) (A) (A) (A) (A) (A) (A) (A)
                 (A) (A) (A) (A) (A) (A) (A) (A) (A) (A) (A) (A)
                 (A) (A) (A) (A) (A) (A) (A) (A) (A) (A) (A) (A)
                 (A) (A) (A) (A) (A) (A) (A) (A) (A) (A) (A) (A)
                 (A) (A) (A) (A) (A)
 The electronic state is 1-A.
 Alpha  occ. eigenvalues --  -24.82243 -14.47646 -10.38542 -10.35774 -10.34925
 Alpha  occ. eigenvalues --  -10.31139 -10.30198 -10.30182 -10.30123 -10.30088
 Alpha  occ. eigenvalues --  -10.29985 -10.29861 -10.29656 -10.29274  -1.30150
 Alpha  occ. eigenvalues --   -1.04676  -0.96691  -0.94473  -0.85993  -0.85375
 Alpha  occ. eigenvalues --   -0.84564  -0.81680  -0.72704  -0.72442  -0.69957
 Alpha  occ. eigenvalues --   -0.68711  -0.64420  -0.63250  -0.59566  -0.58454
 Alpha  occ. eigenvalues --   -0.57885  -0.56212  -0.55480  -0.53787  -0.53024
 Alpha  occ. eigenvalues --   -0.52337  -0.51425  -0.49232  -0.48609  -0.46708
 Alpha  occ. eigenvalues --   -0.46327  -0.45045  -0.43704  -0.43010  -0.41048
 Alpha  occ. eigenvalues --   -0.34395  -0.33869  -0.33257  -0.27368
 Alpha virt. eigenvalues --    0.04653   0.05910   0.06268   0.09069   0.13591
 Alpha virt. eigenvalues --    0.14744   0.15064   0.18528   0.19692   0.20272
 Alpha virt. eigenvalues --    0.20539   0.22545   0.23199   0.23867   0.23916
 Alpha virt. eigenvalues --    0.24840   0.26508   0.29331   0.34107   0.34710
 Alpha virt. eigenvalues --    0.36611   0.37718   0.37954   0.38533   0.38846
 Alpha virt. eigenvalues --    0.39939   0.40539   0.43228   0.45255   0.46998
 Alpha virt. eigenvalues --    0.48817   0.49152   0.50063   0.51809   0.52552
 Alpha virt. eigenvalues --    0.54030   0.54116   0.55578   0.55919   0.57330
 Alpha virt. eigenvalues --    0.58162   0.58365   0.59861   0.60983   0.61652
 Alpha virt. eigenvalues --    0.62558   0.64115   0.64750   0.65692   0.67285
 Alpha virt. eigenvalues --    0.68825   0.69114   0.71317   0.71977   0.73641
 Alpha virt. eigenvalues --    0.73875   0.74958   0.75848   0.76340   0.76883
 Alpha virt. eigenvalues --    0.77979   0.78985   0.79958   0.80161   0.81025
 Alpha virt. eigenvalues --    0.82366   0.83263   0.83887   0.84064   0.85966
 Alpha virt. eigenvalues --    0.86783   0.88812   0.89920   0.91597   0.92273
 Alpha virt. eigenvalues --    0.93002   0.95678   0.96517   1.02331   1.02974
 Alpha virt. eigenvalues --    1.05283   1.09270   1.15379   1.17306   1.18957
 Alpha virt. eigenvalues --    1.21853   1.24393   1.26399   1.27598   1.29670
 Alpha virt. eigenvalues --    1.30565   1.31496   1.33085   1.34242   1.35364
 Alpha virt. eigenvalues --    1.36304   1.36829   1.38378   1.38678   1.40223
 Alpha virt. eigenvalues --    1.41607   1.44528   1.52700   1.56502   1.57813
 Alpha virt. eigenvalues --    1.58784   1.60637   1.68784   1.73331   1.75150
 Alpha virt. eigenvalues --    1.76381   1.77463   1.77709   1.79311   1.81052
 Alpha virt. eigenvalues --    1.81883   1.81966   1.83001   1.84635   1.85202
 Alpha virt. eigenvalues --    1.86135   1.86446   1.87839   1.88807   1.89302
 Alpha virt. eigenvalues --    1.90176   1.91596   1.91768   1.94979   1.95181
 Alpha virt. eigenvalues --    1.97009   2.00474   2.02784   2.04271   2.05336
 Alpha virt. eigenvalues --    2.06043   2.08361   2.10056   2.12459   2.14331
 Alpha virt. eigenvalues --    2.16929   2.19757   2.20383   2.21615   2.22672
 Alpha virt. eigenvalues --    2.23396   2.24168   2.26687   2.27185   2.28652
 Alpha virt. eigenvalues --    2.32387   2.33726   2.35211   2.36899   2.38154
 Alpha virt. eigenvalues --    2.39722   2.40886   2.41013   2.42821   2.45341
 Alpha virt. eigenvalues --    2.49110   2.50247   2.54159   2.58692   2.65315
 Alpha virt. eigenvalues --    2.67187   2.68779   2.70785   2.72055   2.73816
 Alpha virt. eigenvalues --    2.77181   2.77836   2.79841   2.83856   2.84540
 Alpha virt. eigenvalues --    2.84793   2.85627   2.91531   2.96782   2.98892
 Alpha virt. eigenvalues --    3.00555   3.04567   3.07106   3.13057   3.17194
 Alpha virt. eigenvalues --    3.18000   3.20178   3.21831   3.23568   3.28434
 Alpha virt. eigenvalues --    3.37335   3.39811   3.54534   3.64448   3.67859
 Alpha virt. eigenvalues --    3.80242   3.98456
          Condensed to atoms (all electrons):
               1          2          3          4          5          6
     1  F    8.974689   0.368446  -0.070592   0.005396  -0.000006  -0.000002
     2  C    0.368446   4.838004   0.208206   0.162979   0.006984   0.000227
     3  C   -0.070592   0.208206   5.529588   0.148022  -0.079704  -0.008948
     4  C    0.005396   0.162979   0.148022   5.116237   0.361601  -0.036838
     5  N   -0.000006   0.006984  -0.079704   0.361601   6.450784   0.348048
     6  C   -0.000002   0.000227  -0.008948  -0.036838   0.348048   5.086824
     7  C   -0.000010  -0.000338  -0.004283  -0.012032  -0.077091   0.248055
     8  C    0.000000   0.000002  -0.000617   0.000327   0.007217   0.116575
     9  C    0.000000   0.000000  -0.000050   0.000050  -0.000304  -0.161726
    10  C    0.000000   0.000000   0.000065  -0.000302   0.007668   0.114265
    11  C    0.000000   0.000000  -0.000049   0.007614  -0.083764   0.274067
    12  C   -0.000319  -0.162200   0.069280   0.247762  -0.084290   0.007500
    13  C    0.005090   0.136050  -0.140222   0.129362   0.008442  -0.000320
    14  C   -0.064593   0.239713   0.025837  -0.157820  -0.000698   0.000037
    15  H    0.002250  -0.055575   0.438296  -0.066627  -0.011761   0.003519
    16  H    0.000001  -0.000061   0.008537  -0.020145   0.363278  -0.019618
    17  H    0.000068   0.000890  -0.000072   0.004223  -0.011042  -0.074056
    18  H   -0.000000  -0.000002   0.000048  -0.000020  -0.000113   0.015260
    19  H   -0.000000  -0.000000   0.000000   0.000000   0.000009  -0.001640
    20  H   -0.000000  -0.000000  -0.000000   0.000005  -0.000117   0.015221
    21  H   -0.000000   0.000000  -0.000004  -0.000046  -0.010081  -0.080231
    22  H    0.000003  -0.002464   0.017782  -0.079705  -0.010010  -0.000039
    23  H   -0.000048   0.013365  -0.002705   0.015371  -0.000117   0.000004
    24  H    0.001095  -0.062913   0.019358  -0.002397   0.000008   0.000000
               7          8          9         10         11         12
     1  F   -0.000010   0.000000   0.000000   0.000000   0.000000  -0.000319
     2  C   -0.000338   0.000002   0.000000   0.000000   0.000000  -0.162200
     3  C   -0.004283  -0.000617  -0.000050   0.000065  -0.000049   0.069280
     4  C   -0.012032   0.000327   0.000050  -0.000302   0.007614   0.247762
     5  N   -0.077091   0.007217  -0.000304   0.007668  -0.083764  -0.084290
     6  C    0.248055   0.116575  -0.161726   0.114265   0.274067   0.007500
     7  C    5.199858   0.294126   0.080239  -0.145503   0.057815  -0.000110
     8  C    0.294126   5.018474   0.287721   0.094914  -0.145870   0.000002
     9  C    0.080239   0.287721   5.098207   0.288625   0.080596   0.000000
    10  C   -0.145503   0.094914   0.288625   5.017581   0.296948  -0.000007
    11  C    0.057815  -0.145870   0.080596   0.296948   5.171730  -0.000100
    12  C   -0.000110   0.000002   0.000000  -0.000007  -0.000100   5.221678
    13  C    0.000085   0.000000  -0.000000   0.000000  -0.000007   0.264074
    14  C   -0.000086   0.000002  -0.000000   0.000000   0.000000   0.095200
    15  H    0.002165   0.001226  -0.000148   0.000051  -0.000649   0.015218
    16  H    0.008346  -0.000132  -0.000040   0.000437  -0.016374  -0.017005
    17  H    0.460587  -0.062650   0.014601  -0.002289   0.014932  -0.000596
    18  H   -0.067580   0.453963  -0.071286   0.014125  -0.001933   0.000000
    19  H    0.014990  -0.069403   0.453439  -0.070306   0.014627   0.000000
    20  H   -0.001916   0.013952  -0.069275   0.451473  -0.067113  -0.000000
    21  H    0.017024  -0.002548   0.015213  -0.061189   0.451229  -0.000022
    22  H   -0.000005   0.000000   0.000000  -0.000001  -0.000020   0.453515
    23  H   -0.000000  -0.000000   0.000000   0.000000  -0.000000  -0.066803
    24  H    0.000001  -0.000000   0.000000  -0.000000   0.000000   0.014630
              13         14         15         16         17         18
     1  F    0.005090  -0.064593   0.002250   0.000001   0.000068  -0.000000
     2  C    0.136050   0.239713  -0.055575  -0.000061   0.000890  -0.000002
     3  C   -0.140222   0.025837   0.438296   0.008537  -0.000072   0.000048
     4  C    0.129362  -0.157820  -0.066627  -0.020145   0.004223  -0.000020
     5  N    0.008442  -0.000698  -0.011761   0.363278  -0.011042  -0.000113
     6  C   -0.000320   0.000037   0.003519  -0.019618  -0.074056   0.015260
     7  C    0.000085  -0.000086   0.002165   0.008346   0.460587  -0.067580
     8  C    0.000000   0.000002   0.001226  -0.000132  -0.062650   0.453963
     9  C   -0.000000  -0.000000  -0.000148  -0.000040   0.014601  -0.071286
    10  C    0.000000   0.000000   0.000051   0.000437  -0.002289   0.014125
    11  C   -0.000007   0.000000  -0.000649  -0.016374   0.014932  -0.001933
    12  C    0.264074   0.095200   0.015218  -0.017005  -0.000596   0.000000
    13  C    5.060960   0.207999  -0.003002   0.000416   0.000070  -0.000000
    14  C    0.207999   5.347413   0.018890  -0.000010  -0.000161   0.000000
    15  H   -0.003002   0.018890   0.637697  -0.000060  -0.003902   0.000058
    16  H    0.000416  -0.000010  -0.000060   0.543011  -0.000209   0.000010
    17  H    0.000070  -0.000161  -0.003902  -0.000209   0.656172  -0.012923
    18  H   -0.000000   0.000000   0.000058   0.000010  -0.012923   0.668490
    19  H   -0.000000   0.000000  -0.000001  -0.000001  -0.000230  -0.012293
    20  H    0.000000   0.000000  -0.000001  -0.000016   0.000021  -0.000263
    21  H   -0.000001   0.000000  -0.000016   0.005408  -0.000198   0.000025
    22  H   -0.062520   0.015356  -0.000162   0.005221  -0.000018  -0.000000
    23  H    0.454014  -0.066429   0.000020  -0.000009  -0.000001   0.000000
    24  H   -0.066929   0.438654  -0.000358  -0.000001  -0.000002   0.000000
              19         20         21         22         23         24
     1  F   -0.000000  -0.000000  -0.000000   0.000003  -0.000048   0.001095
     2  C   -0.000000  -0.000000   0.000000  -0.002464   0.013365  -0.062913
     3  C    0.000000  -0.000000  -0.000004   0.017782  -0.002705   0.019358
     4  C    0.000000   0.000005  -0.000046  -0.079705   0.015371  -0.002397
     5  N    0.000009  -0.000117  -0.010081  -0.010010  -0.000117   0.000008
     6  C   -0.001640   0.015221  -0.080231  -0.000039   0.000004   0.000000
     7  C    0.014990  -0.001916   0.017024  -0.000005  -0.000000   0.000001
     8  C   -0.069403   0.013952  -0.002548   0.000000  -0.000000  -0.000000
     9  C    0.453439  -0.069275   0.015213   0.000000   0.000000   0.000000
    10  C   -0.070306   0.451473  -0.061189  -0.000001   0.000000  -0.000000
    11  C    0.014627  -0.067113   0.451229  -0.000020  -0.000000   0.000000
    12  C    0.000000  -0.000000  -0.000022   0.453515  -0.066803   0.014630
    13  C   -0.000000   0.000000  -0.000001  -0.062520   0.454014  -0.066929
    14  C    0.000000   0.000000   0.000000   0.015356  -0.066429   0.438654
    15  H   -0.000001  -0.000001  -0.000016  -0.000162   0.000020  -0.000358
    16  H   -0.000001  -0.000016   0.005408   0.005221  -0.000009  -0.000001
    17  H   -0.000230   0.000021  -0.000198  -0.000018  -0.000001  -0.000002
    18  H   -0.012293  -0.000263   0.000025  -0.000000   0.000000   0.000000
    19  H    0.673893  -0.012363  -0.000238   0.000000   0.000000   0.000000
    20  H   -0.012363   0.670119  -0.013215   0.000000  -0.000000   0.000000
    21  H   -0.000238  -0.013215   0.690906  -0.000016   0.000000   0.000000
    22  H    0.000000   0.000000  -0.000016   0.686551  -0.012829  -0.000191
    23  H    0.000000  -0.000000   0.000000  -0.012829   0.657907  -0.012864
    24  H    0.000000   0.000000   0.000000  -0.000191  -0.012864   0.654012
 Mulliken charges:
               1
     1  F   -0.221468
     2  C    0.308685
     3  C   -0.157772
     4  C    0.176983
     5  N   -0.184942
     6  C    0.153815
     7  C   -0.074335
     8  C   -0.007282
     9  C   -0.015864
    10  C   -0.006554
    11  C   -0.053679
    12  C   -0.057407
    13  C    0.006438
    14  C   -0.099304
    15  H    0.022872
    16  H    0.139016
    17  H    0.016785
    18  H    0.014432
    19  H    0.009517
    20  H    0.013488
    21  H   -0.012000
    22  H   -0.010447
    23  H    0.021126
    24  H    0.017896
 Sum of Mulliken charges =  -0.00000
 Mulliken charges with hydrogens summed into heavy atoms:
               1
     1  F   -0.221468
     2  C    0.308685
     3  C   -0.134900
     4  C    0.176983
     5  N   -0.045926
     6  C    0.153815
     7  C   -0.057550
     8  C    0.007151
     9  C   -0.006347
    10  C    0.006934
    11  C   -0.065679
    12  C   -0.067854
    13  C    0.027565
    14  C   -0.081408
 Electronic spatial extent (au):  <R**2>=           3330.9628
 Charge=             -0.0000 electrons
 Dipole moment (field-independent basis, Debye):
    X=              0.6970    Y=             -2.2687    Z=              0.2181  Tot=              2.3834
 Quadrupole moment (field-independent basis, Debye-Ang):
   XX=            -75.0425   YY=            -74.7930   ZZ=            -83.7271
   XY=              4.5224   XZ=             -3.3761   YZ=              2.8760
 Traceless Quadrupole moment (field-independent basis, Debye-Ang):
   XX=              2.8117   YY=              3.0612   ZZ=             -5.8729
   XY=              4.5224   XZ=             -3.3761   YZ=              2.8760
 Octapole moment (field-independent basis, Debye-Ang**2):
  XXX=            -17.4140  YYY=             -9.7625  ZZZ=             -5.6251  XYY=              5.4244
  XXY=             -5.9897  XXZ=             -1.2074  XZZ=             -5.6573  YZZ=              6.8951
  YYZ=              2.7733  XYZ=              9.8437
 Hexadecapole moment (field-independent basis, Debye-Ang**3):
 XXXX=          -3214.6194 YYYY=           -697.3551 ZZZZ=           -195.3652 XXXY=             16.3136
 XXXZ=            -63.0021 YYYX=            -11.5987 YYYZ=              5.3236 ZZZX=             12.9159
 ZZZY=             -5.3156 XXYY=           -696.5943 XXZZ=           -647.5342 YYZZ=           -151.8803
 XXYZ=             19.3443 YYXZ=             -7.5305 ZZXY=            -19.9069
 N-N= 7.977527321153D+02 E-N=-3.031423787374D+03  KE= 6.113245839428D+02
   1 Symmetry operations used in ECPInt.
 ECPInt:  NShTT=    6555 NPrTT=   24083 LenC2=    6166 LenP2D=   16642.
 LDataN:  DoStor=T MaxTD1= 5 Len=  102
 Calling FoFJK, ICntrl=      2127 FMM=F ISym2X=0 I1Cent= 0 IOpClX= 0 NMat=1 NMatS=1 NMatT=0.
 ***** Axes restored to original set *****
 -------------------------------------------------------------------
 Center     Atomic                   Forces (Hartrees/Bohr)
 Number     Number              X              Y              Z
 -------------------------------------------------------------------
      1        9          -0.005681688   -0.021753960   -0.003838235
      2        6           0.003783381    0.005209089   -0.000589975
      3        6          -0.004367320    0.010326495    0.004974959
      4        6          -0.019199599   -0.004773238    0.002355266
      5        7           0.003423312    0.003665075   -0.000558493
      6        6           0.016888357   -0.007842958   -0.000065438
      7        6           0.006488049   -0.003711803   -0.001764974
      8        6          -0.002609756    0.000688300    0.001295522
      9        6          -0.006851131    0.004570701   -0.000089689
     10        6          -0.002266437    0.000630286   -0.001652882
     11        6           0.008448465   -0.003548760    0.001241028
     12        6          -0.008165225   -0.004197423   -0.000975972
     13        6          -0.002250582    0.002434761    0.002784463
     14        6           0.011955836    0.013943343    0.001350298
     15        1          -0.008224169    0.008887476    0.003566186
     16        1           0.001149435    0.005989603   -0.001199999
     17        1           0.008053154    0.004638582   -0.005524473
     18        1           0.000542093    0.008634797   -0.005810246
     19        1          -0.008866364    0.005480391   -0.000497568
     20        1          -0.008317564   -0.004231039    0.004699148
     21        1          -0.000279150   -0.010649689    0.006949774
     22        1          -0.002341446   -0.011769558   -0.002975690
     23        1           0.007305104   -0.006153543   -0.002436915
     24        1           0.011383245    0.003533072   -0.001236095
 -------------------------------------------------------------------
 Cartesian Forces:  Max     0.021753960 RMS     0.006822495

 GradGradGradGradGradGradGradGradGradGradGradGradGradGradGradGradGradGrad
 Berny optimization.
 FormGI is forming the generalized inverse of G from B-inverse, IUseBI=4.
 Internal  Forces:  Max     0.022798471 RMS     0.006322410
 Search for a local minimum.
 Step number   1 out of a maximum of  130
 All quantities printed in internal units (Hartrees-Bohrs-Radians)
 Mixed Optimization -- RFO/linear search
 Second derivative matrix not updated -- first step.
 ITU=  0
     Eigenvalues ---    0.01524   0.01527   0.01530   0.01977   0.01986
     Eigenvalues ---    0.02193   0.02202   0.02271   0.02273   0.02291
     Eigenvalues ---    0.02294   0.02321   0.02325   0.02340   0.02341
     Eigenvalues ---    0.02342   0.02356   0.02358   0.02373   0.02377
     Eigenvalues ---    0.02380   0.15985   0.15989   0.15999   0.15999
     Eigenvalues ---    0.16000   0.16000   0.16000   0.16000   0.16000
     Eigenvalues ---    0.16000   0.21999   0.21999   0.22000   0.22000
     Eigenvalues ---    0.23458   0.23464   0.23488   0.24983   0.24984
     Eigenvalues ---    0.25000   0.36279   0.36280   0.36285   0.36287
     Eigenvalues ---    0.36489   0.36508   0.36545   0.36552   0.36838
     Eigenvalues ---    0.43128   0.43211   0.43581   0.43650   0.43834
     Eigenvalues ---    0.43942   0.44801   0.47374   0.47415   0.47911
     Eigenvalues ---    0.47991   0.48985   0.49140   0.49607   0.49797
     Eigenvalues ---    0.53336
 RFO step:  Lambda=-1.26457671D-02 EMin= 1.52395477D-02
 Linear search not attempted -- first point.
 Iteration  1 RMS(Cart)=  0.08435643 RMS(Int)=  0.00134008
 Iteration  2 RMS(Cart)=  0.00274529 RMS(Int)=  0.00009642
 Iteration  3 RMS(Cart)=  0.00000475 RMS(Int)=  0.00009641
 Iteration  4 RMS(Cart)=  0.00000000 RMS(Int)=  0.00009641
 Variable       Old X    -DE/DX   Delta X   Delta X   Delta X     New X
                                 (Linear)    (Quad)   (Total)
    R1        2.56641  -0.02280   0.00000  -0.04175  -0.04175   2.52465
    R2        2.60536   0.00824   0.00000   0.01593   0.01602   2.62138
    R3        2.61547   0.00482   0.00000   0.00959   0.00969   2.62516
    R4        2.63154   0.00988   0.00000   0.02027   0.02026   2.65180
    R5        2.02791   0.01259   0.00000   0.03304   0.03304   2.06095
    R6        2.66875  -0.01654   0.00000  -0.03682  -0.03682   2.63193
    R7        2.63440   0.01020   0.00000   0.02143   0.02132   2.65572
    R8        2.66959  -0.01222   0.00000  -0.02725  -0.02725   2.64234
    R9        1.92207  -0.00620   0.00000  -0.01346  -0.01346   1.90861
   R10        2.63443   0.01057   0.00000   0.02172   0.02172   2.65615
   R11        2.63499   0.00860   0.00000   0.01749   0.01748   2.65247
   R12        2.60065   0.01662   0.00000   0.03267   0.03267   2.63332
   R13        2.03227   0.01071   0.00000   0.02831   0.02831   2.06058
   R14        2.60963   0.01372   0.00000   0.02781   0.02782   2.63745
   R15        2.03648   0.01038   0.00000   0.02765   0.02765   2.06413
   R16        2.60969   0.01329   0.00000   0.02682   0.02683   2.63652
   R17        2.03635   0.01043   0.00000   0.02779   0.02779   2.06414
   R18        2.60076   0.01589   0.00000   0.03098   0.03098   2.63174
   R19        2.03646   0.01042   0.00000   0.02775   0.02775   2.06421
   R20        2.03323   0.01269   0.00000   0.03362   0.03362   2.06685
   R21        2.60063   0.01627   0.00000   0.03220   0.03210   2.63273
   R22        2.03294   0.01233   0.00000   0.03265   0.03265   2.06560
   R23        2.60775   0.01215   0.00000   0.02435   0.02436   2.63211
   R24        2.03638   0.00985   0.00000   0.02624   0.02624   2.06262
   R25        2.03237   0.01197   0.00000   0.03165   0.03165   2.06402
    A1        2.09752  -0.00805   0.00000  -0.03082  -0.03094   2.06658
    A2        2.10276  -0.00675   0.00000  -0.02586  -0.02598   2.07678
    A3        2.08291   0.01479   0.00000   0.05665   0.05682   2.13973
    A4        2.11611  -0.00801   0.00000  -0.03424  -0.03415   2.08196
    A5        2.06963   0.00312   0.00000   0.01210   0.01205   2.08168
    A6        2.09655   0.00489   0.00000   0.02235   0.02231   2.11886
    A7        2.12120   0.00436   0.00000   0.01599   0.01600   2.13721
    A8        2.06548   0.00200   0.00000   0.00852   0.00838   2.07386
    A9        2.09595  -0.00638   0.00000  -0.02494  -0.02490   2.07105
   A10        2.23586   0.00583   0.00000   0.02506   0.02506   2.26092
   A11        2.02329  -0.00333   0.00000  -0.01492  -0.01492   2.00837
   A12        2.02400  -0.00251   0.00000  -0.01018  -0.01018   2.01381
   A13        2.12346   0.00574   0.00000   0.02245   0.02241   2.14588
   A14        2.09331  -0.00766   0.00000  -0.02856  -0.02857   2.06474
   A15        2.06589   0.00190   0.00000   0.00565   0.00559   2.07148
   A16        2.10716  -0.00194   0.00000  -0.00863  -0.00863   2.09853
   A17        2.07905   0.00251   0.00000   0.01331   0.01331   2.09237
   A18        2.09636  -0.00057   0.00000  -0.00458  -0.00458   2.09178
   A19        2.09676   0.00243   0.00000   0.01187   0.01187   2.10863
   A20        2.09323  -0.00209   0.00000  -0.01104  -0.01106   2.08217
   A21        2.09318  -0.00034   0.00000  -0.00088  -0.00089   2.09229
   A22        2.09263  -0.00374   0.00000  -0.01419  -0.01419   2.07844
   A23        2.09524   0.00197   0.00000   0.00763   0.00762   2.10286
   A24        2.09530   0.00178   0.00000   0.00654   0.00654   2.10184
   A25        2.09672   0.00151   0.00000   0.00708   0.00706   2.10378
   A26        2.09311   0.00003   0.00000   0.00103   0.00102   2.09413
   A27        2.09336  -0.00155   0.00000  -0.00812  -0.00813   2.08523
   A28        2.10700  -0.00016   0.00000  -0.00184  -0.00187   2.10513
   A29        2.07549   0.00078   0.00000   0.00502   0.00503   2.08052
   A30        2.10063  -0.00062   0.00000  -0.00313  -0.00312   2.09751
   A31        2.10457  -0.00118   0.00000  -0.00264  -0.00286   2.10171
   A32        2.07684   0.00129   0.00000   0.00536   0.00546   2.08230
   A33        2.10172  -0.00010   0.00000  -0.00267  -0.00257   2.09915
   A34        2.09757   0.00281   0.00000   0.01477   0.01465   2.11221
   A35        2.09377  -0.00108   0.00000  -0.00552  -0.00549   2.08828
   A36        2.09185  -0.00173   0.00000  -0.00926  -0.00923   2.08262
   A37        2.09953  -0.01041   0.00000  -0.04310  -0.04300   2.05653
   A38        2.07109   0.00566   0.00000   0.02417   0.02412   2.09521
   A39        2.11254   0.00475   0.00000   0.01892   0.01887   2.13141
    D1        3.13789   0.00009   0.00000   0.00197   0.00203   3.13992
    D2       -0.04885   0.00028   0.00000   0.00805   0.00797  -0.04088
    D3       -0.00528  -0.00040   0.00000  -0.01159  -0.01161  -0.01690
    D4        3.09116  -0.00020   0.00000  -0.00551  -0.00568   3.08548
    D5        3.13179  -0.00041   0.00000  -0.01201  -0.01201   3.11978
    D6       -0.00262  -0.00041   0.00000  -0.01135  -0.01137  -0.01399
    D7       -0.00822   0.00008   0.00000   0.00160   0.00171  -0.00650
    D8        3.14056   0.00008   0.00000   0.00225   0.00235  -3.14027
    D9        3.12526  -0.00031   0.00000  -0.00631  -0.00666   3.11860
   D10        0.01947   0.00029   0.00000   0.00817   0.00802   0.02749
   D11        0.02951  -0.00046   0.00000  -0.01219  -0.01242   0.01709
   D12       -3.07628   0.00014   0.00000   0.00229   0.00226  -3.07402
   D13        0.42290   0.00123   0.00000   0.04332   0.04330   0.46620
   D14       -2.70864   0.00137   0.00000   0.04817   0.04815  -2.66050
   D15       -2.75511   0.00080   0.00000   0.02929   0.02932  -2.72580
   D16        0.39653   0.00093   0.00000   0.03414   0.03416   0.43069
   D17       -0.02060   0.00020   0.00000   0.00538   0.00519  -0.01541
   D18        3.13192   0.00006   0.00000   0.00139   0.00130   3.13321
   D19       -3.12692   0.00056   0.00000   0.01879   0.01846  -3.10846
   D20        0.02559   0.00042   0.00000   0.01480   0.01457   0.04017
   D21        0.44620   0.00166   0.00000   0.05868   0.05867   0.50487
   D22       -2.73092   0.00118   0.00000   0.04317   0.04319  -2.68773
   D23       -2.70545   0.00152   0.00000   0.05381   0.05379  -2.65166
   D24        0.40062   0.00105   0.00000   0.03830   0.03831   0.43893
   D25        3.12627  -0.00036   0.00000  -0.00747  -0.00774   3.11853
   D26        0.02205  -0.00042   0.00000  -0.01067  -0.01089   0.01117
   D27        0.01966   0.00030   0.00000   0.00848   0.00847   0.02812
   D28       -3.08456   0.00024   0.00000   0.00529   0.00532  -3.07924
   D29       -3.12839   0.00053   0.00000   0.01862   0.01836  -3.11003
   D30        0.02506   0.00038   0.00000   0.01405   0.01383   0.03889
   D31       -0.02116   0.00016   0.00000   0.00399   0.00394  -0.01722
   D32        3.13230   0.00001   0.00000  -0.00058  -0.00060   3.13170
   D33       -0.00575  -0.00037   0.00000  -0.01031  -0.01032  -0.01607
   D34        3.14117  -0.00002   0.00000  -0.00079  -0.00079   3.14038
   D35        3.09810  -0.00024   0.00000  -0.00670  -0.00680   3.09130
   D36       -0.03817   0.00011   0.00000   0.00282   0.00274  -0.03543
   D37       -0.00714   0.00002   0.00000  -0.00029  -0.00024  -0.00738
   D38        3.14003   0.00015   0.00000   0.00386   0.00389  -3.13926
   D39        3.12912  -0.00034   0.00000  -0.00983  -0.00986   3.11926
   D40       -0.00689  -0.00021   0.00000  -0.00569  -0.00574  -0.01262
   D41        0.00565   0.00046   0.00000   0.01275   0.01277   0.01841
   D42       -3.13616   0.00007   0.00000   0.00271   0.00263  -3.13353
   D43       -3.14153   0.00033   0.00000   0.00861   0.00865  -3.13288
   D44       -0.00015  -0.00006   0.00000  -0.00143  -0.00149  -0.00164
   D45        0.00875  -0.00057   0.00000  -0.01471  -0.01479  -0.00604
   D46        3.13831  -0.00041   0.00000  -0.01002  -0.01016   3.12815
   D47       -3.13263  -0.00018   0.00000  -0.00467  -0.00471  -3.13734
   D48       -0.00307  -0.00002   0.00000   0.00002  -0.00008  -0.00315
   D49        0.00766  -0.00063   0.00000  -0.01577  -0.01588  -0.00822
   D50       -3.13357  -0.00016   0.00000  -0.00345  -0.00342  -3.13699
   D51        3.13818  -0.00048   0.00000  -0.01167  -0.01190   3.12628
   D52       -0.00306  -0.00001   0.00000   0.00065   0.00056  -0.00250
   D53        0.00704   0.00042   0.00000   0.01195   0.01202   0.01906
   D54        3.14127   0.00041   0.00000   0.01129   0.01138  -3.13053
   D55       -3.13491  -0.00005   0.00000  -0.00036  -0.00040  -3.13531
   D56       -0.00068  -0.00006   0.00000  -0.00102  -0.00104  -0.00171
         Item               Value     Threshold  Converged?
 Maximum Force            0.022798     0.000450     NO 
 RMS     Force            0.006322     0.000300     NO 
 Maximum Displacement     0.257818     0.001800     NO 
 RMS     Displacement     0.085676     0.001200     NO 
 Predicted change in Energy=-6.658292D-03
 GradGradGradGradGradGradGradGradGradGradGradGradGradGradGradGradGradGrad

                          Input orientation:                          
 ---------------------------------------------------------------------
 Center     Atomic      Atomic             Coordinates (Angstroms)
 Number     Number       Type             X           Y           Z
 ---------------------------------------------------------------------
      1          9           0        2.977883    2.094068    0.572319
      2          6           0        2.626129    0.843669    0.259846
      3          6           0        1.286496    0.493993    0.345695
      4          6           0        0.896177   -0.813922    0.019830
      5          7           0       -0.425768   -1.243333    0.108394
      6          6           0       -1.609738   -0.505965    0.010146
      7          6           0       -1.716872    0.670170   -0.752003
      8          6           0       -2.932891    1.345938   -0.832396
      9          6           0       -4.065459    0.860204   -0.177211
     10          6           0       -3.969327   -0.322162    0.557166
     11          6           0       -2.755538   -0.997981    0.654535
     12          6           0        1.883010   -1.742475   -0.352937
     13          6           0        3.221908   -1.362355   -0.414691
     14          6           0        3.612163   -0.058210   -0.119835
     15          1           0        0.564743    1.230716    0.700292
     16          1           0       -0.544152   -2.231503    0.280430
     17          1           0       -0.853921    1.037698   -1.308095
     18          1           0       -2.998591    2.259114   -1.428123
     19          1           0       -5.016479    1.393106   -0.245664
     20          1           0       -4.848387   -0.719591    1.069508
     21          1           0       -2.683905   -1.917665    1.242152
     22          1           0        1.588679   -2.765589   -0.600728
     23          1           0        3.977475   -2.092649   -0.709888
     24          1           0        4.655144    0.261806   -0.172322
 ---------------------------------------------------------------------
                    Distance matrix (angstroms):
                    1          2          3          4          5
     1  F    0.000000
     2  C    1.335989   0.000000
     3  C    2.339313   1.387176   0.000000
     4  C    3.618722   2.407893   1.403274   0.000000
     5  N    4.789395   3.700350   2.450808   1.392758   0.000000
     6  C    5.303063   4.452688   3.082318   2.524785   1.398267
     7  C    5.081539   4.462690   3.202531   3.102625   2.463479
     8  C    6.121288   5.687528   4.462840   4.478062   3.724926
     9  C    7.189776   6.705866   5.389895   5.240167   4.213525
    10  C    7.355414   6.704297   5.323017   4.919724   3.688734
    11  C    6.514571   5.701735   4.319653   3.711030   2.405472
    12  C    4.095596   2.759686   2.417788   1.405349   2.406745
    13  C    3.602859   2.382539   2.787478   2.428706   3.686913
    14  C    2.348124   1.389174   2.435235   2.822621   4.214438
    15  H    2.566125   2.143154   1.090609   2.180234   2.729904
    16  H    5.585739   4.416761   3.283878   2.037644   1.009995
    17  H    4.397112   3.821889   2.758989   2.873102   2.718981
    18  H    6.304542   6.040712   4.962264   5.168107   4.609495
    19  H    8.066614   7.678989   6.394185   6.316720   5.305732
    20  H    8.331528   7.679044   6.295513   5.840439   4.556051
    21  H    6.971264   6.065175   4.731154   3.940724   2.615208
    22  H    5.188660   3.852744   3.407624   2.161864   2.622616
    23  H    4.491307   3.374683   3.878961   3.414972   4.558451
    24  H    2.593238   2.154585   3.416144   3.914581   5.306591
                    6          7          8          9         10
     6  C    0.000000
     7  C    1.405576   0.000000
     8  C    2.426964   1.393494   0.000000
     9  C    2.816396   2.425357   1.395677   0.000000
    10  C    2.429130   2.787867   2.405751   1.395185   0.000000
    11  C    1.403628   2.416589   2.781433   2.420856   1.392658
    12  C    3.722912   4.351926   5.741173   6.495313   6.090600
    13  C    4.925312   5.351307   6.737275   7.622459   7.330782
    14  C    5.242674   5.415606   6.731798   7.732571   7.616232
    15  H    2.867182   2.762090   3.820452   4.727162   4.794758
    16  H    2.045973   3.295587   4.443257   4.708257   3.931156
    17  H    2.166083   1.090412   2.154859   3.409454   3.877392
    18  H    3.412213   2.150508   1.092291   2.158689   3.398042
    19  H    3.908682   3.415614   2.165137   1.092296   2.164072
    20  H    3.414195   3.880171   3.398937   2.159407   1.092333
    21  H    2.159761   3.407154   3.875157   3.411720   2.160357
    22  H    3.963450   4.770115   6.115793   6.730157   6.180815
    23  H    5.852604   6.329339   7.719589   8.584397   8.239643
    24  H    6.314390   6.411348   7.693459   8.741111   8.674945
                   11         12         13         14         15
    11  C    0.000000
    12  C    4.804726   0.000000
    13  C    6.083245   1.393181   0.000000
    14  C    6.483088   2.425089   1.392851   0.000000
    15  H    3.999181   3.418622   3.876561   3.408915   0.000000
    16  H    2.559640   2.555663   3.927062   4.707267   3.659629
    17  H    3.407646   4.016525   4.813606   4.749619   2.466471
    18  H    3.873656   6.403028   7.268886   7.126267   4.276109
    19  H    3.411673   7.579335   8.688622   8.750749   5.663148
    20  H    2.151679   6.955669   8.230775   8.569298   5.765587
    21  H    1.093729   4.840631   6.158906   6.704704   4.556274
    22  H    4.855135   1.093067   2.161276   3.414037   4.325685
    23  H    6.956537   2.153328   1.091491   2.149548   4.967907
    24  H    7.562338   3.425564   2.179634   1.092234   4.293206
                   16         17         18         19         20
    16  H    0.000000
    17  H    3.647881   0.000000
    18  H    5.395282   2.471007   0.000000
    19  H    5.780681   4.310680   2.494003   0.000000
    20  H    4.629790   4.969589   4.304950   2.494278   0.000000
    21  H    2.366843   4.311237   4.967381   4.314591   2.479953
    22  H    2.368682   4.575112   6.853851   7.813381   6.957845
    23  H    4.630888   5.787859   8.253436   9.656977   9.107545
    24  H    5.783965   5.678185   8.009116   9.737839   9.634437
                   21         22         23         24
    21  H    0.000000
    22  H    4.729710   0.000000
    23  H    6.943707   2.484173   0.000000
    24  H    7.785401   4.330342   2.508320   0.000000
 Stoichiometry    C12H10FN
 Framework group  C1[X(C12H10FN)]
 Deg. of freedom    66
 Full point group                 C1      NOp   1
 Largest Abelian subgroup         C1      NOp   1
 Largest concise Abelian subgroup C1      NOp   1
                         Standard orientation:                         
 ---------------------------------------------------------------------
 Center     Atomic      Atomic             Coordinates (Angstroms)
 Number     Number       Type             X           Y           Z
 ---------------------------------------------------------------------
      1          9           0       -2.968427    2.184984   -0.578680
      2          6           0       -2.642918    0.930102   -0.255907
      3          6           0       -1.311836    0.549908   -0.344973
      4          6           0       -0.948979   -0.763203   -0.008444
      5          7           0        0.362635   -1.222741   -0.099370
      6          6           0        1.563171   -0.510993   -0.014059
      7          6           0        1.700299    0.669674    0.736186
      8          6           0        2.931416    1.318956    0.804078
      9          6           0        4.049543    0.801928    0.148040
     10          6           0        3.923420   -0.384947   -0.574428
     11          6           0        2.694443   -1.034492   -0.659307
     12          6           0       -1.954255   -1.665980    0.378103
     13          6           0       -3.284051   -1.255597    0.442779
     14          6           0       -3.646767    0.054040    0.137294
     15          1           0       -0.575736    1.266982   -0.710199
     16          1           0        0.458170   -2.214893   -0.262456
     17          1           0        0.848584    1.061588    1.292949
     18          1           0        3.020428    2.236078    1.390648
     19          1           0        5.012498    1.314169    0.206675
     20          1           0        4.790799   -0.806696   -1.087236
     21          1           0        2.599397   -1.957910   -1.237674
     22          1           0       -1.681440   -2.692983    0.634290
     23          1           0       -4.054118   -1.966056    0.748714
     24          1           0       -4.682104    0.397665    0.191826
 ---------------------------------------------------------------------
 Rotational constants (GHZ):           1.6245655           0.3592197           0.3102436
 Standard basis: def2SVP (5D, 7F)
 There are   260 symmetry adapted cartesian basis functions of A   symmetry.
 There are   246 symmetry adapted basis functions of A   symmetry.
   246 basis functions,   420 primitive gaussians,   260 cartesian basis functions
    49 alpha electrons       49 beta electrons
       nuclear repulsion energy       792.9627516851 Hartrees.
 NAtoms=   24 NActive=   24 NUniq=   24 SFac= 1.00D+00 NAtFMM=   60 NAOKFM=F Big=F
 Integral buffers will be    131072 words long.
 Raffenetti 2 integral format.
 Two-electron integral symmetry is turned on.
 Nuclear repulsion after empirical dispersion term =      792.9490040000 Hartrees.
 One-electron integrals computed using PRISM.
   1 Symmetry operations used in ECPInt.
 ECPInt:  NShTT=    6555 NPrTT=   24083 LenC2=    6143 LenP2D=   16564.
 LDataN:  DoStor=T MaxTD1= 4 Len=   56
 NBasis=   246 RedAO= T EigKep=  2.58D-04  NBF=   246
 NBsUse=   246 1.00D-06 EigRej= -1.00D+00 NBFU=   246
 Initial guess from the checkpoint file:  "prod_3c_1.chk"
 B after Tr=     0.000000   -0.000000   -0.000000
         Rot=    0.999995   -0.000626   -0.003163   -0.000654 Ang=  -0.38 deg.
 ExpMin= 1.22D-01 ExpMax= 2.89D+03 ExpMxC= 4.35D+02 IAcc=3 IRadAn=         5 AccDes= 0.00D+00
 Harris functional with IExCor= 4639 and IRadAn=       5 diagonalized for initial guess.
 HarFok:  IExCor= 4639 AccDes= 0.00D+00 IRadAn=         5 IDoV= 1 UseB2=F ITyADJ=14
 ICtDFT=  3500011 ScaDFX=  1.000000  1.000000  1.000000  1.000000
 FoFCou: FMM=F IPFlag=           0 FMFlag=      100000 FMFlg1=           0
         NFxFlg=           0 DoJE=T BraDBF=F KetDBF=T FulRan=T
         wScrn=  0.000000 ICntrl=       500 IOpCl=  0 I1Cent=   200000004 NGrid=           0
         NMat0=    1 NMatS0=      1 NMatT0=    0 NMatD0=    1 NMtDS0=    0 NMtDT0=    0
 Petite list used in FoFCou.
 Requested convergence on RMS density matrix=1.00D-08 within 128 cycles.
 Requested convergence on MAX density matrix=1.00D-06.
 Requested convergence on             energy=1.00D-06.
 No special actions if energy rises.
 Integral accuracy reduced to 1.0D-05 until final iterations.
 Initial convergence to 1.0D-05 achieved.  Increase integral accuracy.
 SCF Done:  E(RwB97XD) =  -617.245786600     A.U. after   13 cycles
            NFock= 13  Conv=0.80D-08     -V/T= 2.0104
   1 Symmetry operations used in ECPInt.
 ECPInt:  NShTT=    6555 NPrTT=   24083 LenC2=    6143 LenP2D=   16564.
 LDataN:  DoStor=T MaxTD1= 5 Len=  102
 Calling FoFJK, ICntrl=      2127 FMM=F ISym2X=0 I1Cent= 0 IOpClX= 0 NMat=1 NMatS=1 NMatT=0.
 ***** Axes restored to original set *****
 -------------------------------------------------------------------
 Center     Atomic                   Forces (Hartrees/Bohr)
 Number     Number              X              Y              Z
 -------------------------------------------------------------------
      1        9          -0.000775274   -0.001635777   -0.000331324
      2        6           0.000478353    0.000786810   -0.000079503
      3        6          -0.002369234    0.001115079    0.000306016
      4        6          -0.002035078   -0.000737468    0.000598422
      5        7           0.000976773    0.001697213   -0.000755712
      6        6           0.001255637   -0.000261542   -0.000191653
      7        6           0.000369418   -0.001197368    0.000570425
      8        6          -0.000416452   -0.001395778    0.001512724
      9        6           0.000538854   -0.000006878   -0.000278575
     10        6           0.000869404    0.000017684   -0.000697154
     11        6          -0.001472699    0.001287406    0.000401362
     12        6           0.002443472   -0.000174164   -0.000686301
     13        6          -0.002854188   -0.000521581    0.000541337
     14        6           0.002627340    0.000986927    0.000062129
     15        1           0.000136690    0.000236936   -0.001042819
     16        1          -0.000312226   -0.000590060   -0.000276082
     17        1           0.000899519    0.000579115    0.000599666
     18        1           0.000370182   -0.000052990   -0.000153128
     19        1           0.000543910   -0.000209759    0.000055674
     20        1           0.000130275   -0.000272958    0.000020683
     21        1          -0.000262485    0.000554827    0.000182766
     22        1           0.000413957    0.000496234   -0.000340568
     23        1          -0.000120478   -0.000587228   -0.000067089
     24        1          -0.001435670   -0.000114681    0.000048705
 -------------------------------------------------------------------
 Cartesian Forces:  Max     0.002854188 RMS     0.000946191

 GradGradGradGradGradGradGradGradGradGradGradGradGradGradGradGradGradGrad
 Berny optimization.
 Using GEDIIS/GDIIS optimizer.
 FormGI is forming the generalized inverse of G from B-inverse, IUseBI=4.
 Internal  Forces:  Max     0.005192779 RMS     0.001085552
 Search for a local minimum.
 Step number   2 out of a maximum of  130
 All quantities printed in internal units (Hartrees-Bohrs-Radians)
 Mixed Optimization -- RFO/linear search
 Update second derivatives using D2CorX and points    1    2
 DE= -5.93D-03 DEPred=-6.66D-03 R= 8.90D-01
 TightC=F SS=  1.41D+00  RLast= 2.30D-01 DXNew= 5.0454D-01 6.9051D-01
 Trust test= 8.90D-01 RLast= 2.30D-01 DXMaxT set to 5.05D-01
 ITU=  1  0
 Use linear search instead of GDIIS.
     Eigenvalues ---    0.01526   0.01527   0.01631   0.01984   0.02008
     Eigenvalues ---    0.02188   0.02198   0.02269   0.02272   0.02290
     Eigenvalues ---    0.02293   0.02322   0.02327   0.02341   0.02342
     Eigenvalues ---    0.02344   0.02358   0.02360   0.02373   0.02377
     Eigenvalues ---    0.02380   0.15944   0.15989   0.15995   0.15999
     Eigenvalues ---    0.15999   0.15999   0.15999   0.16000   0.16000
     Eigenvalues ---    0.16019   0.21254   0.21999   0.22000   0.22243
     Eigenvalues ---    0.23226   0.23468   0.23518   0.24967   0.24993
     Eigenvalues ---    0.26468   0.36053   0.36279   0.36283   0.36315
     Eigenvalues ---    0.36439   0.36499   0.36529   0.36774   0.37151
     Eigenvalues ---    0.42121   0.43218   0.43358   0.43613   0.43901
     Eigenvalues ---    0.44001   0.44851   0.47257   0.47387   0.47863
     Eigenvalues ---    0.48479   0.48877   0.49144   0.49681   0.51573
     Eigenvalues ---    0.52773
 RFO step:  Lambda=-9.12304532D-04 EMin= 1.52589727D-02
 Quartic linear search produced a step of -0.05005.
 Iteration  1 RMS(Cart)=  0.07049782 RMS(Int)=  0.00109067
 Iteration  2 RMS(Cart)=  0.00189046 RMS(Int)=  0.00003263
 Iteration  3 RMS(Cart)=  0.00000117 RMS(Int)=  0.00003262
 Iteration  4 RMS(Cart)=  0.00000000 RMS(Int)=  0.00003262
 Variable       Old X    -DE/DX   Delta X   Delta X   Delta X     New X
                                 (Linear)    (Quad)   (Total)
    R1        2.52465  -0.00181   0.00209  -0.00900  -0.00691   2.51774
    R2        2.62138  -0.00004  -0.00080   0.00226   0.00147   2.62285
    R3        2.62516   0.00024  -0.00049   0.00194   0.00146   2.62662
    R4        2.65180  -0.00030  -0.00101   0.00221   0.00120   2.65301
    R5        2.06095  -0.00027  -0.00165   0.00388   0.00223   2.06318
    R6        2.63193  -0.00329   0.00184  -0.01225  -0.01041   2.62152
    R7        2.65572   0.00057  -0.00107   0.00399   0.00292   2.65865
    R8        2.64234  -0.00304   0.00136  -0.01039  -0.00903   2.63331
    R9        1.90861   0.00057   0.00067  -0.00066   0.00001   1.90863
   R10        2.65615  -0.00250  -0.00109  -0.00214  -0.00322   2.65293
   R11        2.65247   0.00027  -0.00087   0.00300   0.00212   2.65460
   R12        2.63332  -0.00122  -0.00164   0.00210   0.00048   2.63380
   R13        2.06058   0.00060  -0.00142   0.00548   0.00406   2.06464
   R14        2.63745  -0.00118  -0.00139   0.00153   0.00014   2.63759
   R15        2.06413   0.00002  -0.00138   0.00387   0.00249   2.06662
   R16        2.63652  -0.00084  -0.00134   0.00214   0.00079   2.63731
   R17        2.06414  -0.00058  -0.00139   0.00233   0.00094   2.06508
   R18        2.63174  -0.00151  -0.00155   0.00149  -0.00007   2.63167
   R19        2.06421   0.00000  -0.00139   0.00385   0.00246   2.06667
   R20        2.06685  -0.00039  -0.00168   0.00365   0.00197   2.06882
   R21        2.63273  -0.00224  -0.00161   0.00006  -0.00156   2.63117
   R22        2.06560  -0.00050  -0.00163   0.00322   0.00159   2.06718
   R23        2.63211   0.00097  -0.00122   0.00524   0.00401   2.63612
   R24        2.06262   0.00033  -0.00131   0.00449   0.00317   2.06579
   R25        2.06402  -0.00141  -0.00158   0.00073  -0.00085   2.06317
    A1        2.06658  -0.00065   0.00155  -0.00704  -0.00549   2.06109
    A2        2.07678   0.00015   0.00130  -0.00330  -0.00200   2.07478
    A3        2.13973   0.00050  -0.00284   0.01033   0.00748   2.14721
    A4        2.08196  -0.00084   0.00171  -0.00785  -0.00618   2.07578
    A5        2.08168   0.00026  -0.00060   0.00250   0.00186   2.08353
    A6        2.11886   0.00060  -0.00112   0.00594   0.00478   2.12365
    A7        2.13721  -0.00295  -0.00080  -0.00861  -0.00948   2.12773
    A8        2.07386   0.00067  -0.00042   0.00388   0.00338   2.07724
    A9        2.07105   0.00230   0.00125   0.00565   0.00684   2.07789
   A10        2.26092  -0.00519  -0.00125  -0.01888  -0.02013   2.24079
   A11        2.00837   0.00284   0.00075   0.01053   0.01128   2.01964
   A12        2.01381   0.00235   0.00051   0.00833   0.00884   2.02266
   A13        2.14588  -0.00370  -0.00112  -0.01068  -0.01185   2.13403
   A14        2.06474   0.00329   0.00143   0.00881   0.01020   2.07494
   A15        2.07148   0.00043  -0.00028   0.00268   0.00233   2.07381
   A16        2.09853  -0.00037   0.00043  -0.00298  -0.00259   2.09594
   A17        2.09237  -0.00007  -0.00067   0.00143   0.00072   2.09308
   A18        2.09178   0.00046   0.00023   0.00207   0.00226   2.09404
   A19        2.10863   0.00048  -0.00059   0.00343   0.00284   2.11147
   A20        2.08217  -0.00065   0.00055  -0.00488  -0.00433   2.07784
   A21        2.09229   0.00017   0.00004   0.00142   0.00147   2.09376
   A22        2.07844  -0.00008   0.00071  -0.00225  -0.00156   2.07688
   A23        2.10286  -0.00002  -0.00038   0.00089   0.00050   2.10337
   A24        2.10184   0.00010  -0.00033   0.00143   0.00110   2.10294
   A25        2.10378  -0.00021  -0.00035   0.00040   0.00000   2.10378
   A26        2.09413   0.00040  -0.00005   0.00215   0.00211   2.09624
   A27        2.08523  -0.00019   0.00041  -0.00261  -0.00219   2.08304
   A28        2.10513  -0.00025   0.00009  -0.00100  -0.00095   2.10418
   A29        2.08052   0.00047  -0.00025   0.00313   0.00289   2.08342
   A30        2.09751  -0.00022   0.00016  -0.00209  -0.00193   2.09559
   A31        2.10171  -0.00018   0.00014  -0.00163  -0.00151   2.10020
   A32        2.08230   0.00044  -0.00027   0.00348   0.00321   2.08552
   A33        2.09915  -0.00026   0.00013  -0.00182  -0.00168   2.09747
   A34        2.11221   0.00044  -0.00073   0.00371   0.00295   2.11516
   A35        2.08828  -0.00074   0.00027  -0.00467  -0.00439   2.08389
   A36        2.08262   0.00029   0.00046   0.00088   0.00135   2.08397
   A37        2.05653  -0.00059   0.00215  -0.00815  -0.00603   2.05050
   A38        2.09521  -0.00001  -0.00121   0.00268   0.00146   2.09668
   A39        2.13141   0.00060  -0.00094   0.00555   0.00460   2.13601
    D1        3.13992  -0.00003  -0.00010  -0.00064  -0.00075   3.13918
    D2       -0.04088   0.00039  -0.00040   0.01640   0.01598  -0.02491
    D3       -0.01690   0.00000   0.00058  -0.00149  -0.00093  -0.01783
    D4        3.08548   0.00043   0.00028   0.01556   0.01579   3.10127
    D5        3.11978   0.00026   0.00060   0.00909   0.00966   3.12944
    D6       -0.01399   0.00003   0.00057  -0.00053   0.00004  -0.01395
    D7       -0.00650   0.00023  -0.00009   0.00997   0.00988   0.00338
    D8       -3.14027  -0.00000  -0.00012   0.00035   0.00025  -3.14002
    D9        3.11860   0.00022   0.00033   0.00660   0.00686   3.12546
   D10        0.02749  -0.00037  -0.00040  -0.01519  -0.01560   0.01189
   D11        0.01709  -0.00021   0.00062  -0.01074  -0.01018   0.00690
   D12       -3.07402  -0.00079  -0.00011  -0.03252  -0.03265  -3.10667
   D13        0.46620  -0.00130  -0.00217  -0.06586  -0.06801   0.39819
   D14       -2.66050  -0.00129  -0.00241  -0.06497  -0.06736  -2.72786
   D15       -2.72580  -0.00076  -0.00147  -0.04415  -0.04563  -2.77143
   D16        0.43069  -0.00075  -0.00171  -0.04326  -0.04499   0.38570
   D17       -0.01541   0.00051  -0.00026   0.02343   0.02321   0.00780
   D18        3.13321   0.00042  -0.00006   0.01929   0.01928  -3.13069
   D19       -3.10846   0.00010  -0.00092   0.00290   0.00187  -3.10658
   D20        0.04017   0.00001  -0.00073  -0.00125  -0.00206   0.03811
   D21        0.50487  -0.00094  -0.00294  -0.04368  -0.04660   0.45826
   D22       -2.68773  -0.00046  -0.00216  -0.02453  -0.02670  -2.71443
   D23       -2.65166  -0.00095  -0.00269  -0.04456  -0.04724  -2.69889
   D24        0.43893  -0.00047  -0.00192  -0.02541  -0.02734   0.41160
   D25        3.11853   0.00023   0.00039   0.00583   0.00612   3.12465
   D26        0.01117  -0.00023   0.00054  -0.01204  -0.01156  -0.00040
   D27        0.02812  -0.00033  -0.00042  -0.01355  -0.01398   0.01414
   D28       -3.07924  -0.00080  -0.00027  -0.03142  -0.03167  -3.11091
   D29       -3.11003   0.00018  -0.00092   0.00552   0.00449  -3.10554
   D30        0.03889   0.00004  -0.00069  -0.00055  -0.00134   0.03755
   D31       -0.01722   0.00052  -0.00020   0.02343   0.02326   0.00604
   D32        3.13170   0.00038   0.00003   0.01735   0.01743  -3.13405
   D33       -0.01607  -0.00005   0.00052  -0.00324  -0.00275  -0.01882
   D34        3.14038  -0.00004   0.00004  -0.00128  -0.00125   3.13914
   D35        3.09130   0.00041   0.00034   0.01462   0.01492   3.10622
   D36       -0.03543   0.00041  -0.00014   0.01657   0.01642  -0.01901
   D37       -0.00738   0.00024   0.00001   0.01036   0.01038   0.00300
   D38       -3.13926   0.00004  -0.00019   0.00237   0.00219  -3.13707
[...]
 Alpha virt. eigenvalues --    2.91377   2.91817   2.92849   2.93846   2.94616
 Alpha virt. eigenvalues --    2.96091   2.96550   2.97506   2.98516   2.99674
 Alpha virt. eigenvalues --    3.02699   3.03735   3.05343   3.07534   3.09573
 Alpha virt. eigenvalues --    3.09912   3.10462   3.11274   3.13401   3.15653
 Alpha virt. eigenvalues --    3.16303   3.18126   3.18948   3.19918   3.20121
 Alpha virt. eigenvalues --    3.21140   3.21701   3.22274   3.23136   3.24241
 Alpha virt. eigenvalues --    3.25194   3.26114   3.26304   3.27199   3.27908
 Alpha virt. eigenvalues --    3.30656   3.31300   3.33005   3.33921   3.34169
 Alpha virt. eigenvalues --    3.34878   3.35967   3.36884   3.38032   3.39729
 Alpha virt. eigenvalues --    3.40225   3.42143   3.42865   3.43303   3.44458
 Alpha virt. eigenvalues --    3.45117   3.45923   3.46700   3.47730   3.48678
 Alpha virt. eigenvalues --    3.50088   3.51290   3.52455   3.53766   3.55143
 Alpha virt. eigenvalues --    3.56252   3.56655   3.57327   3.57744   3.59884
 Alpha virt. eigenvalues --    3.60367   3.61047   3.61800   3.62276   3.63233
 Alpha virt. eigenvalues --    3.66317   3.68218   3.71323   3.73193   3.75867
 Alpha virt. eigenvalues --    3.76801   3.78243   3.81989   3.83338   3.83824
 Alpha virt. eigenvalues --    3.85191   3.87231   3.89326   3.93012   3.98276
 Alpha virt. eigenvalues --    3.99779   4.01154   4.04593   4.06407   4.06870
 Alpha virt. eigenvalues --    4.09318   4.09736   4.11621   4.12009   4.13476
 Alpha virt. eigenvalues --    4.14371   4.16519   4.16842   4.18212   4.20139
 Alpha virt. eigenvalues --    4.22481   4.26454   4.26561   4.27431   4.28017
 Alpha virt. eigenvalues --    4.28582   4.29271   4.30283   4.30854   4.33288
 Alpha virt. eigenvalues --    4.33531   4.35011   4.36432   4.37487   4.38537
 Alpha virt. eigenvalues --    4.39712   4.48253   4.53505   4.56215   4.60170
 Alpha virt. eigenvalues --    4.66386   4.67465   4.69725   4.69933   4.73939
 Alpha virt. eigenvalues --    4.74344   4.78139   4.79439   4.80764   4.83601
 Alpha virt. eigenvalues --    4.90524   4.92403   4.95175   4.96569   4.98101
 Alpha virt. eigenvalues --    5.01418   5.06805   5.08086   5.14775   5.17209
 Alpha virt. eigenvalues --    5.22563   5.23127   5.25570   5.27172   5.33037
 Alpha virt. eigenvalues --    5.34392   5.37152   5.38747   5.43636   5.49511
 Alpha virt. eigenvalues --    5.54062   5.58054   5.59757   5.65555   5.70480
 Alpha virt. eigenvalues --    5.91385   5.96651   6.14167   6.22573   6.96111
 Alpha virt. eigenvalues --    6.97328   7.08059   7.16810   7.33983   7.53611
 Alpha virt. eigenvalues --    7.67699   8.44561   8.62630   8.85626   9.06701
 Alpha virt. eigenvalues --    9.10052  22.19200  22.27669  22.68109  22.69069
 Alpha virt. eigenvalues --   22.72159  22.78095  22.81747  22.84183  22.91314
 Alpha virt. eigenvalues --   23.05012  23.31475  23.37067  32.84723  57.43656
          Condensed to atoms (all electrons):
               1          2          3          4          5          6
     1  F    9.032682   0.273494  -0.069386   0.014899  -0.000086   0.000037
     2  C    0.273494   4.586151   0.384214   0.026463  -0.004317   0.000830
     3  C   -0.069386   0.384214   5.583143   0.229988  -0.032579  -0.001495
     4  C    0.014899   0.026463   0.229988   5.024597   0.279687  -0.091676
     5  N   -0.000086  -0.004317  -0.032579   0.279687   6.508875   0.243264
     6  C    0.000037   0.000830  -0.001495  -0.091676   0.243264   4.952351
     7  C   -0.000172   0.003790  -0.014276  -0.006464  -0.037583   0.378973
     8  C    0.000004  -0.000092   0.002779   0.001340   0.001593  -0.010520
     9  C    0.000000   0.000051  -0.000535  -0.000579   0.000976  -0.076083
    10  C   -0.000000  -0.000070   0.001061   0.001325   0.013114  -0.034831
    11  C    0.000004   0.000039   0.008591   0.008649  -0.023467   0.393222
    12  C   -0.001148  -0.073459  -0.007819   0.371745  -0.029604   0.013052
    13  C    0.012246   0.027806  -0.070118  -0.026221   0.007519   0.000760
    14  C   -0.057714   0.465021  -0.015468  -0.071616   0.001941  -0.000175
    15  H    0.002241  -0.029593   0.418979  -0.042588   0.000187   0.002143
    16  H    0.000004   0.000183   0.008114  -0.058404   0.401463  -0.061054
    17  H    0.000217   0.000208  -0.011057   0.002905   0.002057  -0.048663
    18  H   -0.000000  -0.000010   0.000110   0.000021  -0.000198   0.014143
    19  H   -0.000000   0.000000  -0.000004  -0.000001  -0.000003  -0.004029
    20  H   -0.000000  -0.000000  -0.000008   0.000011  -0.000300   0.014548
    21  H    0.000000   0.000013   0.000276   0.000563   0.004201  -0.077786
    22  H    0.000006  -0.000764   0.003851  -0.076181   0.004568   0.001151
    23  H   -0.000066   0.005769  -0.002486   0.012731  -0.000241   0.000003
    24  H    0.000717  -0.054214   0.017421  -0.005112   0.000005  -0.000002
               7          8          9         10         11         12
     1  F   -0.000172   0.000004   0.000000  -0.000000   0.000004  -0.001148
     2  C    0.003790  -0.000092   0.000051  -0.000070   0.000039  -0.073459
     3  C   -0.014276   0.002779  -0.000535   0.001061   0.008591  -0.007819
     4  C   -0.006464   0.001340  -0.000579   0.001325   0.008649   0.371745
     5  N   -0.037583   0.001593   0.000976   0.013114  -0.023467  -0.029604
     6  C    0.378973  -0.010520  -0.076083  -0.034831   0.393222   0.013052
     7  C    5.223779   0.433449   0.027168  -0.086915   0.019846   0.008858
     8  C    0.433449   4.888044   0.452977   0.007651  -0.070010  -0.000120
     9  C    0.027168   0.452977   4.945785   0.457821   0.012914   0.000052
    10  C   -0.086915   0.007651   0.457821   4.909248   0.439323  -0.000352
    11  C    0.019846  -0.070010   0.012914   0.439323   5.135125  -0.007427
    12  C    0.008858  -0.000120   0.000052  -0.000352  -0.007427   5.186593
    13  C    0.000872  -0.000027   0.000007  -0.000025  -0.000235   0.445595
    14  C   -0.000492   0.000012  -0.000003   0.000008   0.000038   0.025960
    15  H   -0.006571   0.000798  -0.000182   0.000229  -0.000276   0.005898
    16  H    0.007463  -0.000374   0.000090   0.001201   0.001727  -0.002598
    17  H    0.431900  -0.029020   0.006222  -0.001628   0.003963   0.000269
    18  H   -0.057283   0.440611  -0.055587   0.010122  -0.003004   0.000001
    19  H    0.012894  -0.058219   0.443987  -0.056615   0.012482   0.000000
    20  H   -0.002949   0.010096  -0.056034   0.437483  -0.054618   0.000003
    21  H    0.005119  -0.001670   0.007910  -0.025152   0.437606  -0.000376
    22  H    0.000165   0.000007  -0.000001  -0.000000  -0.000355   0.434259
    23  H   -0.000006   0.000000  -0.000000   0.000000   0.000003  -0.050360
    24  H   -0.000001  -0.000000  -0.000000   0.000000   0.000000   0.012126
              13         14         15         16         17         18
     1  F    0.012246  -0.057714   0.002241   0.000004   0.000217  -0.000000
     2  C    0.027806   0.465021  -0.029593   0.000183   0.000208  -0.000010
     3  C   -0.070118  -0.015468   0.418979   0.008114  -0.011057   0.000110
     4  C   -0.026221  -0.071616  -0.042588  -0.058404   0.002905   0.000021
     5  N    0.007519   0.001941   0.000187   0.401463   0.002057  -0.000198
     6  C    0.000760  -0.000175   0.002143  -0.061054  -0.048663   0.014143
     7  C    0.000872  -0.000492  -0.006571   0.007463   0.431900  -0.057283
     8  C   -0.000027   0.000012   0.000798  -0.000374  -0.029020   0.440611
     9  C    0.000007  -0.000003  -0.000182   0.000090   0.006222  -0.055587
    10  C   -0.000025   0.000008   0.000229   0.001201  -0.001628   0.010122
    11  C   -0.000235   0.000038  -0.000276   0.001727   0.003963  -0.003004
    12  C    0.445595   0.025960   0.005898  -0.002598   0.000269   0.000001
    13  C    4.955948   0.349934  -0.003323   0.001155   0.000207  -0.000001
    14  C    0.349934   5.177486   0.011169   0.000039  -0.000178   0.000001
    15  H   -0.003323   0.011169   0.468987  -0.000182  -0.005291   0.000072
    16  H    0.001155   0.000039  -0.000182   0.461902  -0.000187   0.000016
    17  H    0.000207  -0.000178  -0.005291  -0.000187   0.482963  -0.006212
    18  H   -0.000001   0.000001   0.000072   0.000016  -0.006212   0.541142
    19  H    0.000000  -0.000000  -0.000000  -0.000002  -0.000072  -0.006871
    20  H    0.000000  -0.000000  -0.000001  -0.000039   0.000033  -0.000167
    21  H    0.000002  -0.000001   0.000001   0.003732  -0.000184   0.000039
    22  H   -0.019838   0.006167  -0.000163   0.003657   0.000002   0.000000
    23  H    0.429650  -0.044847   0.000034  -0.000031  -0.000000   0.000000
    24  H   -0.055135   0.436981  -0.000067  -0.000002  -0.000002   0.000000
              19         20         21         22         23         24
     1  F   -0.000000  -0.000000   0.000000   0.000006  -0.000066   0.000717
     2  C    0.000000  -0.000000   0.000013  -0.000764   0.005769  -0.054214
     3  C   -0.000004  -0.000008   0.000276   0.003851  -0.002486   0.017421
     4  C   -0.000001   0.000011   0.000563  -0.076181   0.012731  -0.005112
     5  N   -0.000003  -0.000300   0.004201   0.004568  -0.000241   0.000005
     6  C   -0.004029   0.014548  -0.077786   0.001151   0.000003  -0.000002
     7  C    0.012894  -0.002949   0.005119   0.000165  -0.000006  -0.000001
     8  C   -0.058219   0.010096  -0.001670   0.000007   0.000000  -0.000000
     9  C    0.443987  -0.056034   0.007910  -0.000001  -0.000000  -0.000000
    10  C   -0.056615   0.437483  -0.025152  -0.000000   0.000000   0.000000
    11  C    0.012482  -0.054618   0.437606  -0.000355   0.000003   0.000000
    12  C    0.000000   0.000003  -0.000376   0.434259  -0.050360   0.012126
    13  C    0.000000   0.000000   0.000002  -0.019838   0.429650  -0.055135
    14  C   -0.000000  -0.000000  -0.000001   0.006167  -0.044847   0.436981
    15  H   -0.000000  -0.000001   0.000001  -0.000163   0.000034  -0.000067
    16  H   -0.000002  -0.000039   0.003732   0.003657  -0.000031  -0.000002
    17  H   -0.000072   0.000033  -0.000184   0.000002  -0.000000  -0.000002
    18  H   -0.006871  -0.000167   0.000039   0.000000   0.000000   0.000000
    19  H    0.543257  -0.006555  -0.000129   0.000000  -0.000000  -0.000000
    20  H   -0.006555   0.545886  -0.007843   0.000000  -0.000000  -0.000000
    21  H   -0.000129  -0.007843   0.536917  -0.000023   0.000000   0.000000
    22  H    0.000000   0.000000  -0.000023   0.534803  -0.007229  -0.000093
    23  H   -0.000000  -0.000000   0.000000  -0.007229   0.537733  -0.006195
    24  H   -0.000000  -0.000000   0.000000  -0.000093  -0.006195   0.521230
 Mulliken charges:
               1
     1  F   -0.207980
     2  C    0.388488
     3  C   -0.433292
     4  C    0.403919
     5  N   -0.341070
     6  C    0.391838
     7  C   -0.341562
     8  C   -0.069309
     9  C   -0.166956
    10  C   -0.072997
    11  C   -0.314138
    12  C   -0.331147
    13  C   -0.056778
    14  C   -0.284262
    15  H    0.177500
    16  H    0.232127
    17  H    0.171548
    18  H    0.123058
    19  H    0.119881
    20  H    0.120451
    21  H    0.116786
    22  H    0.116010
    23  H    0.125541
    24  H    0.132345
 Sum of Mulliken charges =   0.00000
 Mulliken charges with hydrogens summed into heavy atoms:
               1
     1  F   -0.207980
     2  C    0.388488
     3  C   -0.255793
     4  C    0.403919
     5  N   -0.108943
     6  C    0.391838
     7  C   -0.170014
     8  C    0.053749
     9  C   -0.047075
    10  C    0.047454
    11  C   -0.197352
    12  C   -0.215137
    13  C    0.068763
    14  C   -0.151918
 Electronic spatial extent (au):  <R**2>=           3367.8267
 Charge=              0.0000 electrons
 Dipole moment (field-independent basis, Debye):
    X=              0.8871    Y=             -2.1341    Z=              0.2038  Tot=              2.3201
 Quadrupole moment (field-independent basis, Debye-Ang):
   XX=            -75.2708   YY=            -75.0726   ZZ=            -84.3464
   XY=              4.4908   XZ=             -3.3812   YZ=              3.0696
 Traceless Quadrupole moment (field-independent basis, Debye-Ang):
   XX=              2.9591   YY=              3.1574   ZZ=             -6.1165
   XY=              4.4908   XZ=             -3.3812   YZ=              3.0696
 Octapole moment (field-independent basis, Debye-Ang**2):
  XXX=            -18.1609  YYY=             -9.5871  ZZZ=             -5.6019  XYY=              4.9240
  XXY=             -3.6657  XXZ=             -3.8654  XZZ=             -4.2076  YZZ=              6.9552
  YYZ=              3.4389  XYZ=             11.2231
 Hexadecapole moment (field-independent basis, Debye-Ang**3):
 XXXX=          -3263.8719 YYYY=           -693.8675 ZZZZ=           -212.2874 XXXY=             24.8639
 XXXZ=            -67.7875 YYYX=            -10.9529 YYYZ=              3.8835 ZZZX=             13.2087
 ZZZY=             -2.9410 XXYY=           -708.5453 XXZZ=           -668.3135 YYZZ=           -153.2339
 XXYZ=             23.6794 YYXZ=             -7.0962 ZZXY=            -21.8135
 N-N= 7.945748510455D+02 E-N=-3.029829586450D+03  KE= 6.147212404100D+02
 Breneman (CHELPG) radii used.
 Read replacement radii for each type of atom:
 Atom Element Radius
    1     9    1.70
    2     6    1.50
    3     6    1.50
    4     6    1.50
    5     7    1.70
    6     6    1.50
    7     6    1.50
    8     6    1.50
    9     6    1.50
   10     6    1.50
   11     6    1.50
   12     6    1.50
   13     6    1.50
   14     6    1.50
   15     1    1.45
   16     1    1.45
   17     1    1.45
   18     1    1.45
   19     1    1.45
   20     1    1.45
   21     1    1.45
   22     1    1.45
   23     1    1.45
   24     1    1.45
 Generate Potential Derived Charges using the Breneman model, NDens= 1.
 Grid spacing= 0.300 Box extension= 2.800
 NStep X,Y,Z=   52     36     28   Total possible points=       52416
 Number of Points to Fit=   15755

 **********************************************************************

            Electrostatic Properties Using The SCF Density.

 **********************************************************************

       Atomic Center    1 is at  -2.895439  2.213499 -0.549489
       Atomic Center    2 is at  -2.607192  0.945906 -0.248400
       Atomic Center    3 is at  -1.276820  0.551647 -0.286176
       Atomic Center    4 is at  -0.947891 -0.776232  0.027663
       Atomic Center    5 is at   0.355646 -1.252068 -0.012413
       Atomic Center    6 is at   1.553236 -0.533494  0.020285
       Atomic Center    7 is at   1.692241  0.665354  0.736699
       Atomic Center    8 is at   2.916709  1.327895  0.762399
       Atomic Center    9 is at   4.027555  0.805880  0.101260
       Atomic Center   10 is at   3.899042 -0.396662 -0.592534
       Atomic Center   11 is at   2.674850 -1.055919 -0.642340
       Atomic Center   12 is at  -1.984840 -1.670373  0.352815
       Atomic Center   13 is at  -3.307380 -1.243449  0.365035
       Atomic Center   14 is at  -3.642652  0.078063  0.073149
       Atomic Center   15 is at  -0.521251  1.277141 -0.585311
       Atomic Center   16 is at   0.448886 -2.250107 -0.140800
       Atomic Center   17 is at   0.845040  1.068541  1.292920
       Atomic Center   18 is at   3.003943  2.260536  1.324421
       Atomic Center   19 is at   4.985239  1.328629  0.130507
       Atomic Center   20 is at   4.758649 -0.823710 -1.113959
       Atomic Center   21 is at   2.577334 -1.987150 -1.206524
       Atomic Center   22 is at  -1.741683 -2.705590  0.603103
       Atomic Center   23 is at  -4.096260 -1.954387  0.619814
       Atomic Center   24 is at  -4.671624  0.437381  0.088998
   15755 points will be used for fitting atomic charges
 Fitting point charges to electrostatic potential
 Charges from ESP fit, RMS=   0.00402 RRMS=   0.35058:
 ESP charges:
               1
     1  F   -0.219900
     2  C    0.406495
     3  C   -0.410781
     4  C    0.529916
     5  N   -0.744229
     6  C    0.472138
     7  C   -0.244867
     8  C   -0.046336
     9  C   -0.178002
    10  C   -0.012237
    11  C   -0.313603
    12  C   -0.394328
    13  C    0.029661
    14  C   -0.332347
    15  H    0.165611
    16  H    0.357946
    17  H    0.119941
    18  H    0.097252
    19  H    0.102497
    20  H    0.086512
    21  H    0.133542
    22  H    0.149419
    23  H    0.094101
    24  H    0.151598
 Sum of ESP charges =  -0.00000
 ESP charges with hydrogens summed into heavy atoms:
               1
     1  F   -0.219900
     2  C    0.406495
     3  C   -0.245170
     4  C    0.529916
     5  N   -0.386283
     6  C    0.472138
     7  C   -0.124926
     8  C    0.050917
     9  C   -0.075505
    10  C    0.074275
    11  C   -0.180061
    12  C   -0.244909
    13  C    0.123762
    14  C   -0.180750
 Charge=  -0.00000 Dipole=     0.9161    -2.2312     0.2286 Tot=     2.4228
 -----------------------------------------------------------------

              Electrostatic Properties (Atomic Units)

 -----------------------------------------------------------------
    Center     Electric         -------- Electric Field --------
               Potential          X             Y             Z
 -----------------------------------------------------------------
    1 Atom    -26.586328
    2 Atom    -14.683618
    3 Atom    -14.767013
    4 Atom    -14.708934
    5 Atom    -18.351065
    6 Atom    -14.715743
    7 Atom    -14.767157
    8 Atom    -14.764140
    9 Atom    -14.771039
   10 Atom    -14.763369
   11 Atom    -14.765200
   12 Atom    -14.766927
   13 Atom    -14.757426
   14 Atom    -14.770674
   15 Atom     -1.091321
   16 Atom     -1.015505
   17 Atom     -1.101260
   18 Atom     -1.104607
   19 Atom     -1.106968
   20 Atom     -1.102922
   21 Atom     -1.096047
   22 Atom     -1.096099
   23 Atom     -1.099272
   24 Atom     -1.096557
 -----------------------------------------------------------------
 Unable to Open any file for archive entry.
 1\1\GINC-NOTCH399\SP\RwB97XD\def2TZVP\C12H10F1N1\U1366379\17-Feb-2026\
 0\\#N Guess=Read Geom=Check Integral(Ultrafine) Density Pop=(ChelpG,Re
 adRadii) NMR wB97XD def2TZVP\\prod_3c_1\\0,1\F,0,2.9122049832,2.111661
 8962,0.5120008121\C,0,2.5902227774,0.8479678611,0.2292662036\C,0,1.249
 6628488,0.4903015642,0.2708443694\C,0,0.8854017933,-0.8327425356,-0.02
 38085039\N,0,-0.4305357958,-1.2726358434,0.0213185676\C,0,-1.608277999
 4,-0.5226187555,-0.0238368701\C,0,-1.7141008465,0.6687789425,-0.758125
 9745\C,0,-2.920228779,1.3636166269,-0.7954946828\C,0,-4.045490243,0.88
 15879414,-0.1283967449\C,0,-3.9502293645,-0.3135544083,0.5833142277\C,
 0,-2.7443146513,-1.0047450293,0.6447369252\C,0,1.8982291326,-1.7592232
 442,-0.3341104592\C,0,3.2318129199,-1.3683175996,-0.3506313811\C,0,3.6
 022670753,-0.0521345924,-0.0778251042\H,0,0.5135942334,1.2402485172,0.
 558057234\H,0,-0.550797752,-2.2657859487,0.1643204885\H,0,-0.855710929
 4,1.0406961792,-1.3189611481\H,0,-2.9816516183,2.2898294199,-1.3713913
 338\H,0,-4.9886967497,1.4294600137,-0.1668368445\H,0,-4.8216246595,-0.
 7095039043,1.1096912649\H,0,-2.6725786884,-1.9297930456,1.2227893177\H
 ,0,1.6275291024,-2.7911127701,-0.5694207376\H,0,4.0015222837,-2.103955
 06,-0.593657935\H,0,4.6405709268,0.2790537746,-0.0974216911\\Version=E
 S64L-G16RevC.01\State=1-A\HF=-617.9118854\RMSD=2.410e-09\Dipole=-0.371
 4262,-0.8309907,-0.0682854\Quadrupole=2.0259292,2.4599644,-4.4858936,-
 3.3651691,-2.5174193,-2.3213332\PG=C01 [X(C12H10F1N1)]\\@
 The archive entry for this job was punched.


 REFRAIN FROM ILLUSIONS, INSIST ON WORK AND NOT WORDS,
 PATIENTLY SEEK DIVINE AND SCIENTIFIC TRUTH.
 LAST WORDS OF MARIA MENDELEEVA TO HER SON DMITRI, C. 1850
 Job cpu time:       0 days  0 hours 44 minutes  8.0 seconds.
 Elapsed time:       0 days  0 hours  5 minutes 41.2 seconds.
 File lengths (MBytes):  RWF=    154 Int=      0 D2E=      0 Chk=     24 Scr=      2
 Normal termination of Gaussian 16 at Tue Feb 17 16:09:04 2026.
