 Entering Gaussian System, Link 0=g16
 Input=prod_5l_43.com
 Output=prod_5l_43.log
 Initial command:
 /uufs/chpc.utah.edu/sys/installdir/gaussian16/C01/AVX/g16/l1.exe "/scratch/general/vast/u1366379/GAUSSSCRDIR/11028720-notchpeak.peaks/Gau-994329.inp" -scrdir="/scratch/general/vast/u1366379/GAUSSSCRDIR/11028720-notchpeak.peaks/"
 Entering Link 1 = /uufs/chpc.utah.edu/sys/installdir/gaussian16/C01/AVX/g16/l1.exe PID=    994331.
  
 Copyright (c) 1988-2019, Gaussian, Inc.  All Rights Reserved.
  
 This is part of the Gaussian(R) 16 program.  It is based on
 the Gaussian(R) 09 system (copyright 2009, Gaussian, Inc.),
 the Gaussian(R) 03 system (copyright 2003, Gaussian, Inc.),
 the Gaussian(R) 98 system (copyright 1998, Gaussian, Inc.),
 the Gaussian(R) 94 system (copyright 1995, Gaussian, Inc.),
 the Gaussian 92(TM) system (copyright 1992, Gaussian, Inc.),
 the Gaussian 90(TM) system (copyright 1990, Gaussian, Inc.),
 the Gaussian 88(TM) system (copyright 1988, Gaussian, Inc.),
 the Gaussian 86(TM) system (copyright 1986, Carnegie Mellon
 University), and the Gaussian 82(TM) system (copyright 1983,
 Carnegie Mellon University). Gaussian is a federally registered
 trademark of Gaussian, Inc.
  
 This software contains proprietary and confidential information,
 including trade secrets, belonging to Gaussian, Inc.
  
 This software is provided under written license and may be
 used, copied, transmitted, or stored only in accord with that
 written license.
  
 The following legend is applicable only to US Government
 contracts under FAR:
  
                    RESTRICTED RIGHTS LEGEND
  
 Use, reproduction and disclosure by the US Government is
 subject to restrictions as set forth in subparagraphs (a)
 and (c) of the Commercial Computer Software - Restricted
 Rights clause in FAR 52.227-19.
  
 Gaussian, Inc.
 340 Quinnipiac St., Bldg. 40, Wallingford CT 06492
  
  
 ---------------------------------------------------------------
 Warning -- This program may not be used in any manner that
 competes with the business of Gaussian, Inc. or will provide
 assistance to any competitor of Gaussian, Inc.  The licensee
 of this program is prohibited from giving any competitor of
 Gaussian, Inc. access to this program.  By using this program,
 the user acknowledges that Gaussian, Inc. is engaged in the
 business of creating and licensing software in the field of
 computational chemistry and represents and warrants to the
 licensee that it is not a competitor of Gaussian, Inc. and that
 it will not use this program in any manner prohibited above.
 ---------------------------------------------------------------
  

 Cite this work as:
 Gaussian 16, Revision C.01,
 M. J. Frisch, G. W. Trucks, H. B. Schlegel, G. E. Scuseria, 
 M. A. Robb, J. R. Cheeseman, G. Scalmani, V. Barone, 
 G. A. Petersson, H. Nakatsuji, X. Li, M. Caricato, A. V. Marenich, 
 J. Bloino, B. G. Janesko, R. Gomperts, B. Mennucci, H. P. Hratchian, 
 J. V. Ortiz, A. F. Izmaylov, J. L. Sonnenberg, D. Williams-Young, 
 F. Ding, F. Lipparini, F. Egidi, J. Goings, B. Peng, A. Petrone, 
 T. Henderson, D. Ranasinghe, V. G. Zakrzewski, J. Gao, N. Rega, 
 G. Zheng, W. Liang, M. Hada, M. Ehara, K. Toyota, R. Fukuda, 
 J. Hasegawa, M. Ishida, T. Nakajima, Y. Honda, O. Kitao, H. Nakai, 
 T. Vreven, K. Throssell, J. A. Montgomery, Jr., J. E. Peralta, 
 F. Ogliaro, M. J. Bearpark, J. J. Heyd, E. N. Brothers, K. N. Kudin, 
 V. N. Staroverov, T. A. Keith, R. Kobayashi, J. Normand, 
 K. Raghavachari, A. P. Rendell, J. C. Burant, S. S. Iyengar, 
 J. Tomasi, M. Cossi, J. M. Millam, M. Klene, C. Adamo, R. Cammi, 
 J. W. Ochterski, R. L. Martin, K. Morokuma, O. Farkas, 
 J. B. Foresman, and D. J. Fox, Gaussian, Inc., Wallingford CT, 2019.
 
 ******************************************
 Gaussian 16:  ES64L-G16RevC.01  3-Jul-2019
                17-Feb-2026 
 ******************************************
 %NProcShared=8
 Will use up to    8 processors via shared memory.
 %Mem=8GB
 %chk=prod_5l_43.chk
 ------------------------------------------------------
 #N OPT FREQ=NORAMAN Integral(Ultrafine) wB97XD def2SVP
 ------------------------------------------------------
 1/18=20,19=15,26=4,38=1/1,3;
 2/9=110,12=2,17=6,18=5,40=1/2;
 3/5=43,7=101,11=2,25=1,30=1,71=1,74=-58,75=-5/1,2,3;
 4//1;
 5/5=2,38=5/2;
 6/7=2,8=2,9=2,10=2,28=1/1;
 7//1,2,3,16;
 1/18=20,19=15,26=4/3(2);
 2/9=110/2;
 99//99;
 2/9=110/2;
 3/5=43,7=101,11=2,25=1,30=1,71=1,74=-58,75=-5/1,2,3;
 4/5=5,16=3,69=1/1;
 5/5=2,38=5/2;
 7//1,2,3,16;
 1/18=20,19=15,26=4/3(-5);
 2/9=110/2;
 6/7=2,8=2,9=2,10=2,19=2,28=1/1;
 99/9=1/99;
 ----------
 prod_5l_43
 ----------
 Symbolic Z-matrix:
 Charge =  0 Multiplicity = 1
 O                    -0.40419   2.84291   0.76193 
 S                     0.03096   1.63025  -0.00676 
 N                     1.05475   0.74548   1.03614 
 C                     2.05613  -0.0924    0.5478 
 C                     2.98589  -0.63492   1.44198 
 C                     3.96656  -1.49594   1.00846 
 C                     4.04873  -1.83982  -0.32623 
 C                     3.14604  -1.31388  -1.22855 
 C                     2.16486  -0.45246  -0.80001 
 C                    -1.35841   0.49292  -0.06219 
 C                    -1.52238  -0.46932   0.90519 
 C                    -2.59879  -1.33081   0.84806 
 C                    -3.5187   -1.24134  -0.18666 
 C                    -4.6955   -2.15031  -0.23764 
 C                    -3.34151  -0.26052  -1.15179 
 C                    -2.26408   0.60008  -1.08977 
 O                     0.51484   1.74184  -1.42331 
 H                     1.31517   1.40008   1.74625 
 H                     2.91336  -0.37225   2.48265 
 H                     4.67256  -1.90448   1.71261 
 H                     4.819    -2.51341  -0.6638 
 H                     3.2161   -1.57192  -2.27249 
 H                     1.48574  -0.01342  -1.50744 
 H                    -0.80172  -0.54193   1.70142 
 H                    -2.73259  -2.07948   1.60967 
 H                    -5.54817  -1.70776   0.27806 
 H                    -4.99184  -2.35178  -1.26747 
 H                    -4.47469  -3.10723   0.23618 
 H                    -4.05605  -0.17336  -1.952 
 H                    -2.11902   1.36014  -1.84035 
 

 GradGradGradGradGradGradGradGradGradGradGradGradGradGradGradGradGradGrad
 Berny optimization.
 Initialization pass.
                           ----------------------------
                           !    Initial Parameters    !
                           ! (Angstroms and Degrees)  !
 --------------------------                            --------------------------
 ! Name  Definition              Value          Derivative Info.                !
 --------------------------------------------------------------------------------
 ! R1    R(1,2)                  1.5003         estimate D2E/DX2                !
 ! R2    R(2,3)                  1.7084         estimate D2E/DX2                !
 ! R3    R(2,10)                 1.7964         estimate D2E/DX2                !
 ! R4    R(2,17)                 1.5011         estimate D2E/DX2                !
 ! R5    R(3,4)                  1.394          estimate D2E/DX2                !
 ! R6    R(3,18)                 1.0003         estimate D2E/DX2                !
 ! R7    R(4,5)                  1.3994         estimate D2E/DX2                !
 ! R8    R(4,9)                  1.3993         estimate D2E/DX2                !
 ! R9    R(5,6)                  1.3751         estimate D2E/DX2                !
 ! R10   R(5,19)                 1.0758         estimate D2E/DX2                !
 ! R11   R(6,7)                  1.3807         estimate D2E/DX2                !
 ! R12   R(6,20)                 1.0776         estimate D2E/DX2                !
 ! R13   R(7,8)                  1.3805         estimate D2E/DX2                !
 ! R14   R(7,21)                 1.0775         estimate D2E/DX2                !
 ! R15   R(8,9)                  1.3742         estimate D2E/DX2                !
 ! R16   R(8,22)                 1.0776         estimate D2E/DX2                !
 ! R17   R(9,23)                 1.0744         estimate D2E/DX2                !
 ! R18   R(10,11)                1.3743         estimate D2E/DX2                !
 ! R19   R(10,16)                1.3739         estimate D2E/DX2                !
 ! R20   R(11,12)                1.3799         estimate D2E/DX2                !
 ! R21   R(11,24)                1.0764         estimate D2E/DX2                !
 ! R22   R(12,13)                1.3874         estimate D2E/DX2                !
 ! R23   R(12,25)                1.0763         estimate D2E/DX2                !
 ! R24   R(13,14)                1.4878         estimate D2E/DX2                !
 ! R25   R(13,15)                1.3874         estimate D2E/DX2                !
 ! R26   R(14,26)                1.0903         estimate D2E/DX2                !
 ! R27   R(14,27)                1.0904         estimate D2E/DX2                !
 ! R28   R(14,28)                1.0904         estimate D2E/DX2                !
 ! R29   R(15,16)                1.3803         estimate D2E/DX2                !
 ! R30   R(15,29)                1.0763         estimate D2E/DX2                !
 ! R31   R(16,30)                1.078          estimate D2E/DX2                !
 ! A1    A(1,2,3)              106.2395         estimate D2E/DX2                !
 ! A2    A(1,2,10)             107.6519         estimate D2E/DX2                !
 ! A3    A(1,2,17)             121.1267         estimate D2E/DX2                !
 ! A4    A(3,2,10)              98.8842         estimate D2E/DX2                !
 ! A5    A(3,2,17)             114.9234         estimate D2E/DX2                !
 ! A6    A(10,2,17)            105.5018         estimate D2E/DX2                !
 ! A7    A(2,3,4)              121.8647         estimate D2E/DX2                !
 ! A8    A(2,3,18)             104.5051         estimate D2E/DX2                !
 ! A9    A(4,3,18)             117.0655         estimate D2E/DX2                !
 ! A10   A(3,4,5)              119.1069         estimate D2E/DX2                !
 ! A11   A(3,4,9)              123.2228         estimate D2E/DX2                !
 ! A12   A(5,4,9)              117.6504         estimate D2E/DX2                !
 ! A13   A(4,5,6)              121.0047         estimate D2E/DX2                !
 ! A14   A(4,5,19)             118.5989         estimate D2E/DX2                !
 ! A15   A(6,5,19)             120.3937         estimate D2E/DX2                !
 ! A16   A(5,6,7)              120.2072         estimate D2E/DX2                !
 ! A17   A(5,6,20)             119.9082         estimate D2E/DX2                !
 ! A18   A(7,6,20)             119.8846         estimate D2E/DX2                !
 ! A19   A(6,7,8)              119.8707         estimate D2E/DX2                !
 ! A20   A(6,7,21)             120.0719         estimate D2E/DX2                !
 ! A21   A(8,7,21)             120.0567         estimate D2E/DX2                !
 ! A22   A(7,8,9)              120.1247         estimate D2E/DX2                !
 ! A23   A(7,8,22)             119.9644         estimate D2E/DX2                !
 ! A24   A(9,8,22)             119.9085         estimate D2E/DX2                !
 ! A25   A(4,9,8)              121.1413         estimate D2E/DX2                !
 ! A26   A(4,9,23)             118.6809         estimate D2E/DX2                !
 ! A27   A(8,9,23)             120.1405         estimate D2E/DX2                !
 ! A28   A(2,10,11)            120.9217         estimate D2E/DX2                !
 ! A29   A(2,10,16)            118.9166         estimate D2E/DX2                !
 ! A30   A(11,10,16)           120.1616         estimate D2E/DX2                !
 ! A31   A(10,11,12)           120.0707         estimate D2E/DX2                !
 ! A32   A(10,11,24)           119.2131         estimate D2E/DX2                !
 ! A33   A(12,11,24)           120.716          estimate D2E/DX2                !
 ! A34   A(11,12,13)           120.52           estimate D2E/DX2                !
 ! A35   A(11,12,25)           120.1287         estimate D2E/DX2                !
 ! A36   A(13,12,25)           119.3513         estimate D2E/DX2                !
 ! A37   A(12,13,14)           120.703          estimate D2E/DX2                !
 ! A38   A(12,13,15)           118.6668         estimate D2E/DX2                !
 ! A39   A(14,13,15)           120.6022         estimate D2E/DX2                !
 ! A40   A(13,14,26)           110.7544         estimate D2E/DX2                !
 ! A41   A(13,14,27)           111.1124         estimate D2E/DX2                !
 ! A42   A(13,14,28)           111.1671         estimate D2E/DX2                !
 ! A43   A(26,14,27)           108.0088         estimate D2E/DX2                !
 ! A44   A(26,14,28)           108.0012         estimate D2E/DX2                !
 ! A45   A(27,14,28)           107.6553         estimate D2E/DX2                !
 ! A46   A(13,15,16)           120.6101         estimate D2E/DX2                !
 ! A47   A(13,15,29)           119.317          estimate D2E/DX2                !
 ! A48   A(16,15,29)           120.0727         estimate D2E/DX2                !
 ! A49   A(10,16,15)           119.9676         estimate D2E/DX2                !
 ! A50   A(10,16,30)           119.1463         estimate D2E/DX2                !
 ! A51   A(15,16,30)           120.8861         estimate D2E/DX2                !
 ! D1    D(1,2,3,4)           -152.9237         estimate D2E/DX2                !
 ! D2    D(1,2,3,18)           -17.346          estimate D2E/DX2                !
 ! D3    D(10,2,3,4)            95.6564         estimate D2E/DX2                !
 ! D4    D(10,2,3,18)         -128.7659         estimate D2E/DX2                !
 ! D5    D(17,2,3,4)           -16.1166         estimate D2E/DX2                !
 ! D6    D(17,2,3,18)          119.4611         estimate D2E/DX2                !
 ! D7    D(1,2,10,11)          -91.0416         estimate D2E/DX2                !
 ! D8    D(1,2,10,16)           88.7873         estimate D2E/DX2                !
 ! D9    D(3,2,10,11)           19.2487         estimate D2E/DX2                !
 ! D10   D(3,2,10,16)         -160.9224         estimate D2E/DX2                !
 ! D11   D(17,2,10,11)         138.3254         estimate D2E/DX2                !
 ! D12   D(17,2,10,16)         -41.8457         estimate D2E/DX2                !
 ! D13   D(2,3,4,5)            170.6553         estimate D2E/DX2                !
 ! D14   D(2,3,4,9)            -11.0064         estimate D2E/DX2                !
 ! D15   D(18,3,4,5)            40.2048         estimate D2E/DX2                !
 ! D16   D(18,3,4,9)          -141.4569         estimate D2E/DX2                !
 ! D17   D(3,4,5,6)            178.1415         estimate D2E/DX2                !
 ! D18   D(3,4,5,19)            -1.2656         estimate D2E/DX2                !
 ! D19   D(9,4,5,6)             -0.2892         estimate D2E/DX2                !
 ! D20   D(9,4,5,19)          -179.6963         estimate D2E/DX2                !
 ! D21   D(3,4,9,8)           -178.0325         estimate D2E/DX2                !
 ! D22   D(3,4,9,23)             4.1885         estimate D2E/DX2                !
 ! D23   D(5,4,9,8)              0.3285         estimate D2E/DX2                !
 ! D24   D(5,4,9,23)          -177.4505         estimate D2E/DX2                !
 ! D25   D(4,5,6,7)              0.0236         estimate D2E/DX2                !
 ! D26   D(4,5,6,20)          -179.9112         estimate D2E/DX2                !
 ! D27   D(19,5,6,7)           179.4201         estimate D2E/DX2                !
 ! D28   D(19,5,6,20)           -0.5147         estimate D2E/DX2                !
 ! D29   D(5,6,7,8)              0.2135         estimate D2E/DX2                !
 ! D30   D(5,6,7,21)           179.9006         estimate D2E/DX2                !
 ! D31   D(20,6,7,8)          -179.8516         estimate D2E/DX2                !
 ! D32   D(20,6,7,21)           -0.1646         estimate D2E/DX2                !
 ! D33   D(6,7,8,9)             -0.1748         estimate D2E/DX2                !
 ! D34   D(6,7,8,22)           179.2634         estimate D2E/DX2                !
 ! D35   D(21,7,8,9)          -179.8619         estimate D2E/DX2                !
 ! D36   D(21,7,8,22)           -0.4237         estimate D2E/DX2                !
 ! D37   D(7,8,9,4)             -0.1016         estimate D2E/DX2                !
 ! D38   D(7,8,9,23)           177.6453         estimate D2E/DX2                !
 ! D39   D(22,8,9,4)          -179.5401         estimate D2E/DX2                !
 ! D40   D(22,8,9,23)           -1.7932         estimate D2E/DX2                !
 ! D41   D(2,10,11,12)         179.7673         estimate D2E/DX2                !
 ! D42   D(2,10,11,24)          -0.3911         estimate D2E/DX2                !
 ! D43   D(16,10,11,12)         -0.0595         estimate D2E/DX2                !
 ! D44   D(16,10,11,24)        179.7821         estimate D2E/DX2                !
 ! D45   D(2,10,16,15)        -179.8446         estimate D2E/DX2                !
 ! D46   D(2,10,16,30)           0.2338         estimate D2E/DX2                !
 ! D47   D(11,10,16,15)         -0.0144         estimate D2E/DX2                !
 ! D48   D(11,10,16,30)       -179.9359         estimate D2E/DX2                !
 ! D49   D(10,11,12,13)          0.4191         estimate D2E/DX2                !
 ! D50   D(10,11,12,25)       -179.4927         estimate D2E/DX2                !
 ! D51   D(24,11,12,13)       -179.4201         estimate D2E/DX2                !
 ! D52   D(24,11,12,25)          0.6681         estimate D2E/DX2                !
 ! D53   D(11,12,13,14)       -178.7757         estimate D2E/DX2                !
 ! D54   D(11,12,13,15)         -0.691          estimate D2E/DX2                !
 ! D55   D(25,12,13,14)          1.1368         estimate D2E/DX2                !
 ! D56   D(25,12,13,15)        179.2215         estimate D2E/DX2                !
 ! D57   D(12,13,14,26)         90.7851         estimate D2E/DX2                !
 ! D58   D(12,13,14,27)       -149.1669         estimate D2E/DX2                !
 ! D59   D(12,13,14,28)        -29.2896         estimate D2E/DX2                !
 ! D60   D(15,13,14,26)        -87.2624         estimate D2E/DX2                !
 ! D61   D(15,13,14,27)         32.7857         estimate D2E/DX2                !
 ! D62   D(15,13,14,28)        152.6629         estimate D2E/DX2                !
 ! D63   D(12,13,15,16)          0.6175         estimate D2E/DX2                !
 ! D64   D(12,13,15,29)       -179.1996         estimate D2E/DX2                !
 ! D65   D(14,13,15,16)        178.7042         estimate D2E/DX2                !
 ! D66   D(14,13,15,29)         -1.1129         estimate D2E/DX2                !
 ! D67   D(13,15,16,10)         -0.2708         estimate D2E/DX2                !
 ! D68   D(13,15,16,30)        179.6493         estimate D2E/DX2                !
 ! D69   D(29,15,16,10)        179.5449         estimate D2E/DX2                !
 ! D70   D(29,15,16,30)         -0.5349         estimate D2E/DX2                !
 --------------------------------------------------------------------------------
 Trust Radius=3.00D-01 FncErr=1.00D-07 GrdErr=1.00D-06 EigMax=2.50D+02 EigMin=1.00D-04
 Number of steps in this run=    162 maximum allowed number of steps=    180.
 GradGradGradGradGradGradGradGradGradGradGradGradGradGradGradGradGradGrad

                          Input orientation:                          
 ---------------------------------------------------------------------
 Center     Atomic      Atomic             Coordinates (Angstroms)
 Number     Number       Type             X           Y           Z
 ---------------------------------------------------------------------
      1          8           0       -0.404190    2.842910    0.761930
      2         16           0        0.030960    1.630250   -0.006760
      3          7           0        1.054750    0.745480    1.036140
      4          6           0        2.056130   -0.092400    0.547800
      5          6           0        2.985890   -0.634920    1.441980
      6          6           0        3.966560   -1.495940    1.008460
      7          6           0        4.048730   -1.839820   -0.326230
      8          6           0        3.146040   -1.313880   -1.228550
      9          6           0        2.164860   -0.452460   -0.800010
     10          6           0       -1.358410    0.492920   -0.062190
     11          6           0       -1.522380   -0.469320    0.905190
     12          6           0       -2.598790   -1.330810    0.848060
     13          6           0       -3.518700   -1.241340   -0.186660
     14          6           0       -4.695500   -2.150310   -0.237640
     15          6           0       -3.341510   -0.260520   -1.151790
     16          6           0       -2.264080    0.600080   -1.089770
     17          8           0        0.514840    1.741840   -1.423310
     18          1           0        1.315170    1.400080    1.746250
     19          1           0        2.913360   -0.372250    2.482650
     20          1           0        4.672560   -1.904480    1.712610
     21          1           0        4.819000   -2.513410   -0.663800
     22          1           0        3.216100   -1.571920   -2.272490
     23          1           0        1.485740   -0.013420   -1.507440
     24          1           0       -0.801720   -0.541930    1.701420
     25          1           0       -2.732590   -2.079480    1.609670
     26          1           0       -5.548170   -1.707760    0.278060
     27          1           0       -4.991840   -2.351780   -1.267470
     28          1           0       -4.474690   -3.107230    0.236180
     29          1           0       -4.056050   -0.173360   -1.952000
     30          1           0       -2.119020    1.360140   -1.840350
 ---------------------------------------------------------------------
                    Distance matrix (angstroms):
                    1          2          3          4          5
     1  O    0.000000
     2  S    1.500261   0.000000
     3  N    2.569613   1.708392   0.000000
     4  C    3.836023   2.715948   1.394016   0.000000
     5  C    4.904122   3.995179   2.408218   1.399407   0.000000
     6  C    6.163591   5.127639   3.674693   2.414928   1.375140
     7  C    6.552904   5.318451   4.183748   2.790674   2.389138
     8  C    5.817650   4.456949   3.707193   2.415644   2.760139
     9  C    4.460845   3.085524   2.457407   1.399306   2.394557
    10  C    2.666864   1.796369   2.663354   3.517637   4.733655
    11  C    3.498820   2.766354   2.852102   3.616010   4.543134
    12  C    4.716315   4.051442   4.206508   4.826189   5.659121
    13  C    5.223131   4.569297   5.134115   5.739183   6.732749
    14  C    6.659334   6.056844   6.563040   7.101860   8.007577
    15  C    4.682035   4.032327   5.012602   5.661395   6.848636
    16  C    3.452285   2.738863   3.944017   4.671764   5.957950
    17  O    2.613856   1.501068   2.707975   3.102464   4.468217
    18  H    2.450886   2.185227   1.000288   2.052511   2.650493
    19  H    4.929936   4.302952   2.606941   2.134667   1.075756
    20  H    7.015333   6.082352   4.535245   3.389118   2.128351
    21  H    7.616074   6.366078   5.261154   3.868167   3.365015
    22  H    6.465673   5.052974   4.581355   3.389476   3.837741
    23  H    4.108588   2.658962   2.689141   2.134384   3.366867
    24  H    3.535225   2.886105   2.355101   3.114518   3.797624
    25  H    5.510901   4.900220   4.759546   5.292248   5.900499
    26  H    6.885002   6.507697   7.084605   7.778658   8.679624
    27  H    7.221482   6.532570   7.173625   7.620622   8.598424
    28  H    7.228385   6.542447   6.786606   7.199855   7.951511
    29  H    5.458881   4.872435   5.991120   6.604112   7.830776
    30  H    3.451248   2.838560   4.327218   5.024441   6.388588
                    6          7          8          9         10
     6  C    0.000000
     7  C    1.380725   0.000000
     8  C    2.389689   1.380450   0.000000
     9  C    2.757814   2.387091   1.374193   0.000000
    10  C    5.784217   5.894791   4.991492   3.721767   0.000000
    11  C    5.585076   5.867873   5.201949   4.062478   1.374269
    12  C    6.569385   6.769606   6.108655   5.116639   2.386019
    13  C    7.584342   7.592342   6.746077   5.770735   2.773086
    14  C    8.775662   8.750189   7.948035   7.089675   4.260706
    15  C    7.720157   7.602065   6.572957   5.520933   2.384866
    16  C    6.900489   6.810850   5.740375   4.561503   1.373915
    17  O    5.320817   5.149782   4.037149   2.815319   2.630877
    18  H    3.995139   4.718525   4.423471   3.261490   3.352823
    19  H    2.131935   3.366398   3.835859   3.367869   5.047053
    20  H    1.077575   2.133123   3.365931   3.835385   6.728301
    21  H    2.135030   1.077494   2.134622   3.363113   6.896401
    22  H    3.366541   2.133769   1.077638   2.127556   5.484080
    23  H    3.831721   3.361534   2.127339   1.074438   3.230219
    24  H    4.911906   5.415048   4.976489   3.881463   2.119231
    25  H    6.751339   7.056305   6.572665   5.695504   3.361656
    26  H    9.545074   9.616813   8.832571   7.888526   4.744771
    27  H    9.282524   9.103842   8.203892   7.419184   4.769364
    28  H    8.628289   8.635469   7.964739   7.225311   4.770881
    29  H    8.653081   8.432537   7.327637   6.332827   3.360442
    30  H    7.301178   7.111501   5.936795   4.766493   2.119540
                   11         12         13         14         15
    11  C    0.000000
    12  C    1.379887   0.000000
    13  C    2.402799   1.387402   0.000000
    14  C    3.768352   2.499303   1.487845   0.000000
    15  C    2.753906   2.386745   1.387400   2.498052   0.000000
    16  C    2.381932   2.756003   2.404268   3.768630   1.380338
    17  O    3.802816   4.928995   5.167021   6.610771   4.353689
    18  H    3.500533   4.856294   5.837768   7.257358   5.730698
    19  H    4.708884   5.828767   7.017972   8.273828   7.234987
    20  H    6.410062   7.345003   8.434674   9.572066   8.667913
    21  H    6.844935   7.662106   8.447666   9.530958   8.479833
    22  H    5.810901   6.603704   7.058151   8.189540   6.780707
    23  H    3.882965   4.895639   5.319461   6.662313   4.846637
    24  H    1.076385   2.140097   3.381716   4.637711   3.830213
    25  H    2.133897   1.076317   2.132428   2.696403   3.362300
    26  H    4.258405   3.027513   2.133603   1.090341   3.001387
    27  H    4.505692   3.353287   2.138076   1.090393   2.666522
    28  H    4.015256   2.655008   2.138751   1.090394   3.363676
    29  H    3.830223   3.362088   2.132077   2.693744   1.076337
    30  H    3.352744   3.833920   3.385483   4.640063   2.143627
                   16         17         18         19         20
    16  C    0.000000
    17  O    3.022790   0.000000
    18  H    4.636167   3.286858   0.000000
    19  H    6.365021   5.047653   2.497529   0.000000
    20  H    7.889431   6.357380   4.710978   2.456720   0.000000
    21  H    7.748890   6.099984   5.779323   4.256310   2.457553
    22  H    6.012386   4.358775   5.347578   4.913473   4.255925
    23  H    3.822562   2.007651   3.551560   4.252961   4.909241
    24  H    3.351630   4.088138   2.873088   3.800123   5.641313
    25  H    3.832300   5.860653   5.339509   5.962674   7.407933
    26  H    4.240558   7.180146   7.675916   8.845411  10.322788
    27  H    4.023149   6.863347   7.933306   8.970737  10.123319
    28  H    4.515428   7.152817   7.491237   8.192071   9.343374
    29  H    2.133731   4.984028   6.708410   8.263072   9.623657
    30  H    1.078009   2.693851   4.965778   6.856701   8.331076
                   21         22         23         24         25
    21  H    0.000000
    22  H    2.458368   0.000000
    23  H    4.251153   2.451198   0.000000
    24  H    6.408860   5.744190   3.976000   0.000000
    25  H    7.898321   7.121495   5.637312   2.469967   0.000000
    26  H   10.440995   9.128866   7.452160   5.090570   3.136694
    27  H    9.830723   8.305933   6.890904   5.444903   3.668282
    28  H    9.356028   8.234006   6.938198   4.713640   2.444925
    29  H    9.268323   7.412344   5.561893   4.906525   4.250921
    30  H    8.032732   6.103051   3.871923   4.230518   4.910203
                   26         27         28         29         30
    26  H    0.000000
    27  H    1.764349   0.000000
    28  H    1.764265   1.760430   0.000000
    29  H    3.090950   2.467752   3.683882   0.000000
    30  H    5.065446   4.728598   5.460637   2.473090   0.000000
 Stoichiometry    C13H13NO2S
 Framework group  C1[X(C13H13NO2S)]
 Deg. of freedom    84
 Full point group                 C1      NOp   1
 Largest Abelian subgroup         C1      NOp   1
 Largest concise Abelian subgroup C1      NOp   1
                         Standard orientation:                         
 ---------------------------------------------------------------------
 Center     Atomic      Atomic             Coordinates (Angstroms)
 Number     Number       Type             X           Y           Z
 ---------------------------------------------------------------------
      1          8           0        0.330193    2.868221   -0.875747
      2         16           0       -0.051426    1.681647   -0.040767
      3          7           0       -1.148118    0.769045   -0.980463
      4          6           0       -2.113780   -0.049389   -0.396558
      5          6           0       -3.105544   -0.615673   -1.205300
      6          6           0       -4.054475   -1.459014   -0.676797
      7          6           0       -4.042371   -1.761098    0.670423
      8          6           0       -3.077059   -1.211028    1.489715
      9          6           0       -2.127266   -0.367136    0.966128
     10          6           0        1.336423    0.541139   -0.048491
     11          6           0        1.429721   -0.451214   -0.994613
     12          6           0        2.505992   -1.314736   -0.987066
     13          6           0        3.497121   -1.196893   -0.023395
     14          6           0        4.673012   -2.108456   -0.027612
     15          6           0        3.390509   -0.185987    0.920841
     16          6           0        2.312872    0.676499    0.908519
     17          8           0       -0.433433    1.838918    1.402335
     18          1           0       -1.457120    1.402370   -1.690387
     19          1           0       -3.106551   -0.385622   -2.256169
     20          1           0       -4.809336   -1.886379   -1.316103
     21          1           0       -4.787915   -2.420894    1.082522
     22          1           0       -3.073349   -1.436360    2.543525
     23          1           0       -1.398932    0.090922    1.609658
     24          1           0        0.654283   -0.545605   -1.735147
     25          1           0        2.584157   -2.087136   -1.732550
     26          1           0        5.487719   -1.685423   -0.615947
     27          1           0        5.041296   -2.279118    0.984415
     28          1           0        4.417513   -3.078708   -0.454564
     29          1           0        4.160149   -0.076905    1.665324
     30          1           0        2.222713    1.459986    1.643449
 ---------------------------------------------------------------------
 Rotational constants (GHZ):           0.7081846           0.2712212           0.2326067
 Standard basis: def2SVP (5D, 7F)
 There are   324 symmetry adapted cartesian basis functions of A   symmetry.
 There are   307 symmetry adapted basis functions of A   symmetry.
   307 basis functions,   528 primitive gaussians,   324 cartesian basis functions
    65 alpha electrons       65 beta electrons
       nuclear repulsion energy      1310.1772146078 Hartrees.
 NAtoms=   30 NActive=   30 NUniq=   30 SFac= 1.00D+00 NAtFMM=   60 NAOKFM=F Big=F
 Integral buffers will be    131072 words long.
 Raffenetti 2 integral format.
 Two-electron integral symmetry is turned on.
 Nuclear repulsion after empirical dispersion term =     1310.1582977306 Hartrees.
 One-electron integrals computed using PRISM.
   1 Symmetry operations used in ECPInt.
 ECPInt:  NShTT=   10296 NPrTT=   38220 LenC2=    9417 LenP2D=   24683.
 LDataN:  DoStor=T MaxTD1= 4 Len=   56
 NBasis=   307 RedAO= T EigKep=  2.37D-04  NBF=   307
 NBsUse=   307 1.00D-06 EigRej= -1.00D+00 NBFU=   307
 ExpMin= 1.22D-01 ExpMax= 9.18D+03 ExpMxC= 1.38D+03 IAcc=3 IRadAn=         5 AccDes= 0.00D+00
 Harris functional with IExCor= 4639 and IRadAn=       5 diagonalized for initial guess.
 HarFok:  IExCor= 4639 AccDes= 0.00D+00 IRadAn=         5 IDoV= 1 UseB2=F ITyADJ=14
 ICtDFT=  3500011 ScaDFX=  1.000000  1.000000  1.000000  1.000000
 FoFCou: FMM=F IPFlag=           0 FMFlag=      100000 FMFlg1=           0
         NFxFlg=           0 DoJE=T BraDBF=F KetDBF=T FulRan=T
         wScrn=  0.000000 ICntrl=       500 IOpCl=  0 I1Cent=   200000004 NGrid=           0
         NMat0=    1 NMatS0=      1 NMatT0=    0 NMatD0=    1 NMtDS0=    0 NMtDT0=    0
 Petite list used in FoFCou.
 Requested convergence on RMS density matrix=1.00D-08 within 128 cycles.
 Requested convergence on MAX density matrix=1.00D-06.
 Requested convergence on             energy=1.00D-06.
 No special actions if energy rises.
 Integral accuracy reduced to 1.0D-05 until final iterations.
 Initial convergence to 1.0D-05 achieved.  Increase integral accuracy.
 SCF Done:  E(RwB97XD) =  -1105.64344567     A.U. after   15 cycles
            NFock= 15  Conv=0.99D-08     -V/T= 2.0071

 **********************************************************************

            Population analysis using the SCF Density.

 **********************************************************************

 Orbital symmetries:
       Occupied  (A) (A) (A) (A) (A) (A) (A) (A) (A) (A) (A) (A)
                 (A) (A) (A) (A) (A) (A) (A) (A) (A) (A) (A) (A)
                 (A) (A) (A) (A) (A) (A) (A) (A) (A) (A) (A) (A)
                 (A) (A) (A) (A) (A) (A) (A) (A) (A) (A) (A) (A)
                 (A) (A) (A) (A) (A) (A) (A) (A) (A) (A) (A) (A)
                 (A) (A) (A) (A) (A)
       Virtual   (A) (A) (A) (A) (A) (A) (A) (A) (A) (A) (A) (A)
                 (A) (A) (A) (A) (A) (A) (A) (A) (A) (A) (A) (A)
                 (A) (A) (A) (A) (A) (A) (A) (A) (A) (A) (A) (A)
                 (A) (A) (A) (A) (A) (A) (A) (A) (A) (A) (A) (A)
                 (A) (A) (A) (A) (A) (A) (A) (A) (A) (A) (A) (A)
                 (A) (A) (A) (A) (A) (A) (A) (A) (A) (A) (A) (A)
                 (A) (A) (A) (A) (A) (A) (A) (A) (A) (A) (A) (A)
                 (A) (A) (A) (A) (A) (A) (A) (A) (A) (A) (A) (A)
                 (A) (A) (A) (A) (A) (A) (A) (A) (A) (A) (A) (A)
                 (A) (A) (A) (A) (A) (A) (A) (A) (A) (A) (A) (A)
                 (A) (A) (A) (A) (A) (A) (A) (A) (A) (A) (A) (A)
                 (A) (A) (A) (A) (A) (A) (A) (A) (A) (A) (A) (A)
                 (A) (A) (A) (A) (A) (A) (A) (A) (A) (A) (A) (A)
                 (A) (A) (A) (A) (A) (A) (A) (A) (A) (A) (A) (A)
                 (A) (A) (A) (A) (A) (A) (A) (A) (A) (A) (A) (A)
                 (A) (A) (A) (A) (A) (A) (A) (A) (A) (A) (A) (A)
                 (A) (A) (A) (A) (A) (A) (A) (A) (A) (A) (A) (A)
                 (A) (A) (A) (A) (A) (A) (A) (A) (A) (A) (A) (A)
                 (A) (A) (A) (A) (A) (A) (A) (A) (A) (A) (A) (A)
                 (A) (A) (A) (A) (A) (A) (A) (A) (A) (A) (A) (A)
                 (A) (A)
 The electronic state is 1-A.
 Alpha  occ. eigenvalues --  -89.25647 -19.25901 -19.25422 -14.50255 -10.35676
 Alpha  occ. eigenvalues --  -10.33354 -10.32507 -10.32181 -10.32063 -10.31363
 Alpha  occ. eigenvalues --  -10.31337 -10.30710 -10.30698 -10.30507 -10.30143
 Alpha  occ. eigenvalues --  -10.29704 -10.29528  -8.27406  -6.22855  -6.22725
 Alpha  occ. eigenvalues --   -6.22601  -1.20162  -1.08581  -1.05553  -0.98578
 Alpha  occ. eigenvalues --   -0.95483  -0.90184  -0.86354  -0.85184  -0.84747
 Alpha  occ. eigenvalues --   -0.81433  -0.75972  -0.72571  -0.71745  -0.70845
 Alpha  occ. eigenvalues --   -0.68079  -0.64770  -0.63571  -0.60330  -0.58895
 Alpha  occ. eigenvalues --   -0.57679  -0.56462  -0.54958  -0.54124  -0.53554
 Alpha  occ. eigenvalues --   -0.52939  -0.52874  -0.52657  -0.51568  -0.49562
 Alpha  occ. eigenvalues --   -0.48484  -0.47499  -0.46515  -0.46001  -0.44274
 Alpha  occ. eigenvalues --   -0.44136  -0.42797  -0.41300  -0.40849  -0.38823
 Alpha  occ. eigenvalues --   -0.38426  -0.35264  -0.34192  -0.33875  -0.31056
 Alpha virt. eigenvalues --    0.02986   0.04364   0.05804   0.06114   0.10939
 Alpha virt. eigenvalues --    0.13156   0.13805   0.14442   0.15312   0.15993
 Alpha virt. eigenvalues --    0.17205   0.17367   0.18732   0.19309   0.20554
 Alpha virt. eigenvalues --    0.21057   0.21353   0.22671   0.23653   0.24161
 Alpha virt. eigenvalues --    0.24771   0.25519   0.27163   0.29782   0.32509
 Alpha virt. eigenvalues --    0.35331   0.36412   0.37099   0.37249   0.37619
 Alpha virt. eigenvalues --    0.38398   0.39111   0.39778   0.41668   0.43545
 Alpha virt. eigenvalues --    0.45634   0.47276   0.47965   0.48239   0.48960
 Alpha virt. eigenvalues --    0.49327   0.51472   0.51510   0.52391   0.53844
 Alpha virt. eigenvalues --    0.54756   0.55229   0.55721   0.56767   0.57337
 Alpha virt. eigenvalues --    0.58268   0.58566   0.59482   0.60727   0.61784
 Alpha virt. eigenvalues --    0.61914   0.63521   0.63643   0.65482   0.66460
 Alpha virt. eigenvalues --    0.69047   0.69228   0.70417   0.71373   0.71550
 Alpha virt. eigenvalues --    0.72610   0.72925   0.73171   0.74140   0.74446
 Alpha virt. eigenvalues --    0.74668   0.75453   0.75788   0.76526   0.77058
 Alpha virt. eigenvalues --    0.77632   0.78166   0.79351   0.79795   0.80501
 Alpha virt. eigenvalues --    0.80818   0.82528   0.83142   0.83240   0.84104
 Alpha virt. eigenvalues --    0.84782   0.85233   0.88286   0.88966   0.89478
 Alpha virt. eigenvalues --    0.90852   0.91908   0.93341   0.95896   0.96764
 Alpha virt. eigenvalues --    0.98422   0.99398   1.01806   1.03772   1.05719
 Alpha virt. eigenvalues --    1.09155   1.10206   1.11193   1.12335   1.13036
 Alpha virt. eigenvalues --    1.15534   1.17337   1.18351   1.21084   1.22611
 Alpha virt. eigenvalues --    1.24408   1.25107   1.27706   1.28796   1.29249
 Alpha virt. eigenvalues --    1.30040   1.30595   1.32077   1.32418   1.32912
 Alpha virt. eigenvalues --    1.35035   1.35775   1.36733   1.37986   1.38207
 Alpha virt. eigenvalues --    1.38507   1.41110   1.42022   1.42666   1.48447
 Alpha virt. eigenvalues --    1.54793   1.57326   1.59810   1.61368   1.61917
 Alpha virt. eigenvalues --    1.63035   1.64334   1.69448   1.74266   1.75043
 Alpha virt. eigenvalues --    1.76447   1.77716   1.78307   1.80769   1.81421
 Alpha virt. eigenvalues --    1.82323   1.82635   1.83352   1.83717   1.83959
 Alpha virt. eigenvalues --    1.84961   1.85696   1.86003   1.87734   1.87924
 Alpha virt. eigenvalues --    1.88192   1.88816   1.89309   1.92142   1.92916
 Alpha virt. eigenvalues --    1.93613   1.95001   1.96242   2.00278   2.02214
 Alpha virt. eigenvalues --    2.04028   2.04869   2.06191   2.06716   2.08544
 Alpha virt. eigenvalues --    2.10052   2.11037   2.13604   2.13955   2.16727
 Alpha virt. eigenvalues --    2.17553   2.19780   2.21139   2.21559   2.22777
 Alpha virt. eigenvalues --    2.24579   2.26651   2.29125   2.31097   2.31560
 Alpha virt. eigenvalues --    2.32945   2.34800   2.36198   2.38515   2.38870
 Alpha virt. eigenvalues --    2.40517   2.42501   2.44058   2.44277   2.45733
 Alpha virt. eigenvalues --    2.46208   2.51937   2.55462   2.56774   2.57096
 Alpha virt. eigenvalues --    2.59843   2.62298   2.68650   2.70591   2.71822
 Alpha virt. eigenvalues --    2.72532   2.72795   2.73470   2.73693   2.74058
 Alpha virt. eigenvalues --    2.74649   2.75238   2.77092   2.78491   2.81378
 Alpha virt. eigenvalues --    2.82867   2.83124   2.84259   2.85279   2.85844
 Alpha virt. eigenvalues --    2.89359   2.94373   2.94910   2.96360   2.99705
 Alpha virt. eigenvalues --    3.00932   3.01496   3.03173   3.03559   3.04702
 Alpha virt. eigenvalues --    3.06885   3.08953   3.22968   3.23556   3.25319
 Alpha virt. eigenvalues --    3.31384   3.33647   3.34701   3.45421   3.47178
 Alpha virt. eigenvalues --    3.69668   3.78514
          Condensed to atoms (all electrons):
               1          2          3          4          5          6
     1  O    8.163496   0.417657  -0.044735   0.000568  -0.000080   0.000000
     2  S    0.417657  13.965746   0.191285  -0.029681   0.001066  -0.000184
     3  N   -0.044735   0.191285   6.871710   0.248252  -0.071605   0.006875
     4  C    0.000568  -0.029681   0.248252   5.193196   0.261430   0.109723
     5  C   -0.000080   0.001066  -0.071605   0.261430   5.145649   0.308064
     6  C    0.000000  -0.000184   0.006875   0.109723   0.308064   5.010420
     7  C   -0.000000   0.000077  -0.000408  -0.163129   0.085759   0.284986
     8  C    0.000007  -0.001360   0.007626   0.106449  -0.146724   0.096580
     9  C    0.000155   0.000125  -0.076690   0.260399   0.073858  -0.146165
    10  C   -0.039902   0.243827  -0.077852   0.004944  -0.000738  -0.000004
    11  C   -0.000267  -0.043732  -0.024090   0.001536  -0.000319  -0.000019
    12  C   -0.000059   0.002987   0.000493  -0.000317  -0.000007   0.000001
    13  C   -0.000011   0.000734  -0.000063   0.000008  -0.000001   0.000000
    14  C   -0.000000   0.000009   0.000000  -0.000000  -0.000000   0.000000
    15  C   -0.000136   0.000637  -0.000003  -0.000018   0.000000  -0.000000
    16  C   -0.002655  -0.035791   0.008639  -0.000764  -0.000011   0.000000
    17  O   -0.027972   0.383668  -0.037873   0.001380   0.000302  -0.000004
    18  H    0.012577  -0.002486   0.318744  -0.002105  -0.014339   0.000252
    19  H   -0.000024  -0.000139  -0.009451  -0.082899   0.452839  -0.059636
    20  H   -0.000000   0.000003  -0.000116   0.015557  -0.068977   0.453631
    21  H    0.000000   0.000000   0.000011  -0.001434   0.014441  -0.070316
    22  H   -0.000000  -0.000012  -0.000108   0.015222  -0.001891   0.014012
    23  H    0.000407  -0.004154  -0.011142  -0.071923   0.013380  -0.002144
    24  H    0.000633  -0.017156   0.021379  -0.001533  -0.000473   0.000075
    25  H    0.000001  -0.000158  -0.000010   0.000006   0.000001  -0.000000
    26  H   -0.000000   0.000000   0.000000  -0.000000   0.000000  -0.000000
    27  H    0.000000  -0.000000   0.000000  -0.000000  -0.000000  -0.000000
    28  H    0.000000  -0.000000   0.000000   0.000000  -0.000000   0.000000
    29  H    0.000002  -0.000173   0.000001   0.000000   0.000000  -0.000000
    30  H    0.000707  -0.008781   0.000566  -0.000107  -0.000001   0.000000
               7          8          9         10         11         12
     1  O   -0.000000   0.000007   0.000155  -0.039902  -0.000267  -0.000059
     2  S    0.000077  -0.001360   0.000125   0.243827  -0.043732   0.002987
     3  N   -0.000408   0.007626  -0.076690  -0.077852  -0.024090   0.000493
     4  C   -0.163129   0.106449   0.260399   0.004944   0.001536  -0.000317
     5  C    0.085759  -0.146724   0.073858  -0.000738  -0.000319  -0.000007
     6  C    0.284986   0.096580  -0.146165  -0.000004  -0.000019   0.000001
     7  C    5.105399   0.273941   0.086751  -0.000005  -0.000008   0.000002
     8  C    0.273941   5.051323   0.264217  -0.000372   0.000014  -0.000007
     9  C    0.086751   0.264217   5.195073   0.000201   0.000932  -0.000150
    10  C   -0.000005  -0.000372   0.000201   5.687854   0.261320   0.097000
    11  C   -0.000008   0.000014   0.000932   0.261320   5.025221   0.307727
    12  C    0.000002  -0.000007  -0.000150   0.097000   0.307727   5.070944
    13  C   -0.000000   0.000001  -0.000014  -0.188287   0.095350   0.288452
    14  C   -0.000000  -0.000000  -0.000000   0.000640   0.009735  -0.076450
    15  C    0.000000   0.000000   0.000013   0.098867  -0.123527   0.055036
    16  C    0.000000  -0.000007  -0.000295   0.185663   0.055714  -0.127794
    17  O   -0.000031   0.001443  -0.019891  -0.063489   0.002271  -0.000022
    18  H    0.000006  -0.000277   0.003938   0.003036   0.002099   0.000064
    19  H    0.014857  -0.002200   0.016698  -0.000017  -0.000026   0.000000
    20  H   -0.069139   0.013804  -0.001880   0.000000   0.000000  -0.000000
    21  H    0.451726  -0.067707   0.014766   0.000000   0.000000   0.000000
    22  H   -0.073922   0.456475  -0.065894   0.000005   0.000001   0.000000
    23  H    0.013648  -0.047097   0.440720  -0.003122  -0.000868  -0.000067
    24  H    0.000001   0.000051  -0.000531  -0.069651   0.453758  -0.062602
    25  H   -0.000000   0.000000   0.000003   0.016830  -0.065541   0.459344
    26  H   -0.000000   0.000000  -0.000000   0.000070  -0.000317  -0.003514
    27  H    0.000000  -0.000000   0.000000   0.000019  -0.000539   0.007226
    28  H    0.000000  -0.000000   0.000000   0.000024   0.000950  -0.008795
    29  H   -0.000000   0.000000  -0.000000   0.016586  -0.001846   0.014357
    30  H   -0.000000   0.000006   0.000037  -0.077531   0.012832  -0.001824
              13         14         15         16         17         18
     1  O   -0.000011  -0.000000  -0.000136  -0.002655  -0.027972   0.012577
     2  S    0.000734   0.000009   0.000637  -0.035791   0.383668  -0.002486
     3  N   -0.000063   0.000000  -0.000003   0.008639  -0.037873   0.318744
     4  C    0.000008  -0.000000  -0.000018  -0.000764   0.001380  -0.002105
     5  C   -0.000001  -0.000000   0.000000  -0.000011   0.000302  -0.014339
     6  C    0.000000   0.000000  -0.000000   0.000000  -0.000004   0.000252
     7  C   -0.000000  -0.000000   0.000000   0.000000  -0.000031   0.000006
     8  C    0.000001  -0.000000   0.000000  -0.000007   0.001443  -0.000277
     9  C   -0.000014  -0.000000   0.000013  -0.000295  -0.019891   0.003938
    10  C   -0.188287   0.000640   0.098867   0.185663  -0.063489   0.003036
    11  C    0.095350   0.009735  -0.123527   0.055714   0.002271   0.002099
    12  C    0.288452  -0.076450   0.055036  -0.127794  -0.000022   0.000064
    13  C    5.258284   0.407712   0.283930   0.100259  -0.000032   0.000006
    14  C    0.407712   4.549902  -0.077363   0.009857  -0.000000  -0.000000
    15  C    0.283930  -0.077363   5.072921   0.302833   0.000957   0.000003
    16  C    0.100259   0.009857   0.302833   5.074387   0.003322  -0.000530
    17  O   -0.000032  -0.000000   0.000957   0.003322   8.176697   0.001094
    18  H    0.000006  -0.000000   0.000003  -0.000530   0.001094   0.507366
    19  H    0.000000   0.000000  -0.000000   0.000001   0.000014   0.002908
    20  H   -0.000000  -0.000000   0.000000   0.000000  -0.000000  -0.000023
    21  H    0.000000   0.000000  -0.000000  -0.000000   0.000000  -0.000001
    22  H    0.000000   0.000000  -0.000000  -0.000001   0.000012   0.000010
    23  H   -0.000005  -0.000000   0.000089   0.000605   0.034262  -0.000448
    24  H    0.014592  -0.000221  -0.001891   0.013734   0.000286  -0.000524
    25  H   -0.076720  -0.013898   0.014568  -0.001990   0.000001  -0.000004
    26  H   -0.011504   0.389633  -0.003281  -0.000301   0.000000  -0.000000
    27  H   -0.018689   0.391904  -0.008578   0.000834   0.000000  -0.000000
    28  H   -0.019296   0.392477   0.007424  -0.000523  -0.000000   0.000000
    29  H   -0.075912  -0.013440   0.460654  -0.067246  -0.000004  -0.000000
    30  H    0.014139  -0.000225  -0.050141   0.451798   0.010075  -0.000033
              19         20         21         22         23         24
     1  O   -0.000024  -0.000000   0.000000  -0.000000   0.000407   0.000633
     2  S   -0.000139   0.000003   0.000000  -0.000012  -0.004154  -0.017156
     3  N   -0.009451  -0.000116   0.000011  -0.000108  -0.011142   0.021379
     4  C   -0.082899   0.015557  -0.001434   0.015222  -0.071923  -0.001533
     5  C    0.452839  -0.068977   0.014441  -0.001891   0.013380  -0.000473
     6  C   -0.059636   0.453631  -0.070316   0.014012  -0.002144   0.000075
     7  C    0.014857  -0.069139   0.451726  -0.073922   0.013648   0.000001
     8  C   -0.002200   0.013804  -0.067707   0.456475  -0.047097   0.000051
     9  C    0.016698  -0.001880   0.014766  -0.065894   0.440720  -0.000531
    10  C   -0.000017   0.000000   0.000000   0.000005  -0.003122  -0.069651
    11  C   -0.000026   0.000000   0.000000   0.000001  -0.000868   0.453758
    12  C    0.000000  -0.000000   0.000000   0.000000  -0.000067  -0.062602
    13  C    0.000000  -0.000000   0.000000   0.000000  -0.000005   0.014592
    14  C    0.000000  -0.000000   0.000000   0.000000  -0.000000  -0.000221
    15  C   -0.000000   0.000000  -0.000000  -0.000000   0.000089  -0.001891
    16  C    0.000001   0.000000  -0.000000  -0.000001   0.000605   0.013734
    17  O    0.000014  -0.000000   0.000000   0.000012   0.034262   0.000286
    18  H    0.002908  -0.000023  -0.000001   0.000010  -0.000448  -0.000524
    19  H    0.687783  -0.013077  -0.000233   0.000024  -0.000114   0.000100
    20  H   -0.013077   0.667261  -0.012311  -0.000256   0.000016  -0.000001
    21  H   -0.000233  -0.012311   0.671644  -0.012000  -0.000203  -0.000000
    22  H    0.000024  -0.000256  -0.012000   0.664319  -0.012906   0.000001
    23  H   -0.000114   0.000016  -0.000203  -0.012906   0.621726  -0.000088
    24  H    0.000100  -0.000001  -0.000000   0.000001  -0.000088   0.639796
    25  H    0.000000   0.000000  -0.000000  -0.000000   0.000000  -0.011965
    26  H   -0.000000  -0.000000  -0.000000   0.000000   0.000000   0.000006
    27  H    0.000000   0.000000  -0.000000  -0.000000   0.000000   0.000008
    28  H    0.000000   0.000000   0.000000   0.000000  -0.000000  -0.000009
    29  H    0.000000  -0.000000   0.000000   0.000000  -0.000001   0.000026
    30  H   -0.000000   0.000000  -0.000000  -0.000000   0.000193  -0.000212
              25         26         27         28         29         30
     1  O    0.000001  -0.000000   0.000000   0.000000   0.000002   0.000707
     2  S   -0.000158   0.000000  -0.000000  -0.000000  -0.000173  -0.008781
     3  N   -0.000010   0.000000   0.000000   0.000000   0.000001   0.000566
     4  C    0.000006  -0.000000  -0.000000   0.000000   0.000000  -0.000107
     5  C    0.000001   0.000000  -0.000000  -0.000000   0.000000  -0.000001
     6  C   -0.000000  -0.000000  -0.000000   0.000000  -0.000000   0.000000
     7  C   -0.000000  -0.000000   0.000000   0.000000  -0.000000  -0.000000
     8  C    0.000000   0.000000  -0.000000  -0.000000   0.000000   0.000006
     9  C    0.000003  -0.000000   0.000000   0.000000  -0.000000   0.000037
    10  C    0.016830   0.000070   0.000019   0.000024   0.016586  -0.077531
    11  C   -0.065541  -0.000317  -0.000539   0.000950  -0.001846   0.012832
    12  C    0.459344  -0.003514   0.007226  -0.008795   0.014357  -0.001824
    13  C   -0.076720  -0.011504  -0.018689  -0.019296  -0.075912   0.014139
    14  C   -0.013898   0.389633   0.391904   0.392477  -0.013440  -0.000225
    15  C    0.014568  -0.003281  -0.008578   0.007424   0.460654  -0.050141
    16  C   -0.001990  -0.000301   0.000834  -0.000523  -0.067246   0.451798
    17  O    0.000001   0.000000   0.000000  -0.000000  -0.000004   0.010075
    18  H   -0.000004  -0.000000  -0.000000   0.000000  -0.000000  -0.000033
    19  H    0.000000  -0.000000   0.000000   0.000000   0.000000  -0.000000
    20  H    0.000000  -0.000000   0.000000   0.000000  -0.000000   0.000000
    21  H   -0.000000  -0.000000  -0.000000   0.000000   0.000000  -0.000000
    22  H   -0.000000   0.000000  -0.000000   0.000000   0.000000  -0.000000
    23  H    0.000000   0.000000   0.000000  -0.000000  -0.000001   0.000193
    24  H   -0.011965   0.000006   0.000008  -0.000009   0.000026  -0.000212
    25  H    0.669244   0.000663   0.000163   0.004667  -0.000225   0.000023
    26  H    0.000663   0.597329  -0.017143  -0.017153   0.000747   0.000003
    27  H    0.000163  -0.017143   0.619265  -0.022295   0.004372  -0.000001
    28  H    0.004667  -0.017153  -0.022295   0.620715   0.000157   0.000008
    29  H   -0.000225   0.000747   0.004372   0.000157   0.665069  -0.011400
    30  H    0.000023   0.000003  -0.000001   0.000008  -0.011400   0.629820
 Mulliken charges:
               1
     1  O   -0.480369
     2  S    0.935985
     3  N   -0.321436
     4  C    0.135239
     5  C   -0.051623
     6  C   -0.006147
     7  C   -0.010512
     8  C   -0.006186
     9  C   -0.046377
    10  C   -0.095916
    11  C    0.031636
    12  C   -0.022025
    13  C   -0.072932
    14  C    0.029729
    15  C   -0.032992
    16  C    0.030261
    17  O   -0.466467
    18  H    0.168665
    19  H   -0.007408
    20  H    0.015508
    21  H    0.011616
    22  H    0.016909
    23  H    0.029235
    24  H    0.022414
    25  H    0.004996
    26  H    0.064761
    27  H    0.043456
    28  H    0.041652
    29  H    0.008278
    30  H    0.030049
 Sum of Mulliken charges =  -0.00000
 Mulliken charges with hydrogens summed into heavy atoms:
               1
     1  O   -0.480369
     2  S    0.935985
     3  N   -0.152771
     4  C    0.135239
     5  C   -0.059031
     6  C    0.009360
     7  C    0.001104
     8  C    0.010723
     9  C   -0.017141
    10  C   -0.095916
    11  C    0.054050
    12  C   -0.017029
    13  C   -0.072932
    14  C    0.179599
    15  C   -0.024714
    16  C    0.060310
    17  O   -0.466467
 Electronic spatial extent (au):  <R**2>=           4902.4664
 Charge=             -0.0000 electrons
 Dipole moment (field-independent basis, Debye):
    X=              1.1203    Y=             -3.9514    Z=             -1.3603  Tot=              4.3265
 Quadrupole moment (field-independent basis, Debye-Ang):
   XX=            -89.5853   YY=           -114.8886   ZZ=           -101.2817
   XY=             -2.9631   XZ=              6.4345   YZ=              0.1331
 Traceless Quadrupole moment (field-independent basis, Debye-Ang):
   XX=             12.3332   YY=            -12.9701   ZZ=              0.6369
   XY=             -2.9631   XZ=              6.4345   YZ=              0.1331
 Octapole moment (field-independent basis, Debye-Ang**2):
  XXX=             35.8798  YYY=            -15.8150  ZZZ=             -5.7376  XYY=             -0.4509
  XXY=            -29.7734  XXZ=              2.6744  XZZ=             -7.7799  YZZ=             -3.2981
  YYZ=              1.7788  XYZ=             17.5285
 Hexadecapole moment (field-independent basis, Debye-Ang**3):
 XXXX=          -4347.6007 YYYY=          -1475.6652 ZZZZ=           -616.4254 XXXY=             17.6456
 XXXZ=             71.9183 YYYX=            -40.4907 YYYZ=             27.4641 ZZZX=             18.0858
 ZZZY=            -15.7680 XXYY=           -922.3934 XXZZ=           -815.1244 YYZZ=           -339.7398
 XXYZ=              0.5589 YYXZ=              4.1919 ZZXY=              6.9111
 N-N= 1.310158297731D+03 E-N=-5.209086080398D+03  KE= 1.097877982712D+03
   1 Symmetry operations used in ECPInt.
 ECPInt:  NShTT=   10296 NPrTT=   38220 LenC2=    9417 LenP2D=   24683.
 LDataN:  DoStor=T MaxTD1= 5 Len=  102
 Calling FoFJK, ICntrl=      2127 FMM=F ISym2X=0 I1Cent= 0 IOpClX= 0 NMat=1 NMatS=1 NMatT=0.
 ***** Axes restored to original set *****
 -------------------------------------------------------------------
 Center     Atomic                   Forces (Hartrees/Bohr)
 Number     Number              X              Y              Z
 -------------------------------------------------------------------
      1        8           0.025845088   -0.041924087   -0.025289644
      2       16          -0.027975868    0.025216116   -0.015151993
      3        7          -0.013312438    0.022791234   -0.022157692
      4        6           0.020230492   -0.016765289   -0.008269969
      5        6          -0.012507211    0.009181140    0.001104728
      6        6           0.002814336   -0.001894889   -0.001284420
      7        6           0.005184882   -0.004699301   -0.003048292
      8        6           0.004926765   -0.003930604    0.003430298
      9        6          -0.011982594    0.006150146    0.004288301
     10        6           0.015086461    0.006820012    0.000290488
     11        6           0.002226536   -0.004123900    0.011413990
     12        6          -0.000318232    0.002060376   -0.002951423
     13        6          -0.004315722   -0.002090008    0.001489526
     14        6          -0.000372985   -0.005078195   -0.002315687
     15        6           0.002493576    0.001501641    0.001708010
     16        6          -0.003319002    0.007392825   -0.010968989
     17        8          -0.012441419    0.007480079    0.052302041
     18        1           0.007249525    0.007238621    0.016083982
     19        1           0.000028402    0.002564651    0.012841791
     20        1           0.006367412   -0.003368713    0.007538178
     21        1           0.007688561   -0.006677789   -0.002997825
     22        1          -0.000434174   -0.001742396   -0.010018943
     23        1          -0.003802783   -0.000356820   -0.007504596
     24        1           0.005868747   -0.002107504    0.007721455
     25        1           0.000086024   -0.008122539    0.008451256
     26        1          -0.006305644    0.002668302    0.003408288
     27        1          -0.003019355   -0.000759128   -0.005432275
     28        1           0.000099798   -0.005144680    0.003368374
     29        1          -0.006687491    0.001607764   -0.009515387
     30        1           0.000598314    0.006112935   -0.008533569
 -------------------------------------------------------------------
 Cartesian Forces:  Max     0.052302041 RMS     0.011744870

 GradGradGradGradGradGradGradGradGradGradGradGradGradGradGradGradGradGrad
 Berny optimization.
 FormGI is forming the generalized inverse of G from B-inverse, IUseBI=4.
 Internal  Forces:  Max     0.054341491 RMS     0.010029143
 Search for a local minimum.
 Step number   1 out of a maximum of  162
 All quantities printed in internal units (Hartrees-Bohrs-Radians)
 Mixed Optimization -- RFO/linear search
 Second derivative matrix not updated -- first step.
 ITU=  0
     Eigenvalues ---    0.00418   0.00927   0.01185   0.01603   0.01744
     Eigenvalues ---    0.01771   0.02008   0.02140   0.02245   0.02270
     Eigenvalues ---    0.02275   0.02301   0.02310   0.02339   0.02346
     Eigenvalues ---    0.02348   0.02368   0.02384   0.02386   0.02393
     Eigenvalues ---    0.02394   0.02420   0.02606   0.07313   0.07341
     Eigenvalues ---    0.10127   0.11421   0.11952   0.13506   0.15989
     Eigenvalues ---    0.15999   0.15999   0.16000   0.16000   0.16000
     Eigenvalues ---    0.16000   0.16000   0.16000   0.16000   0.16000
     Eigenvalues ---    0.16000   0.17876   0.22000   0.22000   0.22000
     Eigenvalues ---    0.22892   0.22976   0.23458   0.23997   0.24985
     Eigenvalues ---    0.24989   0.25000   0.25000   0.26405   0.33687
     Eigenvalues ---    0.34767   0.34767   0.34773   0.34899   0.36236
     Eigenvalues ---    0.36281   0.36289   0.36299   0.36435   0.36441
     Eigenvalues ---    0.36443   0.36512   0.36675   0.42617   0.43491
     Eigenvalues ---    0.44022   0.44284   0.46627   0.47098   0.47638
     Eigenvalues ---    0.47807   0.48078   0.49082   0.49233   0.49271
     Eigenvalues ---    0.50024   0.50095   0.76324   0.76590
 RFO step:  Lambda=-3.96908275D-02 EMin= 4.18334772D-03
 Linear search not attempted -- first point.
 Maximum step size (   0.300) exceeded in Quadratic search.
    -- Step size scaled by   0.975
 Iteration  1 RMS(Cart)=  0.19589091 RMS(Int)=  0.00834356
 Iteration  2 RMS(Cart)=  0.04021816 RMS(Int)=  0.00090148
 Iteration  3 RMS(Cart)=  0.00063013 RMS(Int)=  0.00087434
 Iteration  4 RMS(Cart)=  0.00000129 RMS(Int)=  0.00087434
 Iteration  5 RMS(Cart)=  0.00000001 RMS(Int)=  0.00087434
 Variable       Old X    -DE/DX   Delta X   Delta X   Delta X     New X
                                 (Linear)    (Quad)   (Total)
    R1        2.83508  -0.05434   0.00000  -0.06574  -0.06574   2.76934
    R2        3.22839  -0.00304   0.00000  -0.00762  -0.00762   3.22077
    R3        3.39465  -0.00205   0.00000  -0.00657  -0.00657   3.38808
    R4        2.83661  -0.05281   0.00000  -0.06410  -0.06410   2.77251
    R5        2.63431   0.02762   0.00000   0.05320   0.05320   2.68750
    R6        1.89027   0.01804   0.00000   0.03407   0.03407   1.92434
    R7        2.64450   0.00487   0.00000   0.00884   0.00884   2.65333
    R8        2.64431   0.00689   0.00000   0.01315   0.01316   2.65747
    R9        2.59864   0.01568   0.00000   0.02801   0.02800   2.62663
   R10        2.03288   0.01305   0.00000   0.03141   0.03141   2.06430
   R11        2.60919   0.01135   0.00000   0.02124   0.02123   2.63042
   R12        2.03632   0.01037   0.00000   0.02512   0.02512   2.06144
   R13        2.60867   0.01234   0.00000   0.02337   0.02337   2.63205
   R14        2.03617   0.01061   0.00000   0.02568   0.02568   2.06185
   R15        2.59685   0.01925   0.00000   0.03495   0.03496   2.63181
   R16        2.03644   0.01009   0.00000   0.02444   0.02444   2.06088
   R17        2.03039   0.00720   0.00000   0.01726   0.01726   2.04766
   R18        2.59699   0.01964   0.00000   0.03610   0.03611   2.63310
   R19        2.59632   0.02018   0.00000   0.03693   0.03694   2.63326
   R20        2.60761   0.01243   0.00000   0.02292   0.02292   2.63053
   R21        2.03407   0.00978   0.00000   0.02360   0.02360   2.05767
   R22        2.62181   0.01409   0.00000   0.02587   0.02586   2.64767
   R23        2.03394   0.01162   0.00000   0.02802   0.02802   2.06197
   R24        2.81162   0.01270   0.00000   0.03288   0.03288   2.84450
   R25        2.62181   0.01470   0.00000   0.02691   0.02690   2.64871
   R26        2.06045   0.00763   0.00000   0.01918   0.01918   2.07963
   R27        2.06054   0.00609   0.00000   0.01532   0.01532   2.07587
   R28        2.06055   0.00600   0.00000   0.01509   0.01509   2.07564
   R29        2.60846   0.01028   0.00000   0.01880   0.01880   2.62726
   R30        2.03398   0.01164   0.00000   0.02808   0.02808   2.06206
   R31        2.03714   0.01033   0.00000   0.02504   0.02504   2.06219
    A1        1.85423  -0.01460   0.00000  -0.07538  -0.07877   1.77546
    A2        1.87888   0.00583   0.00000   0.04278   0.04490   1.92378
    A3        2.11406  -0.00338   0.00000  -0.04358  -0.04755   2.06651
    A4        1.72586   0.02110   0.00000   0.09345   0.09248   1.81833
    A5        2.00579  -0.00251   0.00000  -0.01035  -0.01488   1.99091
    A6        1.84135   0.00047   0.00000   0.03273   0.03201   1.87336
    A7        2.12694   0.04098   0.00000   0.15632   0.15426   2.28120
    A8        1.82396  -0.01255   0.00000  -0.02449  -0.02664   1.79732
    A9        2.04318  -0.01486   0.00000  -0.04310  -0.04652   1.99666
   A10        2.07881  -0.02158   0.00000  -0.07194  -0.07201   2.00680
   A11        2.15064   0.01869   0.00000   0.06360   0.06339   2.21403
   A12        2.05339   0.00284   0.00000   0.00759   0.00748   2.06087
   A13        2.11193   0.00177   0.00000   0.00481   0.00479   2.11672
   A14        2.06994   0.00026   0.00000   0.00319   0.00319   2.07314
   A15        2.10127  -0.00202   0.00000  -0.00794  -0.00794   2.09333
   A16        2.09801   0.00035   0.00000   0.00158   0.00156   2.09957
   A17        2.09279  -0.00123   0.00000  -0.00595  -0.00594   2.08685
   A18        2.09238   0.00088   0.00000   0.00437   0.00438   2.09676
   A19        2.09214  -0.00481   0.00000  -0.01578  -0.01579   2.07634
   A20        2.09565   0.00206   0.00000   0.00620   0.00619   2.10184
   A21        2.09538   0.00276   0.00000   0.00962   0.00961   2.10500
   A22        2.09657   0.00434   0.00000   0.01850   0.01853   2.11510
   A23        2.09377  -0.00084   0.00000  -0.00276  -0.00277   2.09100
   A24        2.09280  -0.00350   0.00000  -0.01572  -0.01573   2.07706
   A25        2.11431  -0.00448   0.00000  -0.01662  -0.01661   2.09771
   A26        2.07137   0.00634   0.00000   0.02850   0.02846   2.09983
   A27        2.09685  -0.00184   0.00000  -0.01146  -0.01149   2.08535
   A28        2.11048   0.00717   0.00000   0.02281   0.02278   2.13326
   A29        2.07549  -0.00870   0.00000  -0.03058  -0.03061   2.04487
   A30        2.09721   0.00152   0.00000   0.00774   0.00774   2.10496
   A31        2.09563  -0.00393   0.00000  -0.01293  -0.01291   2.08272
   A32        2.08066   0.00364   0.00000   0.01462   0.01461   2.09527
   A33        2.10689   0.00029   0.00000  -0.00170  -0.00171   2.10518
   A34        2.10347   0.00320   0.00000   0.01093   0.01094   2.11441
   A35        2.09664  -0.00299   0.00000  -0.01223  -0.01223   2.08441
   A36        2.08307  -0.00021   0.00000   0.00130   0.00130   2.08437
   A37        2.10666   0.00049   0.00000   0.00297   0.00297   2.10963
   A38        2.07113  -0.00077   0.00000  -0.00512  -0.00514   2.06599
   A39        2.10491   0.00029   0.00000   0.00233   0.00233   2.10723
   A40        1.93303  -0.00000   0.00000  -0.00164  -0.00164   1.93139
   A41        1.93928   0.00117   0.00000   0.00648   0.00645   1.94573
   A42        1.94023   0.00109   0.00000   0.00621   0.00618   1.94642
   A43        1.88511  -0.00118   0.00000  -0.00741  -0.00741   1.87770
   A44        1.88498  -0.00107   0.00000  -0.00664  -0.00664   1.87834
   A45        1.87894  -0.00014   0.00000   0.00239   0.00234   1.88128
   A46        2.10504   0.00248   0.00000   0.00760   0.00758   2.11262
   A47        2.08247   0.00016   0.00000   0.00303   0.00304   2.08551
   A48        2.09566  -0.00264   0.00000  -0.01062  -0.01062   2.08505
   A49        2.09383  -0.00250   0.00000  -0.00818  -0.00818   2.08565
   A50        2.07949   0.00292   0.00000   0.01225   0.01224   2.09173
   A51        2.10986  -0.00042   0.00000  -0.00407  -0.00408   2.10578
    D1       -2.66902   0.00601   0.00000  -0.01319  -0.01703  -2.68605
    D2       -0.30275   0.00970   0.00000   0.04883   0.04693  -0.25581
    D3        1.66952  -0.00405   0.00000  -0.07305  -0.07291   1.59661
    D4       -2.24739  -0.00037   0.00000  -0.01103  -0.00894  -2.25633
    D5       -0.28129  -0.01559   0.00000  -0.15989  -0.15910  -0.44039
    D6        2.08499  -0.01190   0.00000  -0.09786  -0.09514   1.98985
    D7       -1.58897   0.00310   0.00000   0.03415   0.03323  -1.55574
    D8        1.54963   0.00242   0.00000   0.02230   0.02142   1.57105
    D9        0.33595  -0.00274   0.00000   0.00146   0.00114   0.33709
   D10       -2.80863  -0.00342   0.00000  -0.01040  -0.01067  -2.81929
   D11        2.41423   0.00321   0.00000   0.03886   0.04003   2.45426
   D12       -0.73035   0.00253   0.00000   0.02700   0.02822  -0.70212
   D13        2.97850   0.00178   0.00000  -0.00450  -0.00513   2.97337
   D14       -0.19210  -0.00009   0.00000  -0.03566  -0.03625  -0.22835
   D15        0.70171  -0.00773   0.00000  -0.09713  -0.09653   0.60517
   D16       -2.46889  -0.00960   0.00000  -0.12828  -0.12765  -2.59654
   D17        3.10916  -0.00035   0.00000  -0.01007  -0.00892   3.10024
   D18       -0.02209  -0.00083   0.00000  -0.01691  -0.01595  -0.03804
   D19       -0.00505   0.00112   0.00000   0.01832   0.01821   0.01316
   D20       -3.13629   0.00064   0.00000   0.01148   0.01118  -3.12511
   D21       -3.10725   0.00139   0.00000   0.01875   0.01989  -3.08736
   D22        0.07310   0.00061   0.00000   0.00638   0.00713   0.08024
   D23        0.00573  -0.00085   0.00000  -0.01324  -0.01327  -0.00754
   D24       -3.09710  -0.00162   0.00000  -0.02561  -0.02603  -3.12312
   D25        0.00041  -0.00066   0.00000  -0.01099  -0.01069  -0.01028
   D26       -3.14004  -0.00046   0.00000  -0.00707  -0.00702   3.13612
   D27        3.13147  -0.00016   0.00000  -0.00397  -0.00352   3.12795
   D28       -0.00898   0.00005   0.00000  -0.00005   0.00015  -0.00883
   D29        0.00373  -0.00016   0.00000  -0.00217  -0.00223   0.00150
   D30        3.13986   0.00025   0.00000   0.00428   0.00415  -3.13918
   D31       -3.13900  -0.00037   0.00000  -0.00609  -0.00593   3.13825
   D32       -0.00287   0.00005   0.00000   0.00036   0.00045  -0.00242
   D33       -0.00305   0.00045   0.00000   0.00727   0.00710   0.00405
   D34        3.12874   0.00065   0.00000   0.00972   0.00974   3.13847
   D35       -3.13918   0.00004   0.00000   0.00083   0.00072  -3.13847
   D36       -0.00740   0.00024   0.00000   0.00329   0.00335  -0.00404
   D37       -0.00177   0.00008   0.00000   0.00070   0.00085  -0.00092
   D38        3.10049   0.00104   0.00000   0.01413   0.01438   3.11488
   D39       -3.13357  -0.00014   0.00000  -0.00183  -0.00184  -3.13540
   D40       -0.03130   0.00082   0.00000   0.01160   0.01170  -0.01960
   D41        3.13753  -0.00063   0.00000  -0.01024  -0.01042   3.12711
   D42       -0.00683  -0.00081   0.00000  -0.01317  -0.01333  -0.02016
   D43       -0.00104   0.00008   0.00000   0.00183   0.00185   0.00081
   D44        3.13779  -0.00010   0.00000  -0.00110  -0.00106   3.13673
   D45       -3.13888   0.00077   0.00000   0.01257   0.01239  -3.12649
   D46        0.00408   0.00109   0.00000   0.01760   0.01749   0.02157
   D47       -0.00025   0.00010   0.00000   0.00083   0.00082   0.00057
   D48       -3.14047   0.00042   0.00000   0.00587   0.00592  -3.13456
   D49        0.00732  -0.00031   0.00000  -0.00520  -0.00523   0.00208
   D50       -3.13274  -0.00044   0.00000  -0.00697  -0.00696  -3.13970
   D51       -3.13147  -0.00013   0.00000  -0.00225  -0.00233  -3.13380
   D52        0.01166  -0.00025   0.00000  -0.00402  -0.00405   0.00761
   D53       -3.12022   0.00000   0.00000  -0.00019  -0.00016  -3.12038
   D54       -0.01206   0.00037   0.00000   0.00584   0.00586  -0.00620
   D55        0.01984   0.00012   0.00000   0.00156   0.00155   0.02139
   D56        3.12800   0.00049   0.00000   0.00759   0.00757   3.13558
   D57        1.58450   0.00021   0.00000   0.00341   0.00341   1.58791
   D58       -2.60345  -0.00050   0.00000  -0.00274  -0.00276  -2.60621
   D59       -0.51120   0.00083   0.00000   0.00876   0.00879  -0.50241
   D60       -1.52302  -0.00014   0.00000  -0.00260  -0.00261  -1.52562
   D61        0.57222  -0.00085   0.00000  -0.00875  -0.00878   0.56344
   D62        2.66447   0.00048   0.00000   0.00275   0.00277   2.66724
   D63        0.01078  -0.00020   0.00000  -0.00322  -0.00317   0.00760
   D64       -3.12762  -0.00056   0.00000  -0.00865  -0.00866  -3.13628
   D65        3.11898   0.00017   0.00000   0.00282   0.00285   3.12183
   D66       -0.01942  -0.00019   0.00000  -0.00261  -0.00263  -0.02206
   D67       -0.00473  -0.00004   0.00000  -0.00012  -0.00014  -0.00487
   D68        3.13547  -0.00036   0.00000  -0.00523  -0.00527   3.13020
   D69        3.13365   0.00033   0.00000   0.00537   0.00536   3.13901
   D70       -0.00934   0.00001   0.00000   0.00026   0.00024  -0.00910
         Item               Value     Threshold  Converged?
 Maximum Force            0.054341     0.000450     NO 
 RMS     Force            0.010029     0.000300     NO 
 Maximum Displacement     0.652579     0.001800     NO 
 RMS     Displacement     0.227918     0.001200     NO 
 Predicted change in Energy=-2.305939D-02
 GradGradGradGradGradGradGradGradGradGradGradGradGradGradGradGradGradGrad

                          Input orientation:                          
 ---------------------------------------------------------------------
 Center     Atomic      Atomic             Coordinates (Angstroms)
 Number     Number       Type             X           Y           Z
 ---------------------------------------------------------------------
      1          8           0       -0.352760    2.705563    0.949278
      2         16           0       -0.063271    1.603329    0.027928
      3          7           0        1.139777    0.747219    0.879157
      4          6           0        2.182876   -0.098658    0.411190
      5          6           0        3.124382   -0.472475    1.383443
      6          6           0        4.170826   -1.335667    1.080413
      7          6           0        4.299179   -1.860435   -0.202433
      8          6           0        3.365522   -1.505252   -1.173038
      9          6           0        2.317193   -0.636025   -0.881403
     10          6           0       -1.449272    0.467756   -0.034867
     11          6           0       -1.565404   -0.611937    0.838221
     12          6           0       -2.676171   -1.445988    0.747292
     13          6           0       -3.676214   -1.219548   -0.207532
     14          6           0       -4.888054   -2.109243   -0.282695
     15          6           0       -3.537514   -0.123625   -1.070262
     16          6           0       -2.432204    0.715951   -0.990889
     17          8           0        0.299188    1.927697   -1.356244
     18          1           0        1.425500    1.408794    1.598639
     19          1           0        3.021872   -0.074139    2.395426
     20          1           0        4.889514   -1.603509    1.856130
     21          1           0        5.118492   -2.539974   -0.442045
     22          1           0        3.454688   -1.906053   -2.183362
     23          1           0        1.620928   -0.358750   -1.664004
     24          1           0       -0.789712   -0.800150    1.578843
     25          1           0       -2.769594   -2.290905    1.431387
     26          1           0       -5.699682   -1.713829    0.346584
     27          1           0       -5.270236   -2.182501   -1.309962
     28          1           0       -4.663227   -3.126575    0.065056
     29          1           0       -4.308087    0.072675   -1.817520
     30          1           0       -2.325486    1.561215   -1.672793
 ---------------------------------------------------------------------
                    Distance matrix (angstroms):
                    1          2          3          4          5
     1  O    0.000000
     2  S    1.465473   0.000000
     3  N    2.463270   1.704360   0.000000
     4  C    3.818723   2.844087   1.422166   0.000000
     5  C    4.730639   4.038257   2.383404   1.404083   0.000000
     6  C    6.067254   5.260514   3.683229   2.435158   1.389954
     7  C    6.619314   5.575097   4.236923   2.821193   2.412796
     8  C    6.005065   4.781445   3.773469   2.426301   2.767738
     9  C    4.652553   3.392374   2.529673   1.406273   2.409945
    10  C    2.679303   1.792893   2.759839   3.703011   4.879954
    11  C    3.533928   2.796495   3.027703   3.807285   4.723433
    12  C    4.761766   4.079591   4.403294   5.053573   5.915981
    13  C    5.271628   4.591016   5.314399   5.997345   7.024061
    14  C    6.728225   6.095753   6.770822   7.383900   8.345907
    15  C    4.714394   4.032214   5.141562   5.909161   7.107969
    16  C    3.470864   2.727136   4.032009   4.891664   6.158365
    17  O    2.519036   1.467147   2.664045   3.283019   4.609602
    18  H    2.294665   2.172882   1.018318   2.063023   2.543950
    19  H    4.605022   4.235217   2.552642   2.154462   1.092378
    20  H    6.846307   6.177072   4.532210   3.417355   2.149037
    21  H    7.706234   6.651203   5.327418   3.912272   3.403444
    22  H    6.751081   5.438897   4.666657   3.408209   3.858283
    23  H    4.484942   3.090132   2.814665   2.165609   3.400036
    24  H    3.588497   2.951231   2.570377   3.269829   3.932644
    25  H    5.571195   4.945597   4.981800   5.511234   6.168301
    26  H    6.963034   6.547839   7.288250   8.046594   8.971073
    27  H    7.292387   6.575328   7.379957   7.928029   8.980437
    28  H    7.305876   6.597952   7.024521   7.493812   8.332422
    29  H    5.498353   4.875145   6.116069   6.865064   8.110793
    30  H    3.475117   2.830519   4.379850   5.236744   6.570962
                    6          7          8          9         10
     6  C    0.000000
     7  C    1.391959   0.000000
     8  C    2.399023   1.392818   0.000000
     9  C    2.788221   2.426613   1.392695   0.000000
    10  C    6.006803   6.204292   5.326390   4.015123   0.000000
    11  C    5.786776   6.085643   5.399742   4.246440   1.393379
    12  C    6.855983   7.051897   6.339813   5.314355   2.404052
    13  C    7.952881   8.001103   7.113359   6.059334   2.799300
    14  C    9.193465   9.190952   8.323403   7.378646   4.304366
    15  C    8.094007   8.073623   7.040693   5.880120   2.404689
    16  C    7.217994   7.250582   6.211324   4.939291   1.393461
    17  O    5.619290   5.628601   4.606637   3.297042   2.633359
    18  H    3.916304   4.710600   4.465147   3.335717   3.437762
    19  H    2.154254   3.401653   3.860067   3.398514   5.117724
    20  H    1.090866   2.156893   3.392353   3.879039   6.931537
    21  H    2.160163   1.091082   2.162846   3.415455   7.235174
    22  H    3.389752   2.153909   1.090572   2.145219   5.856605
    23  H    3.871456   3.400629   2.144557   1.083573   3.572579
    24  H    5.014195   5.494903   5.033487   3.966435   2.155612
    25  H    7.014634   7.267890   6.711179   5.827781   3.391660
    26  H    9.904970  10.014995   9.194056   8.181681   4.792786
    27  H    9.775719   9.638675   8.663356   7.755278   4.821773
    28  H    9.070766   9.055351   8.283863   7.471606   4.822728
    29  H    9.070469   8.968303   7.860629   6.728515   3.392163
    30  H    7.627197   7.599726   6.483868   5.196983   2.155506
                   11         12         13         14         15
    11  C    0.000000
    12  C    1.392017   0.000000
    13  C    2.432757   1.401089   0.000000
    14  C    3.812923   2.528480   1.505246   0.000000
    15  C    2.787467   2.407085   1.401638   2.527232   0.000000
    16  C    2.420799   2.784738   2.430507   3.809785   1.390287
    17  O    3.839547   4.965820   5.198895   6.660096   4.360045
    18  H    3.688780   5.069346   6.016470   7.468398   5.839764
    19  H    4.874138   6.088186   7.276792   8.595401   7.418827
    20  H    6.609488   7.648132   8.819173  10.021536   9.042600
    21  H    7.073251   7.960408   8.896368  10.017080   9.008875
    22  H    6.000503   6.810861   7.431350   8.558924   7.301159
    23  H    4.059303   5.045938   5.560755   6.880341   5.197820
    24  H    1.088873   2.160396   3.420369   4.687799   3.876320
    25  H    2.149616   1.091146   2.157735   2.731109   3.397801
    26  H    4.306753   3.061687   2.155407   1.100492   3.034991
    27  H    4.561484   3.391743   2.164148   1.098503   2.701620
    28  H    4.064197   2.690393   2.164544   1.098381   3.402041
    29  H    3.878655   3.398198   2.158973   2.729985   1.091197
    30  H    3.406685   3.875959   3.421125   4.687365   2.161190
                   16         17         18         19         20
    16  C    0.000000
    17  O    3.010369   0.000000
    18  H    4.697613   3.204554   0.000000
    19  H    6.468254   5.049295   2.319992   0.000000
    20  H    8.191029   6.622677   4.597789   2.473439   0.000000
    21  H    8.241073   6.634872   5.778871   4.304347   2.492189
    22  H    6.553808   5.033780   5.423038   4.950610   4.297412
    23  H    4.246874   2.658863   3.715809   4.303791   4.962300
    24  H    3.405857   4.152299   3.128417   3.965107   5.742463
    25  H    3.875878   5.914804   5.595941   6.275707   7.701613
    26  H    4.285916   7.221273   7.879507   9.107790  10.696820
    27  H    4.069061   6.922020   8.135738   9.323849  10.657387
    28  H    4.567000   7.224357   7.745583   8.591202   9.837812
[...]
     2  S    0.000025   0.000174  -0.008169   0.307939  -0.039140   0.005743
     3  N    0.000974   0.005941  -0.019564  -0.061493   0.000046  -0.001189
     4  C   -0.111998   0.025696   0.363674   0.045002   0.001028   0.000248
     5  C    0.035527  -0.097973   0.057812  -0.000188  -0.001914   0.000793
     6  C    0.439122   0.022509  -0.090364  -0.001762  -0.000681  -0.000051
     7  C    4.963691   0.413245   0.048664  -0.000156  -0.000059   0.000020
     8  C    0.413245   4.970940   0.385928  -0.000069   0.000171  -0.000008
     9  C    0.048664   0.385928   5.133536   0.003481   0.000326   0.000048
    10  C   -0.000156  -0.000069   0.003481   5.293935   0.368096   0.015597
    11  C   -0.000059   0.000171   0.000326   0.368096   5.106178   0.404484
    12  C    0.000020  -0.000008   0.000048   0.015597   0.404484   5.062843
    13  C    0.000042  -0.000039   0.000219  -0.090491   0.016179   0.432413
    14  C   -0.000001  -0.000001   0.000006  -0.004307   0.013162  -0.073388
    15  C   -0.000195   0.000435  -0.002492   0.049716  -0.046358  -0.014120
    16  C   -0.000699  -0.001278   0.000891   0.316456  -0.069639  -0.050348
    17  O    0.000127  -0.001107  -0.003463  -0.078739   0.006942  -0.000266
    18  H    0.000137  -0.000720   0.004526  -0.000738   0.000148  -0.000166
    19  H    0.010389  -0.003892   0.012036   0.000786   0.000382   0.000310
    20  H   -0.057141   0.010718  -0.003858   0.000005  -0.000001  -0.000003
    21  H    0.443931  -0.056272   0.011295   0.000004  -0.000000   0.000000
    22  H   -0.058353   0.446324  -0.057686  -0.000016   0.000001  -0.000000
    23  H    0.010216  -0.048932   0.434640   0.001827  -0.000173   0.000007
    24  H   -0.000003   0.000007  -0.000018  -0.045638   0.432610  -0.048513
    25  H   -0.000000   0.000000  -0.000002   0.011282  -0.048854   0.443175
    26  H    0.000000   0.000000  -0.000000   0.000161  -0.000663  -0.004586
    27  H   -0.000000   0.000000   0.000000   0.000056  -0.000640   0.006941
    28  H    0.000000  -0.000000   0.000000   0.000064   0.001949  -0.006509
    29  H    0.000008   0.000057  -0.000101   0.010715  -0.003658   0.012776
    30  H    0.000106   0.000346   0.000028  -0.046303   0.008173  -0.002423
              13         14         15         16         17         18
     1  O    0.000166   0.000001  -0.000586   0.008731  -0.043926   0.004368
     2  S   -0.000535   0.000005   0.004866  -0.016555   0.565048  -0.016601
     3  N    0.000227  -0.000004   0.000051   0.006365  -0.050072   0.365622
     4  C   -0.000718   0.000007   0.001883  -0.002571  -0.007680  -0.051475
     5  C   -0.000459   0.000008  -0.000571  -0.014206   0.001074   0.008838
     6  C    0.000056  -0.000016   0.002006   0.001192   0.000101   0.001086
     7  C    0.000042  -0.000001  -0.000195  -0.000699   0.000127   0.000137
     8  C   -0.000039  -0.000001   0.000435  -0.001278  -0.001107  -0.000720
     9  C    0.000219   0.000006  -0.002492   0.000891  -0.003463   0.004526
    10  C   -0.090491  -0.004307   0.049716   0.316456  -0.078739  -0.000738
    11  C    0.016179   0.013162  -0.046358  -0.069639   0.006942   0.000148
    12  C    0.432413  -0.073388  -0.014120  -0.050348  -0.000266  -0.000166
    13  C    4.972628   0.297551   0.412540   0.032989  -0.000112   0.000065
    14  C    0.297551   4.958419  -0.073667   0.013789  -0.000000   0.000000
    15  C    0.412540  -0.073667   5.100148   0.357500   0.002965  -0.000043
    16  C    0.032989   0.013789   0.357500   5.141842   0.018593   0.000706
    17  O   -0.000112  -0.000000   0.002965   0.018593   8.031238   0.002676
    18  H    0.000065   0.000000  -0.000043   0.000706   0.002676   0.429406
    19  H   -0.000009  -0.000000  -0.000259  -0.000269  -0.000017   0.003564
    20  H   -0.000005   0.000000   0.000022   0.000029  -0.000000  -0.000040
    21  H   -0.000001   0.000000  -0.000002  -0.000018   0.000001  -0.000002
    22  H   -0.000000  -0.000000   0.000008  -0.000004  -0.000038   0.000013
    23  H    0.000015   0.000000  -0.000158  -0.000441   0.008967  -0.000050
    24  H    0.008423  -0.000057  -0.002422   0.008274   0.000543   0.000365
    25  H   -0.062053  -0.006804   0.012872  -0.003856   0.000004  -0.000009
    26  H   -0.017381   0.390174  -0.004872  -0.000730  -0.000000  -0.000000
    27  H   -0.053250   0.427593  -0.006659   0.001930   0.000000  -0.000000
    28  H   -0.054923   0.427663   0.007949  -0.000709   0.000000   0.000000
    29  H   -0.063190  -0.006631   0.444538  -0.048572  -0.000011   0.000000
    30  H    0.008912  -0.000031  -0.049461   0.436216   0.008194  -0.000097
              19         20         21         22         23         24
     1  O   -0.000176  -0.000000   0.000000  -0.000000  -0.000133   0.013552
     2  S   -0.000121  -0.000007   0.000003  -0.000003  -0.002918  -0.004407
     3  N    0.002897  -0.000360   0.000008  -0.000119  -0.001406   0.000274
     4  C   -0.080503   0.015210  -0.003963   0.013946  -0.044792  -0.000183
     5  C    0.439939  -0.053926   0.012196  -0.003503   0.011288  -0.000132
     6  C   -0.031456   0.438882  -0.056085   0.010553  -0.004442   0.000006
     7  C    0.010389  -0.057141   0.443931  -0.058353   0.010216  -0.000003
     8  C   -0.003892   0.010718  -0.056272   0.446324  -0.048932   0.000007
     9  C    0.012036  -0.003858   0.011295  -0.057686   0.434640  -0.000018
    10  C    0.000786   0.000005   0.000004  -0.000016   0.001827  -0.045638
    11  C    0.000382  -0.000001  -0.000000   0.000001  -0.000173   0.432610
    12  C    0.000310  -0.000003   0.000000  -0.000000   0.000007  -0.048513
    13  C   -0.000009  -0.000005  -0.000001  -0.000000   0.000015   0.008423
    14  C   -0.000000   0.000000   0.000000  -0.000000   0.000000  -0.000057
    15  C   -0.000259   0.000022  -0.000002   0.000008  -0.000158  -0.002422
    16  C   -0.000269   0.000029  -0.000018  -0.000004  -0.000441   0.008274
    17  O   -0.000017  -0.000000   0.000001  -0.000038   0.008967   0.000543
    18  H    0.003564  -0.000040  -0.000002   0.000013  -0.000050   0.000365
    19  H    0.538608  -0.007508  -0.000098   0.000028   0.000012  -0.000067
    20  H   -0.007508   0.541628  -0.006649  -0.000125   0.000015   0.000000
    21  H   -0.000098  -0.006649   0.538790  -0.006847  -0.000017  -0.000000
    22  H    0.000028  -0.000125  -0.006847   0.534764  -0.006494   0.000000
    23  H    0.000012   0.000015  -0.000017  -0.006494   0.476178  -0.000005
    24  H   -0.000067   0.000000  -0.000000   0.000000  -0.000005   0.477702
    25  H   -0.000003   0.000000   0.000000   0.000000  -0.000000  -0.005563
    26  H    0.000000  -0.000000  -0.000000   0.000000   0.000000   0.000007
    27  H   -0.000000   0.000000  -0.000000   0.000000  -0.000000   0.000003
    28  H    0.000000  -0.000000   0.000000  -0.000000  -0.000000  -0.000019
    29  H   -0.000001  -0.000000  -0.000000   0.000001  -0.000007   0.000031
    30  H   -0.000053   0.000004  -0.000004  -0.000017  -0.000091  -0.000066
              25         26         27         28         29         30
     1  O   -0.000028  -0.000000   0.000000   0.000000   0.000003   0.000385
     2  S   -0.000114  -0.000001   0.000001   0.000001  -0.000100  -0.004122
     3  N    0.000017   0.000000  -0.000000  -0.000000   0.000031   0.000355
     4  C   -0.000007  -0.000000   0.000003  -0.000001   0.000037   0.000122
     5  C   -0.000002   0.000000  -0.000002   0.000001  -0.000081  -0.001662
     6  C    0.000003   0.000000   0.000001  -0.000001   0.000072   0.000166
     7  C   -0.000000   0.000000  -0.000000   0.000000   0.000008   0.000106
     8  C    0.000000   0.000000   0.000000  -0.000000   0.000057   0.000346
     9  C   -0.000002  -0.000000   0.000000   0.000000  -0.000101   0.000028
    10  C    0.011282   0.000161   0.000056   0.000064   0.010715  -0.046303
    11  C   -0.048854  -0.000663  -0.000640   0.001949  -0.003658   0.008173
    12  C    0.443175  -0.004586   0.006941  -0.006509   0.012776  -0.002423
    13  C   -0.062053  -0.017381  -0.053250  -0.054923  -0.063190   0.008912
    14  C   -0.006804   0.390174   0.427593   0.427663  -0.006631  -0.000031
    15  C    0.012872  -0.004872  -0.006659   0.007949   0.444538  -0.049461
    16  C   -0.003856  -0.000730   0.001930  -0.000709  -0.048572   0.436216
    17  O    0.000004  -0.000000   0.000000   0.000000  -0.000011   0.008194
    18  H   -0.000009  -0.000000  -0.000000   0.000000   0.000000  -0.000097
    19  H   -0.000003   0.000000  -0.000000   0.000000  -0.000001  -0.000053
    20  H    0.000000  -0.000000   0.000000  -0.000000  -0.000000   0.000004
    21  H    0.000000  -0.000000  -0.000000   0.000000  -0.000000  -0.000004
    22  H    0.000000   0.000000   0.000000  -0.000000   0.000001  -0.000017
    23  H   -0.000000   0.000000  -0.000000  -0.000000  -0.000007  -0.000091
    24  H   -0.005563   0.000007   0.000003  -0.000019   0.000031  -0.000066
    25  H    0.533421   0.000224   0.000057   0.001102  -0.000049   0.000026
    26  H    0.000224   0.544766  -0.024271  -0.023374   0.000256   0.000008
    27  H    0.000057  -0.024271   0.540744  -0.023654   0.000873  -0.000022
    28  H    0.001102  -0.023374  -0.023654   0.541998   0.000074   0.000002
    29  H   -0.000049   0.000256   0.000873   0.000074   0.533617  -0.005596
    30  H    0.000026   0.000008  -0.000022   0.000002  -0.005596   0.481705
 Mulliken charges:
               1
     1  O   -0.474523
     2  S    0.856458
     3  N   -0.316459
     4  C    0.199996
     5  C   -0.217414
     6  C   -0.096902
     7  C   -0.137614
     8  C   -0.072201
     9  C   -0.270651
    10  C    0.001050
    11  C   -0.174869
    12  C   -0.186590
    13  C    0.160742
    14  C   -0.363470
    15  C   -0.195635
    16  C   -0.135607
    17  O   -0.461040
    18  H    0.248423
    19  H    0.115479
    20  H    0.123108
    21  H    0.123729
    22  H    0.127569
    23  H    0.166894
    24  H    0.165295
    25  H    0.125161
    26  H    0.140284
    27  H    0.130297
    28  H    0.128385
    29  H    0.124908
    30  H    0.165200
 Sum of Mulliken charges =   0.00000
 Mulliken charges with hydrogens summed into heavy atoms:
               1
     1  O   -0.474523
     2  S    0.856458
     3  N   -0.068037
     4  C    0.199996
     5  C   -0.101935
     6  C    0.026206
     7  C   -0.013886
     8  C    0.055367
     9  C   -0.103757
    10  C    0.001050
    11  C   -0.009575
    12  C   -0.061429
    13  C    0.160742
    14  C    0.035495
    15  C   -0.070727
    16  C    0.029593
    17  O   -0.461040
 Electronic spatial extent (au):  <R**2>=           4366.3405
 Charge=              0.0000 electrons
 Dipole moment (field-independent basis, Debye):
    X=              1.8223    Y=             -5.3827    Z=             -1.7643  Tot=              5.9503
 Quadrupole moment (field-independent basis, Debye-Ang):
   XX=            -96.8230   YY=           -114.0146   ZZ=           -101.0923
   XY=             -0.2839   XZ=             -2.6660   YZ=             -4.5445
 Traceless Quadrupole moment (field-independent basis, Debye-Ang):
   XX=              7.1537   YY=            -10.0380   ZZ=              2.8843
   XY=             -0.2839   XZ=             -2.6660   YZ=             -4.5445
 Octapole moment (field-independent basis, Debye-Ang**2):
  XXX=             41.9335  YYY=            -42.3797  ZZZ=            -11.7660  XYY=             -3.5028
  XXY=            -16.3281  XXZ=              7.5844  XZZ=             -2.8369  YZZ=             -0.4017
  YYZ=             -0.7602  XYZ=              0.8873
 Hexadecapole moment (field-independent basis, Debye-Ang**3):
 XXXX=          -3342.8898 YYYY=          -1978.3270 ZZZZ=           -577.8192 XXXY=            -53.3813
 XXXZ=           -112.7524 YYYX=             18.4244 YYYZ=             17.6726 ZZZX=            -13.6199
 ZZZY=            -24.0252 XXYY=           -821.8854 XXZZ=           -639.3840 YYZZ=           -410.9344
 XXYZ=            -31.6101 YYXZ=             12.7864 ZZXY=              2.1670
 N-N= 1.331940818019D+03 E-N=-5.259253553135D+03  KE= 1.102023939413D+03
 Breneman (CHELPG) radii used.
 Read replacement radii for each type of atom:
 Atom Element Radius
    1     8    1.70
    2    16    2.00
    3     7    1.70
    4     6    1.50
    5     6    1.50
    6     6    1.50
    7     6    1.50
    8     6    1.50
    9     6    1.50
   10     6    1.50
   11     6    1.50
   12     6    1.50
   13     6    1.50
   14     6    1.50
   15     6    1.50
   16     6    1.50
   17     8    1.70
   18     1    1.45
   19     1    1.45
   20     1    1.45
   21     1    1.45
   22     1    1.45
   23     1    1.45
   24     1    1.45
   25     1    1.45
   26     1    1.45
   27     1    1.45
   28     1    1.45
   29     1    1.45
   30     1    1.45
 Generate Potential Derived Charges using the Breneman model, NDens= 1.
 Grid spacing= 0.300 Box extension= 2.800
 NStep X,Y,Z=   49     41     34   Total possible points=       68306
 Number of Points to Fit=   18717

 **********************************************************************

            Electrostatic Properties Using The SCF Density.

 **********************************************************************

       Atomic Center    1 is at   0.244550  3.115823 -0.603003
       Atomic Center    2 is at  -0.211437  1.956053  0.139063
       Atomic Center    3 is at  -1.389827  1.267676 -0.841691
       Atomic Center    4 is at  -1.950802  0.004286 -0.532334
       Atomic Center    5 is at  -1.772070 -1.075559 -1.403430
       Atomic Center    6 is at  -2.333920 -2.314619 -1.105144
       Atomic Center    7 is at  -3.052087 -2.492383  0.076090
       Atomic Center    8 is at  -3.218747 -1.417136  0.949220
       Atomic Center    9 is at  -2.685061 -0.167356  0.646476
       Atomic Center   10 is at   1.098848  0.752455  0.173517
       Atomic Center   11 is at   2.133882  0.847446 -0.754586
       Atomic Center   12 is at   3.121640 -0.132340 -0.768465
       Atomic Center   13 is at   3.088524 -1.207114  0.129551
       Atomic Center   14 is at   4.177315 -2.246524  0.128471
       Atomic Center   15 is at   2.036370 -1.274422  1.051827
       Atomic Center   16 is at   1.043170 -0.300972  1.085062
       Atomic Center   17 is at  -0.760171  2.053233  1.477319
       Atomic Center   18 is at  -1.147350  1.412171 -1.818018
       Atomic Center   19 is at  -1.185317 -0.942133 -2.315856
       Atomic Center   20 is at  -2.196440 -3.149132 -1.796002
       Atomic Center   21 is at  -3.484496 -3.466137  0.314517
       Atomic Center   22 is at  -3.786681 -1.546438  1.873082
       Atomic Center   23 is at  -2.820849  0.682846  1.314878
       Atomic Center   24 is at   2.164714  1.691640 -1.445998
       Atomic Center   25 is at   3.938650 -0.058867 -1.490656
       Atomic Center   26 is at   4.981008 -1.963031  0.827138
       Atomic Center   27 is at   3.796569 -3.227676  0.445405
       Atomic Center   28 is at   4.629182 -2.356066 -0.867318
       Atomic Center   29 is at   1.994131 -2.104517  1.761282
       Atomic Center   30 is at   0.231254 -0.350264  1.812316
   18717 points will be used for fitting atomic charges
 Fitting point charges to electrostatic potential
 Charges from ESP fit, RMS=   0.00359 RRMS=   0.21947:
 ESP charges:
               1
     1  O   -0.485399
     2  S    0.935051
     3  N   -0.647460
     4  C    0.411527
     5  C   -0.271186
     6  C   -0.053571
     7  C   -0.144623
     8  C   -0.057088
     9  C   -0.219341
    10  C   -0.066403
    11  C   -0.066459
    12  C   -0.213632
    13  C    0.241618
    14  C   -0.272933
    15  C   -0.233298
    16  C   -0.034479
    17  O   -0.469733
    18  H    0.354974
    19  H    0.111483
    20  H    0.103894
    21  H    0.103775
    22  H    0.097538
    23  H    0.160419
    24  H    0.112402
    25  H    0.127039
    26  H    0.090434
    27  H    0.079011
    28  H    0.077611
    29  H    0.129522
    30  H    0.099305
 Sum of ESP charges =   0.00000
 ESP charges with hydrogens summed into heavy atoms:
               1
     1  O   -0.485399
     2  S    0.935051
     3  N   -0.292486
     4  C    0.411527
     5  C   -0.159702
     6  C    0.050323
     7  C   -0.040847
     8  C    0.040449
     9  C   -0.058922
    10  C   -0.066403
    11  C    0.045943
    12  C   -0.086593
    13  C    0.241618
    14  C   -0.025878
    15  C   -0.103775
    16  C    0.064825
    17  O   -0.469733
 Charge=   0.00000 Dipole=     1.7020    -5.2547    -1.7353 Tot=     5.7896
 -----------------------------------------------------------------

              Electrostatic Properties (Atomic Units)

 -----------------------------------------------------------------
    Center     Electric         -------- Electric Field --------
               Potential          X             Y             Z
 -----------------------------------------------------------------
    1 Atom    -22.373239
    2 Atom    -59.026798
    3 Atom    -18.345598
    4 Atom    -14.712673
    5 Atom    -14.755804
    6 Atom    -14.756713
    7 Atom    -14.761227
    8 Atom    -14.758981
    9 Atom    -14.763164
   10 Atom    -14.732025
   11 Atom    -14.744873
   12 Atom    -14.752123
   13 Atom    -14.736846
   14 Atom    -14.755044
   15 Atom    -14.752982
   16 Atom    -14.745695
   17 Atom    -22.373375
   18 Atom     -1.001971
   19 Atom     -1.087788
   20 Atom     -1.096082
   21 Atom     -1.099250
   22 Atom     -1.099707
   23 Atom     -1.101925
   24 Atom     -1.086164
   25 Atom     -1.090246
   26 Atom     -1.097640
   27 Atom     -1.100250
   28 Atom     -1.100368
   29 Atom     -1.091440
   30 Atom     -1.088680
 -----------------------------------------------------------------
 Unable to Open any file for archive entry.
 1\1\GINC-NOTCH073\SP\RwB97XD\def2TZVP\C13H13N1O2S1\U1366379\17-Feb-202
 6\0\\#N Guess=Read Geom=Check Integral(Ultrafine) Density Pop=(ChelpG,
 ReadRadii) NMR wB97XD def2TZVP\\prod_5l_43\\0,1\O,0,-0.4805687575,2.90
 34245623,1.4382812122\S,0,-0.0482822998,2.008492403,0.3819301635\N,0,1
 .3376769206,1.2791803639,0.9914930075\C,0,1.9554199406,0.2013718984,0.
 310852452\C,0,2.0281945741,-1.0594788525,0.912331975\C,0,2.6463590647,
 -2.1161426172,0.2480616022\C,0,3.1695128185,-1.9301657433,-1.030374649
 3\C,0,3.0849846752,-0.6748849662,-1.6332111281\C,0,2.4941946867,0.3948
 30454,-0.9660520789\C,0,-1.2262448145,0.6818442055,0.2437666752\C,0,-2
 .0950265238,0.4308629851,1.3039186293\C,0,-2.9695054186,-0.6481089263,
 1.2205720017\C,0,-2.9863771658,-1.4815672053,0.094636365\C,0,-3.956520
 4368,-2.62851775,-0.0011066791\C,0,-2.1024310275,-1.2029016194,-0.9556
 655454\C,0,-1.225263087,-0.1250188717,-0.8932004512\O,0,0.2563025345,2
 .4728769116,-0.9571202214\H,0,1.2500393033,1.1691336285,1.998020477\H,
 0,1.5930412933,-1.2110829069,1.9034230712\H,0,2.7061995061,-3.09439572
 26,0.7297640029\H,0,3.6456763064,-2.760880969,-1.554973143\H,0,3.49936
 14871,-0.519212061,-2.6316332557\H,0,2.4349831098,1.3830053716,-1.4221
 723923\H,0,-2.088846328,1.0879927132,2.1755872221\H,0,-3.6568885187,-0
 .8453562279,2.0470475192\H,0,-4.889228019,-2.3041287119,-0.4902432656\
 H,0,-3.5435363065,-3.4556335877,-0.5955793957\H,0,-4.2223887298,-3.015
 7354708,0.9924504703\H,0,-2.1017779026,-1.8408916762,-1.8428731437\H,0
 ,-0.546010885,0.0960483886,-1.7179914971\\Version=ES64L-G16RevC.01\Sta
 te=1-A\HF=-1106.6304779\RMSD=3.939e-09\Dipole=-0.3871568,-2.2944095,0.
 2574371\Quadrupole=4.3159624,-8.0521505,3.7361881,2.4908312,-2.1585343
 ,0.3234317\PG=C01 [X(C13H13N1O2S1)]\\@
 The archive entry for this job was punched.


0EVERYBODY IS IGNORANT, ONLY ON DIFFERENT SUBJECTS.
0          WILL ROGERS
 Job cpu time:       0 days  1 hours 47 minutes 55.2 seconds.
 Elapsed time:       0 days  0 hours 13 minutes 56.3 seconds.
 File lengths (MBytes):  RWF=    226 Int=      0 D2E=      0 Chk=     34 Scr=      2
 Normal termination of Gaussian 16 at Tue Feb 17 17:31:35 2026.
