 Entering Gaussian System, Link 0=g16
 Input=prod_5l_41.com
 Output=prod_5l_41.log
 Initial command:
 /uufs/chpc.utah.edu/sys/installdir/gaussian16/C01/AVX/g16/l1.exe "/scratch/general/vast/u1366379/GAUSSSCRDIR/11047002-notchpeak.peaks/Gau-3010850.inp" -scrdir="/scratch/general/vast/u1366379/GAUSSSCRDIR/11047002-notchpeak.peaks/"
 Entering Link 1 = /uufs/chpc.utah.edu/sys/installdir/gaussian16/C01/AVX/g16/l1.exe PID=   3010851.
  
 Copyright (c) 1988-2019, Gaussian, Inc.  All Rights Reserved.
  
 This is part of the Gaussian(R) 16 program.  It is based on
 the Gaussian(R) 09 system (copyright 2009, Gaussian, Inc.),
 the Gaussian(R) 03 system (copyright 2003, Gaussian, Inc.),
 the Gaussian(R) 98 system (copyright 1998, Gaussian, Inc.),
 the Gaussian(R) 94 system (copyright 1995, Gaussian, Inc.),
 the Gaussian 92(TM) system (copyright 1992, Gaussian, Inc.),
 the Gaussian 90(TM) system (copyright 1990, Gaussian, Inc.),
 the Gaussian 88(TM) system (copyright 1988, Gaussian, Inc.),
 the Gaussian 86(TM) system (copyright 1986, Carnegie Mellon
 University), and the Gaussian 82(TM) system (copyright 1983,
 Carnegie Mellon University). Gaussian is a federally registered
 trademark of Gaussian, Inc.
  
 This software contains proprietary and confidential information,
 including trade secrets, belonging to Gaussian, Inc.
  
 This software is provided under written license and may be
 used, copied, transmitted, or stored only in accord with that
 written license.
  
 The following legend is applicable only to US Government
 contracts under FAR:
  
                    RESTRICTED RIGHTS LEGEND
  
 Use, reproduction and disclosure by the US Government is
 subject to restrictions as set forth in subparagraphs (a)
 and (c) of the Commercial Computer Software - Restricted
 Rights clause in FAR 52.227-19.
  
 Gaussian, Inc.
 340 Quinnipiac St., Bldg. 40, Wallingford CT 06492
  
  
 ---------------------------------------------------------------
 Warning -- This program may not be used in any manner that
 competes with the business of Gaussian, Inc. or will provide
 assistance to any competitor of Gaussian, Inc.  The licensee
 of this program is prohibited from giving any competitor of
 Gaussian, Inc. access to this program.  By using this program,
 the user acknowledges that Gaussian, Inc. is engaged in the
 business of creating and licensing software in the field of
 computational chemistry and represents and warrants to the
 licensee that it is not a competitor of Gaussian, Inc. and that
 it will not use this program in any manner prohibited above.
 ---------------------------------------------------------------
  

 Cite this work as:
 Gaussian 16, Revision C.01,
 M. J. Frisch, G. W. Trucks, H. B. Schlegel, G. E. Scuseria, 
 M. A. Robb, J. R. Cheeseman, G. Scalmani, V. Barone, 
 G. A. Petersson, H. Nakatsuji, X. Li, M. Caricato, A. V. Marenich, 
 J. Bloino, B. G. Janesko, R. Gomperts, B. Mennucci, H. P. Hratchian, 
 J. V. Ortiz, A. F. Izmaylov, J. L. Sonnenberg, D. Williams-Young, 
 F. Ding, F. Lipparini, F. Egidi, J. Goings, B. Peng, A. Petrone, 
 T. Henderson, D. Ranasinghe, V. G. Zakrzewski, J. Gao, N. Rega, 
 G. Zheng, W. Liang, M. Hada, M. Ehara, K. Toyota, R. Fukuda, 
 J. Hasegawa, M. Ishida, T. Nakajima, Y. Honda, O. Kitao, H. Nakai, 
 T. Vreven, K. Throssell, J. A. Montgomery, Jr., J. E. Peralta, 
 F. Ogliaro, M. J. Bearpark, J. J. Heyd, E. N. Brothers, K. N. Kudin, 
 V. N. Staroverov, T. A. Keith, R. Kobayashi, J. Normand, 
 K. Raghavachari, A. P. Rendell, J. C. Burant, S. S. Iyengar, 
 J. Tomasi, M. Cossi, J. M. Millam, M. Klene, C. Adamo, R. Cammi, 
 J. W. Ochterski, R. L. Martin, K. Morokuma, O. Farkas, 
 J. B. Foresman, and D. J. Fox, Gaussian, Inc., Wallingford CT, 2019.
 
 ******************************************
 Gaussian 16:  ES64L-G16RevC.01  3-Jul-2019
                19-Feb-2026 
 ******************************************
 %NProcShared=16
 Will use up to   16 processors via shared memory.
 %Mem=16GB
 %chk=prod_5l_41.chk
 ---------------------------------------------------------------
 #N OPT=(CalcFC) FREQ=NORAMAN Integral(Ultrafine) wB97XD def2SVP
 ---------------------------------------------------------------
 1/10=4,18=20,19=15,26=4,38=1/1,3;
 2/9=110,12=2,17=6,18=5,40=1/2;
 3/5=43,7=101,11=2,25=1,30=1,71=2,74=-58,75=-5,140=1/1,2,3;
 4//1;
 5/5=2,38=5/2;
 8/6=4,10=90,11=11/1;
 11/6=1,8=1,9=11,15=111,16=1/1,2,10;
 10/6=1,13=1/2;
 6/7=2,8=2,9=2,10=2,28=1/1;
 7/10=1,25=1/1,2,3,16;
 1/10=4,18=20,19=15,26=4/3(2);
 2/9=110/2;
 99//99;
 2/9=110/2;
 3/5=43,7=101,11=2,25=1,30=1,71=1,74=-58,75=-5/1,2,3;
 4/5=5,16=3,69=1/1;
 5/5=2,38=5/2;
 7//1,2,3,16;
 1/18=20,19=15,26=4/3(-5);
 2/9=110/2;
 6/7=2,8=2,9=2,10=2,19=2,28=1/1;
 99/9=1/99;
 ----------
 prod_5l_41
 ----------
 Symbolic Z-matrix:
 Charge =  0 Multiplicity = 1
 O                     0.4332    1.62427   1.64504 
 S                    -0.00322   1.67453   0.20948 
 N                     1.09261   0.95747  -0.88686 
 C                     2.04346   0.02926  -0.46636 
 C                     2.04042  -0.54538   0.80965 
 C                     2.97386  -1.48879   1.16615 
 C                     3.93876  -1.88502   0.26188 
 C                     3.96717  -1.32876  -1.00153 
 C                     3.03468  -0.38496  -1.36309 
 C                    -1.33875   0.48233   0.06562 
 C                    -1.5035   -0.25199  -1.0842 
 C                    -2.5364   -1.162    -1.18021 
 C                    -3.41901  -1.34074  -0.12485 
 C                    -4.51855  -2.33879  -0.21727 
 C                    -3.23213  -0.59842   1.03236 
 C                    -2.19802   0.31119   1.12396 
 O                    -0.46075   2.95619  -0.42122 
 H                     1.41261   1.71344  -1.45862 
 H                     1.31297  -0.20843   1.52512 
 H                     2.95788  -1.91313   2.15658 
 H                     4.67135  -2.62335   0.54326 
 H                     4.72141  -1.63662  -1.70689 
 H                     3.04722   0.04259  -2.35015 
 H                    -0.81598  -0.11175  -1.90084 
 H                    -2.66361  -1.74192  -2.078 
 H                    -4.87873  -2.43242  -1.24218 
 H                    -4.17789  -3.32089   0.11167 
 H                    -5.36557  -2.04971   0.40553 
 H                    -3.90298  -0.73773   1.86243 
 H                    -2.04851   0.8912    2.02023 
 

 GradGradGradGradGradGradGradGradGradGradGradGradGradGradGradGradGradGrad
 Berny optimization.
 Initialization pass.
                           ----------------------------
                           !    Initial Parameters    !
                           ! (Angstroms and Degrees)  !
 --------------------------                            --------------------------
 ! Name  Definition              Value          Derivative Info.                !
 --------------------------------------------------------------------------------
 ! R1    R(1,2)                  1.5013         calculate D2E/DX2 analytically  !
 ! R2    R(2,3)                  1.7079         calculate D2E/DX2 analytically  !
 ! R3    R(2,10)                 1.796          calculate D2E/DX2 analytically  !
 ! R4    R(2,17)                 1.4999         calculate D2E/DX2 analytically  !
 ! R5    R(3,4)                  1.3937         calculate D2E/DX2 analytically  !
 ! R6    R(3,18)                 1.0004         calculate D2E/DX2 analytically  !
 ! R7    R(4,5)                  1.3994         calculate D2E/DX2 analytically  !
 ! R8    R(4,9)                  1.3994         calculate D2E/DX2 analytically  !
 ! R9    R(5,6)                  1.3742         calculate D2E/DX2 analytically  !
 ! R10   R(5,19)                 1.0745         calculate D2E/DX2 analytically  !
 ! R11   R(6,7)                  1.3805         calculate D2E/DX2 analytically  !
 ! R12   R(6,20)                 1.0776         calculate D2E/DX2 analytically  !
 ! R13   R(7,8)                  1.3807         calculate D2E/DX2 analytically  !
 ! R14   R(7,21)                 1.0775         calculate D2E/DX2 analytically  !
 ! R15   R(8,9)                  1.3751         calculate D2E/DX2 analytically  !
 ! R16   R(8,22)                 1.0776         calculate D2E/DX2 analytically  !
 ! R17   R(9,23)                 1.0758         calculate D2E/DX2 analytically  !
 ! R18   R(10,11)                1.3742         calculate D2E/DX2 analytically  !
 ! R19   R(10,16)                1.3739         calculate D2E/DX2 analytically  !
 ! R20   R(11,12)                1.3799         calculate D2E/DX2 analytically  !
 ! R21   R(11,24)                1.0767         calculate D2E/DX2 analytically  !
 ! R22   R(12,13)                1.3873         calculate D2E/DX2 analytically  !
 ! R23   R(12,25)                1.0763         calculate D2E/DX2 analytically  !
 ! R24   R(13,14)                1.4878         calculate D2E/DX2 analytically  !
 ! R25   R(13,15)                1.3875         calculate D2E/DX2 analytically  !
 ! R26   R(14,26)                1.0904         calculate D2E/DX2 analytically  !
 ! R27   R(14,27)                1.0903         calculate D2E/DX2 analytically  !
 ! R28   R(14,28)                1.0904         calculate D2E/DX2 analytically  !
 ! R29   R(15,16)                1.3803         calculate D2E/DX2 analytically  !
 ! R30   R(15,29)                1.0763         calculate D2E/DX2 analytically  !
 ! R31   R(16,30)                1.078          calculate D2E/DX2 analytically  !
 ! A1    A(1,2,3)              114.4088         calculate D2E/DX2 analytically  !
 ! A2    A(1,2,10)             105.6962         calculate D2E/DX2 analytically  !
 ! A3    A(1,2,17)             121.2896         calculate D2E/DX2 analytically  !
 ! A4    A(3,2,10)              98.4531         calculate D2E/DX2 analytically  !
 ! A5    A(3,2,17)             106.5319         calculate D2E/DX2 analytically  !
 ! A6    A(10,2,17)            107.8605         calculate D2E/DX2 analytically  !
 ! A7    A(2,3,4)              121.5788         calculate D2E/DX2 analytically  !
 ! A8    A(2,3,18)             104.7646         calculate D2E/DX2 analytically  !
 ! A9    A(4,3,18)             117.2241         calculate D2E/DX2 analytically  !
 ! A10   A(3,4,5)              123.1671         calculate D2E/DX2 analytically  !
 ! A11   A(3,4,9)              119.1466         calculate D2E/DX2 analytically  !
 ! A12   A(5,4,9)              117.6641         calculate D2E/DX2 analytically  !
 ! A13   A(4,5,6)              121.129          calculate D2E/DX2 analytically  !
 ! A14   A(4,5,19)             118.6741         calculate D2E/DX2 analytically  !
 ! A15   A(6,5,19)             120.1586         calculate D2E/DX2 analytically  !
 ! A16   A(5,6,7)              120.125          calculate D2E/DX2 analytically  !
 ! A17   A(5,6,20)             119.9135         calculate D2E/DX2 analytically  !
 ! A18   A(7,6,20)             119.959          calculate D2E/DX2 analytically  !
 ! A19   A(6,7,8)              119.8761         calculate D2E/DX2 analytically  !
 ! A20   A(6,7,21)             120.0556         calculate D2E/DX2 analytically  !
 ! A21   A(8,7,21)             120.0676         calculate D2E/DX2 analytically  !
 ! A22   A(7,8,9)              120.2075         calculate D2E/DX2 analytically  !
 ! A23   A(7,8,22)             119.8847         calculate D2E/DX2 analytically  !
 ! A24   A(9,8,22)             119.9077         calculate D2E/DX2 analytically  !
 ! A25   A(4,9,8)              120.9972         calculate D2E/DX2 analytically  !
 ! A26   A(4,9,23)             118.5934         calculate D2E/DX2 analytically  !
 ! A27   A(8,9,23)             120.4057         calculate D2E/DX2 analytically  !
 ! A28   A(2,10,11)            120.7223         calculate D2E/DX2 analytically  !
 ! A29   A(2,10,16)            119.0806         calculate D2E/DX2 analytically  !
 ! A30   A(11,10,16)           120.1972         calculate D2E/DX2 analytically  !
 ! A31   A(10,11,12)           120.0224         calculate D2E/DX2 analytically  !
 ! A32   A(10,11,24)           119.2402         calculate D2E/DX2 analytically  !
 ! A33   A(12,11,24)           120.7364         calculate D2E/DX2 analytically  !
 ! A34   A(11,12,13)           120.5459         calculate D2E/DX2 analytically  !
 ! A35   A(11,12,25)           120.1196         calculate D2E/DX2 analytically  !
 ! A36   A(13,12,25)           119.3345         calculate D2E/DX2 analytically  !
 ! A37   A(12,13,14)           120.619          calculate D2E/DX2 analytically  !
 ! A38   A(12,13,15)           118.6749         calculate D2E/DX2 analytically  !
 ! A39   A(14,13,15)           120.6798         calculate D2E/DX2 analytically  !
 ! A40   A(13,14,26)           111.1067         calculate D2E/DX2 analytically  !
 ! A41   A(13,14,27)           110.7684         calculate D2E/DX2 analytically  !
 ! A42   A(13,14,28)           111.1471         calculate D2E/DX2 analytically  !
 ! A43   A(26,14,27)           108.0255         calculate D2E/DX2 analytically  !
 ! A44   A(26,14,28)           107.6409         calculate D2E/DX2 analytically  !
 ! A45   A(27,14,28)           108.0111         calculate D2E/DX2 analytically  !
 ! A46   A(13,15,16)           120.5864         calculate D2E/DX2 analytically  !
 ! A47   A(13,15,29)           119.342          calculate D2E/DX2 analytically  !
 ! A48   A(16,15,29)           120.0716         calculate D2E/DX2 analytically  !
 ! A49   A(10,16,15)           119.9685         calculate D2E/DX2 analytically  !
 ! A50   A(10,16,30)           119.1228         calculate D2E/DX2 analytically  !
 ! A51   A(15,16,30)           120.9081         calculate D2E/DX2 analytically  !
 ! D1    D(1,2,3,4)             20.7356         calculate D2E/DX2 analytically  !
 ! D2    D(1,2,3,18)          -115.0987         calculate D2E/DX2 analytically  !
 ! D3    D(10,2,3,4)           -90.8441         calculate D2E/DX2 analytically  !
 ! D4    D(10,2,3,18)          133.3216         calculate D2E/DX2 analytically  !
 ! D5    D(17,2,3,4)           157.5912         calculate D2E/DX2 analytically  !
 ! D6    D(17,2,3,18)           21.7569         calculate D2E/DX2 analytically  !
 ! D7    D(1,2,10,11)         -145.1102         calculate D2E/DX2 analytically  !
 ! D8    D(1,2,10,16)           34.8523         calculate D2E/DX2 analytically  !
 ! D9    D(3,2,10,11)          -26.7034         calculate D2E/DX2 analytically  !
 ! D10   D(3,2,10,16)          153.2591         calculate D2E/DX2 analytically  !
 ! D11   D(17,2,10,11)          83.7918         calculate D2E/DX2 analytically  !
 ! D12   D(17,2,10,16)         -96.2457         calculate D2E/DX2 analytically  !
 ! D13   D(2,3,4,5)             10.6724         calculate D2E/DX2 analytically  !
 ! D14   D(2,3,4,9)           -171.0826         calculate D2E/DX2 analytically  !
 ! D15   D(18,3,4,5)           141.4139         calculate D2E/DX2 analytically  !
 ! D16   D(18,3,4,9)           -40.341          calculate D2E/DX2 analytically  !
 ! D17   D(3,4,5,6)            177.9105         calculate D2E/DX2 analytically  !
 ! D18   D(3,4,5,19)            -4.3363         calculate D2E/DX2 analytically  !
 ! D19   D(9,4,5,6)             -0.359          calculate D2E/DX2 analytically  !
 ! D20   D(9,4,5,19)           177.3942         calculate D2E/DX2 analytically  !
 ! D21   D(3,4,9,8)           -178.0225         calculate D2E/DX2 analytically  !
 ! D22   D(3,4,9,23)             1.2818         calculate D2E/DX2 analytically  !
 ! D23   D(5,4,9,8)              0.3189         calculate D2E/DX2 analytically  !
 ! D24   D(5,4,9,23)           179.6232         calculate D2E/DX2 analytically  !
 ! D25   D(4,5,6,7)              0.1129         calculate D2E/DX2 analytically  !
 ! D26   D(4,5,6,20)           179.5434         calculate D2E/DX2 analytically  !
 ! D27   D(19,5,6,7)          -177.6072         calculate D2E/DX2 analytically  !
 ! D28   D(19,5,6,20)            1.8233         calculate D2E/DX2 analytically  !
 ! D29   D(5,6,7,8)              0.1846         calculate D2E/DX2 analytically  !
 ! D30   D(5,6,7,21)           179.8751         calculate D2E/DX2 analytically  !
 ! D31   D(20,6,7,8)          -179.2457         calculate D2E/DX2 analytically  !
 ! D32   D(20,6,7,21)            0.4448         calculate D2E/DX2 analytically  !
 ! D33   D(6,7,8,9)             -0.2241         calculate D2E/DX2 analytically  !
 ! D34   D(6,7,8,22)           179.8872         calculate D2E/DX2 analytically  !
 ! D35   D(21,7,8,9)          -179.9146         calculate D2E/DX2 analytically  !
 ! D36   D(21,7,8,22)            0.1967         calculate D2E/DX2 analytically  !
 ! D37   D(7,8,9,4)             -0.0333         calculate D2E/DX2 analytically  !
 ! D38   D(7,8,9,23)          -179.325          calculate D2E/DX2 analytically  !
 ! D39   D(22,8,9,4)           179.8554         calculate D2E/DX2 analytically  !
 ! D40   D(22,8,9,23)            0.5636         calculate D2E/DX2 analytically  !
 ! D41   D(2,10,11,12)        -179.859          calculate D2E/DX2 analytically  !
 ! D42   D(2,10,11,24)           0.4978         calculate D2E/DX2 analytically  !
 ! D43   D(16,10,11,12)          0.179          calculate D2E/DX2 analytically  !
 ! D44   D(16,10,11,24)       -179.4642         calculate D2E/DX2 analytically  !
 ! D45   D(2,10,16,15)         179.8883         calculate D2E/DX2 analytically  !
 ! D46   D(2,10,16,30)          -0.3984         calculate D2E/DX2 analytically  !
 ! D47   D(11,10,16,15)         -0.149          calculate D2E/DX2 analytically  !
 ! D48   D(11,10,16,30)        179.5643         calculate D2E/DX2 analytically  !
 ! D49   D(10,11,12,13)          0.2802         calculate D2E/DX2 analytically  !
 ! D50   D(10,11,12,25)       -179.6598         calculate D2E/DX2 analytically  !
 ! D51   D(24,11,12,13)        179.918          calculate D2E/DX2 analytically  !
 ! D52   D(24,11,12,25)         -0.022          calculate D2E/DX2 analytically  !
 ! D53   D(11,12,13,14)       -178.9005         calculate D2E/DX2 analytically  !
 ! D54   D(11,12,13,15)         -0.7536         calculate D2E/DX2 analytically  !
 ! D55   D(25,12,13,14)          1.0399         calculate D2E/DX2 analytically  !
 ! D56   D(25,12,13,15)        179.1868         calculate D2E/DX2 analytically  !
 ! D57   D(12,13,14,26)        -32.484          calculate D2E/DX2 analytically  !
 ! D58   D(12,13,14,27)         87.5907         calculate D2E/DX2 analytically  !
 ! D59   D(12,13,14,28)       -152.326          calculate D2E/DX2 analytically  !
 ! D60   D(15,13,14,26)        149.4065         calculate D2E/DX2 analytically  !
 ! D61   D(15,13,14,27)        -90.5188         calculate D2E/DX2 analytically  !
 ! D62   D(15,13,14,28)         29.5645         calculate D2E/DX2 analytically  !
 ! D63   D(12,13,15,16)          0.7839         calculate D2E/DX2 analytically  !
 ! D64   D(12,13,15,29)       -179.2201         calculate D2E/DX2 analytically  !
 ! D65   D(14,13,15,16)        178.9296         calculate D2E/DX2 analytically  !
 ! D66   D(14,13,15,29)         -1.0744         calculate D2E/DX2 analytically  !
 ! D67   D(13,15,16,10)         -0.3404         calculate D2E/DX2 analytically  !
 ! D68   D(13,15,16,30)        179.9515         calculate D2E/DX2 analytically  !
 ! D69   D(29,15,16,10)        179.6637         calculate D2E/DX2 analytically  !
 ! D70   D(29,15,16,30)         -0.0444         calculate D2E/DX2 analytically  !
 --------------------------------------------------------------------------------
 Trust Radius=3.00D-01 FncErr=1.00D-07 GrdErr=1.00D-06 EigMax=2.50D+02 EigMin=1.00D-04
 Number of steps in this run=    162 maximum allowed number of steps=    180.
 GradGradGradGradGradGradGradGradGradGradGradGradGradGradGradGradGradGrad

                          Input orientation:                          
 ---------------------------------------------------------------------
 Center     Atomic      Atomic             Coordinates (Angstroms)
 Number     Number       Type             X           Y           Z
 ---------------------------------------------------------------------
      1          8           0        0.433200    1.624270    1.645040
      2         16           0       -0.003220    1.674530    0.209480
      3          7           0        1.092610    0.957470   -0.886860
      4          6           0        2.043460    0.029260   -0.466360
      5          6           0        2.040420   -0.545380    0.809650
      6          6           0        2.973860   -1.488790    1.166150
      7          6           0        3.938760   -1.885020    0.261880
      8          6           0        3.967170   -1.328760   -1.001530
      9          6           0        3.034680   -0.384960   -1.363090
     10          6           0       -1.338750    0.482330    0.065620
     11          6           0       -1.503500   -0.251990   -1.084200
     12          6           0       -2.536400   -1.162000   -1.180210
     13          6           0       -3.419010   -1.340740   -0.124850
     14          6           0       -4.518550   -2.338790   -0.217270
     15          6           0       -3.232130   -0.598420    1.032360
     16          6           0       -2.198020    0.311190    1.123960
     17          8           0       -0.460750    2.956190   -0.421220
     18          1           0        1.412610    1.713440   -1.458620
     19          1           0        1.312970   -0.208430    1.525120
     20          1           0        2.957880   -1.913130    2.156580
     21          1           0        4.671350   -2.623350    0.543260
     22          1           0        4.721410   -1.636620   -1.706890
     23          1           0        3.047220    0.042590   -2.350150
     24          1           0       -0.815980   -0.111750   -1.900840
     25          1           0       -2.663610   -1.741920   -2.078000
     26          1           0       -4.878730   -2.432420   -1.242180
     27          1           0       -4.177890   -3.320890    0.111670
     28          1           0       -5.365570   -2.049710    0.405530
     29          1           0       -3.902980   -0.737730    1.862430
     30          1           0       -2.048510    0.891200    2.020230
 ---------------------------------------------------------------------
                    Distance matrix (angstroms):
                    1          2          3          4          5
     1  O    0.000000
     2  S    1.501273   0.000000
     3  N    2.699993   1.707917   0.000000
     4  C    3.097580   2.711563   1.393739   0.000000
     5  C    2.826378   3.076470   2.456633   1.399436   0.000000
     6  C    4.046657   4.448013   3.706500   2.415618   1.374200
     7  C    5.149485   5.311530   4.183291   2.790513   2.387128
     8  C    5.311654   5.123504   3.674655   2.414805   2.757974
     9  C    4.455732   3.992908   2.408433   1.399364   2.394804
    10  C    2.634085   1.796017   2.654145   3.453639   3.609509
    11  C    3.836653   2.763318   2.870805   3.611337   4.028910
    12  C    4.956194   4.048968   4.212828   4.785791   5.028623
    13  C    5.173327   4.568506   5.120268   5.641995   5.595647
    14  C    6.610134   6.056159   6.542079   6.980665   6.876843
    15  C    4.330170   4.033521   4.980720   5.520144   5.277518
    16  C    2.986473   2.740824   3.910156   4.538585   4.335536
    17  O    2.615834   1.499923   2.573836   3.852275   4.475699
    18  H    3.255749   2.188298   1.000400   2.054024   3.262125
    19  H    2.036459   2.647414   2.688034   2.134503   1.074531
    20  H    4.375943   5.042878   4.580623   3.389522   2.127603
    21  H    6.100665   6.358835   5.260693   3.868007   3.363141
    22  H    6.344886   6.079335   4.535410   3.389024   3.835555
    23  H    5.029548   4.303501   2.607436   2.134567   3.368040
    24  H    4.140952   2.881809   2.411245   3.202189   3.961542
    25  H    5.897669   4.897180   4.776475   5.281190   5.647843
    26  H    7.280754   6.537962   6.875646   7.387725   7.459595
    27  H    6.933108   6.510888   6.861457   7.089628   6.845291
    28  H    6.975690   6.531707   7.240269   7.744420   7.568025
    29  H    4.942546   4.874358   5.948800   6.432082   6.038986
    30  H    2.614774   2.841766   4.280444   4.865212   4.499846
                    6          7          8          9         10
     6  C    0.000000
     7  C    1.380483   0.000000
     8  C    2.389793   1.380738   0.000000
     9  C    2.760289   2.389156   1.375144   0.000000
    10  C    4.867760   5.787484   5.707157   4.681911   0.000000
    11  C    5.161444   5.839256   5.576244   4.548685   1.374210
    12  C    5.997930   6.673086   6.508161   5.627981   2.385431
    13  C    6.523602   7.388002   7.438035   6.640547   2.772606
    14  C    7.666326   8.483017   8.581531   7.885533   4.260267
    15  C    6.270962   7.326025   7.516650   6.712425   2.384847
    16  C    5.476317   6.574693   6.724337   5.835340   1.373942
    17  O    5.837306   6.577205   6.189025   4.926300   2.669809
    18  H    4.425065   4.721278   3.998711   2.653963   3.377709
    19  H    2.127613   3.361771   3.831955   3.367077   3.104659
    20  H    1.077623   2.133730   3.366573   3.837874   5.345220
    21  H    2.134641   1.077494   2.134996   3.365004   6.781939
    22  H    3.366028   2.133143   1.077585   2.128358   6.660126
    23  H    3.835997   3.366485   2.132061   1.075753   5.026534
    24  H    5.066118   5.516285   5.016811   3.897615   2.119713
    25  H    6.509197   7.006198   6.730285   5.901097   3.361198
    26  H    8.267627   8.961583   8.917731   8.174887   4.768392
    27  H    7.457617   8.244046   8.458711   7.925640   4.746295
    28  H    8.392810   9.306896   9.465708   8.744347   4.768862
    29  H    6.952685   8.085229   8.395883   7.658952   3.360409
    30  H    5.622989   6.829831   7.088559   6.238129   2.119300
                   11         12         13         14         15
    11  C    0.000000
    12  C    1.379934   0.000000
    13  C    2.403104   1.387348   0.000000
    14  C    3.767868   2.498201   1.487828   0.000000
    15  C    2.754633   2.386866   1.387479   2.499068   0.000000
    16  C    2.382331   2.755719   2.404000   3.769105   1.380277
    17  O    3.437919   4.673743   5.225203   6.674140   4.735894
    18  H    3.536496   4.892887   5.869541   7.289731   5.755283
    19  H    3.839655   4.800599   5.137719   6.448332   4.588337
    20  H    5.758989   6.471899   6.796858   7.855785   6.427173
    21  H    6.811809   7.553645   8.218600   9.225706   8.173405
    22  H    6.407374   7.292356   8.298002   9.385567   8.475857
    23  H    4.732701   5.830661   6.976940   8.213466   7.161180
    24  H    1.076686   2.140602   3.382355   4.637148   3.831226
    25  H    2.133866   1.076344   2.132222   2.694322   3.362313
    26  H    4.021369   2.665392   2.137984   1.090384   3.353860
    27  H    4.242713   3.004039   2.133737   1.090308   3.025554
    28  H    4.512946   3.362559   2.138466   1.090362   2.655320
    29  H    3.830937   3.362321   2.132400   2.695825   1.076319
    30  H    3.352820   3.833599   3.385439   4.641157   2.143784
                   16         17         18         19         20
    16  C    0.000000
    17  O    3.521607   0.000000
    18  H    4.655392   2.475905   0.000000
    19  H    3.571832   4.116934   3.550523   0.000000
    20  H    5.709396   6.484008   5.348789   2.451627   0.000000
    21  H    7.492462   7.641985   5.782271   4.251424   2.458291
    22  H    7.725684   7.042843   4.715156   4.909489   4.255925
    23  H    6.297152   4.951332   2.501702   4.253040   4.913597
    24  H    3.352362   3.424576   2.914359   4.034721   5.826632
    25  H    3.832047   5.446995   5.379472   5.580972   7.040038
    26  H    4.506908   7.016384   7.537636   7.137312   8.557668
    27  H    4.258711   7.314563   7.685309   6.467982   7.555307
    28  H    4.015391   7.056898   7.973712   7.017599   8.506741
    29  H    2.133649   5.541575   6.730015   5.253577   6.967029
    30  H    1.077991   3.570132   4.975724   3.571256   5.739930
                   21         22         23         24         25
    21  H    0.000000
    22  H    2.457502   0.000000
    23  H    4.256390   2.456917   0.000000
    24  H    6.510956   5.746785   3.892302   0.000000
    25  H    7.838977   7.395088   5.989334   2.470339   0.000000
    26  H    9.717421   9.644270   8.376990   4.724963   2.466200
    27  H    8.887175   9.238045   8.341209   5.064703   3.095294
    28  H   10.054243  10.314074   9.096512   5.456537   3.682831
    29  H    8.877776   9.377001   8.164558   4.907507   4.251050
    30  H    7.725932   8.130997   6.766596   4.230819   4.909904
                   26         27         28         29         30
    26  H    0.000000
    27  H    1.764501   0.000000
    28  H    1.760235   1.764323   0.000000
    29  H    3.669151   3.132643   2.446021   0.000000
    30  H    5.449763   5.091028   4.717955   2.473332   0.000000
 Stoichiometry    C13H13NO2S
 Framework group  C1[X(C13H13NO2S)]
 Deg. of freedom    84
 Full point group                 C1      NOp   1
 Largest Abelian subgroup         C1      NOp   1
 Largest concise Abelian subgroup C1      NOp   1
                         Standard orientation:                         
 ---------------------------------------------------------------------
 Center     Atomic      Atomic             Coordinates (Angstroms)
 Number     Number       Type             X           Y           Z
 ---------------------------------------------------------------------
      1          8           0        0.458143    1.848566    1.459040
      2         16           0        0.067849    1.740757    0.013403
      3          7           0        1.173048    0.867889   -0.952836
      4          6           0        2.080021   -0.030661   -0.393802
      5          6           0        2.019229   -0.449708    0.940036
      6          6           0        2.910282   -1.370433    1.436740
      7          6           0        3.889163   -1.898369    0.618933
      8          6           0        3.974319   -1.496795   -0.699371
      9          6           0        3.084382   -0.576309   -1.201110
     10          6           0       -1.300499    0.578453   -0.035078
     11          6           0       -1.453543   -0.281964   -1.095604
     12          6           0       -2.511903   -1.167134   -1.119378
     13          6           0       -3.431812   -1.194319   -0.081225
     14          6           0       -4.559704   -2.164549   -0.093374
     15          6           0       -3.256628   -0.325717    0.986455
     16          6           0       -2.196937    0.558499    1.005940
     17          8           0       -0.328410    2.951153   -0.778865
     18          1           0        1.534733    1.541344   -1.598159
     19          1           0        1.281439   -0.009750    1.585575
     20          1           0        2.850190   -1.673776    2.469040
     21          1           0        4.588505   -2.618723    1.010092
     22          1           0        4.739502   -1.907444   -1.337375
     23          1           0        3.141038   -0.269282   -2.230560
     24          1           0       -0.737103   -0.259141   -1.899001
     25          1           0       -2.630186   -1.845503   -1.946627
     26          1           0       -4.891094   -2.368681   -1.111926
     27          1           0       -4.261246   -3.110050    0.360191
     28          1           0       -5.415648   -1.779680    0.461716
     29          1           0       -3.956797   -0.346500    1.803642
     30          1           0       -2.056326    1.236142    1.832434
 ---------------------------------------------------------------------
 Rotational constants (GHZ):           0.6750933           0.2831389           0.2390558
 Standard basis: def2SVP (5D, 7F)
 There are   324 symmetry adapted cartesian basis functions of A   symmetry.
 There are   307 symmetry adapted basis functions of A   symmetry.
   307 basis functions,   528 primitive gaussians,   324 cartesian basis functions
    65 alpha electrons       65 beta electrons
       nuclear repulsion energy      1313.9777160946 Hartrees.
 NAtoms=   30 NActive=   30 NUniq=   30 SFac= 1.00D+00 NAtFMM=   60 NAOKFM=F Big=F
 Integral buffers will be    131072 words long.
 Raffenetti 2 integral format.
 Two-electron integral symmetry is turned on.
 Nuclear repulsion after empirical dispersion term =     1313.9586195750 Hartrees.
 One-electron integrals computed using PRISM.
   1 Symmetry operations used in ECPInt.
 ECPInt:  NShTT=   10296 NPrTT=   38220 LenC2=    9450 LenP2D=   24775.
 LDataN:  DoStor=T MaxTD1= 4 Len=   56
 NBasis=   307 RedAO= T EigKep=  2.37D-04  NBF=   307
 NBsUse=   307 1.00D-06 EigRej= -1.00D+00 NBFU=   307
 ExpMin= 1.22D-01 ExpMax= 9.18D+03 ExpMxC= 1.38D+03 IAcc=3 IRadAn=         5 AccDes= 0.00D+00
 Harris functional with IExCor= 4639 and IRadAn=       5 diagonalized for initial guess.
 HarFok:  IExCor= 4639 AccDes= 0.00D+00 IRadAn=         5 IDoV= 1 UseB2=F ITyADJ=14
 ICtDFT=  3500011 ScaDFX=  1.000000  1.000000  1.000000  1.000000
 FoFCou: FMM=F IPFlag=           0 FMFlag=      100000 FMFlg1=           0
         NFxFlg=           0 DoJE=T BraDBF=F KetDBF=T FulRan=T
         wScrn=  0.000000 ICntrl=       500 IOpCl=  0 I1Cent=   200000004 NGrid=           0
         NMat0=    1 NMatS0=      1 NMatT0=    0 NMatD0=    1 NMtDS0=    0 NMtDT0=    0
 Petite list used in FoFCou.
 Requested convergence on RMS density matrix=1.00D-08 within 128 cycles.
 Requested convergence on MAX density matrix=1.00D-06.
 Requested convergence on             energy=1.00D-06.
 No special actions if energy rises.
 Integral accuracy reduced to 1.0D-05 until final iterations.
 Initial convergence to 1.0D-05 achieved.  Increase integral accuracy.
 SCF Done:  E(RwB97XD) =  -1105.64478362     A.U. after   15 cycles
            NFock= 15  Conv=0.98D-08     -V/T= 2.0071
 DoSCS=F DFT=T ScalE2(SS,OS)=  1.000000  1.000000
 Range of M.O.s used for correlation:     1   307
 NBasis=   307 NAE=    65 NBE=    65 NFC=     0 NFV=     0
 NROrb=    307 NOA=    65 NOB=    65 NVA=   242 NVB=   242

 **** Warning!!: The largest alpha MO coefficient is  0.12403624D+02

   1 Symmetry operations used in ECPInt.
 ECPInt:  NShTT=   10296 NPrTT=   38220 LenC2=    9450 LenP2D=   24775.
 LDataN:  DoStor=T MaxTD1= 5 Len=  102
 Symmetrizing basis deriv contribution to polar:
 IMax=3 JMax=2 DiffMx= 0.00D+00
 G2DrvN: will do    31 centers at a time, making    1 passes.
 Calling FoFCou, ICntrl=  3107 FMM=F I1Cent=   0 AccDes= 0.00D+00.
 End of G2Drv F.D. properties file   721 does not exist.
 End of G2Drv F.D. properties file   722 does not exist.
 End of G2Drv F.D. properties file   788 does not exist.
          IDoAtm=111111111111111111111111111111
          Differentiating once with respect to nuclear coordinates.
 CalDSu exits because no D1Ps are significant.
          There are    93 degrees of freedom in the 1st order CPHF.  IDoFFX=6 NUNeed=     0.
     87 vectors produced by pass  0 Test12= 1.69D-14 1.08D-09 XBig12= 1.15D-01 9.04D-02.
 AX will form    87 AO Fock derivatives at one time.
     87 vectors produced by pass  1 Test12= 1.69D-14 1.08D-09 XBig12= 2.04D-02 2.72D-02.
     87 vectors produced by pass  2 Test12= 1.69D-14 1.08D-09 XBig12= 5.30D-04 3.14D-03.
     87 vectors produced by pass  3 Test12= 1.69D-14 1.08D-09 XBig12= 9.62D-06 4.56D-04.
     87 vectors produced by pass  4 Test12= 1.69D-14 1.08D-09 XBig12= 9.99D-08 4.14D-05.
     87 vectors produced by pass  5 Test12= 1.69D-14 1.08D-09 XBig12= 6.75D-10 2.53D-06.
     81 vectors produced by pass  6 Test12= 1.69D-14 1.08D-09 XBig12= 4.14D-12 1.59D-07.
     43 vectors produced by pass  7 Test12= 1.69D-14 1.08D-09 XBig12= 1.96D-14 1.16D-08.
      1 vectors produced by pass  8 Test12= 1.69D-14 1.08D-09 XBig12= 3.84D-16 1.64D-09.
 InvSVY:  IOpt=1 It=  1 EMax= 3.89D-16
 Solved reduced A of dimension   647 with    93 vectors.
 End of Minotr F.D. properties file   721 does not exist.
 End of Minotr F.D. properties file   722 does not exist.
 End of Minotr F.D. properties file   788 does not exist.

 **********************************************************************

            Population analysis using the SCF Density.

 **********************************************************************

 Orbital symmetries:
       Occupied  (A) (A) (A) (A) (A) (A) (A) (A) (A) (A) (A) (A)
                 (A) (A) (A) (A) (A) (A) (A) (A) (A) (A) (A) (A)
                 (A) (A) (A) (A) (A) (A) (A) (A) (A) (A) (A) (A)
                 (A) (A) (A) (A) (A) (A) (A) (A) (A) (A) (A) (A)
                 (A) (A) (A) (A) (A) (A) (A) (A) (A) (A) (A) (A)
                 (A) (A) (A) (A) (A)
       Virtual   (A) (A) (A) (A) (A) (A) (A) (A) (A) (A) (A) (A)
                 (A) (A) (A) (A) (A) (A) (A) (A) (A) (A) (A) (A)
                 (A) (A) (A) (A) (A) (A) (A) (A) (A) (A) (A) (A)
                 (A) (A) (A) (A) (A) (A) (A) (A) (A) (A) (A) (A)
                 (A) (A) (A) (A) (A) (A) (A) (A) (A) (A) (A) (A)
                 (A) (A) (A) (A) (A) (A) (A) (A) (A) (A) (A) (A)
                 (A) (A) (A) (A) (A) (A) (A) (A) (A) (A) (A) (A)
                 (A) (A) (A) (A) (A) (A) (A) (A) (A) (A) (A) (A)
                 (A) (A) (A) (A) (A) (A) (A) (A) (A) (A) (A) (A)
                 (A) (A) (A) (A) (A) (A) (A) (A) (A) (A) (A) (A)
                 (A) (A) (A) (A) (A) (A) (A) (A) (A) (A) (A) (A)
                 (A) (A) (A) (A) (A) (A) (A) (A) (A) (A) (A) (A)
                 (A) (A) (A) (A) (A) (A) (A) (A) (A) (A) (A) (A)
                 (A) (A) (A) (A) (A) (A) (A) (A) (A) (A) (A) (A)
                 (A) (A) (A) (A) (A) (A) (A) (A) (A) (A) (A) (A)
                 (A) (A) (A) (A) (A) (A) (A) (A) (A) (A) (A) (A)
                 (A) (A) (A) (A) (A) (A) (A) (A) (A) (A) (A) (A)
                 (A) (A) (A) (A) (A) (A) (A) (A) (A) (A) (A) (A)
                 (A) (A) (A) (A) (A) (A) (A) (A) (A) (A) (A) (A)
                 (A) (A) (A) (A) (A) (A) (A) (A) (A) (A) (A) (A)
                 (A) (A)
 The electronic state is 1-A.
 Alpha  occ. eigenvalues --  -89.25605 -19.25848 -19.25462 -14.50181 -10.35664
 Alpha  occ. eigenvalues --  -10.33350 -10.32538 -10.32164 -10.32128 -10.31361
 Alpha  occ. eigenvalues --  -10.31360 -10.30713 -10.30708 -10.30511 -10.30170
 Alpha  occ. eigenvalues --  -10.29720 -10.29610  -8.27367  -6.22813  -6.22686
 Alpha  occ. eigenvalues --   -6.22565  -1.20134  -1.08561  -1.05518  -0.98588
 Alpha  occ. eigenvalues --   -0.95486  -0.90192  -0.86360  -0.85194  -0.84736
 Alpha  occ. eigenvalues --   -0.81472  -0.75959  -0.72560  -0.71756  -0.70854
 Alpha  occ. eigenvalues --   -0.68062  -0.64822  -0.63468  -0.60321  -0.58873
 Alpha  occ. eigenvalues --   -0.57788  -0.56405  -0.54946  -0.54118  -0.53587
 Alpha  occ. eigenvalues --   -0.52937  -0.52871  -0.52612  -0.51595  -0.49675
 Alpha  occ. eigenvalues --   -0.48492  -0.47468  -0.46477  -0.45969  -0.44267
 Alpha  occ. eigenvalues --   -0.44120  -0.42820  -0.41295  -0.40779  -0.38857
 Alpha  occ. eigenvalues --   -0.38455  -0.35267  -0.34312  -0.33842  -0.31053
 Alpha virt. eigenvalues --    0.02885   0.04368   0.05774   0.06121   0.11071
 Alpha virt. eigenvalues --    0.13207   0.13767   0.14564   0.15327   0.16062
 Alpha virt. eigenvalues --    0.17189   0.17320   0.18854   0.19243   0.20572
 Alpha virt. eigenvalues --    0.20783   0.21385   0.22771   0.23683   0.24075
 Alpha virt. eigenvalues --    0.24693   0.25740   0.26945   0.29774   0.32192
 Alpha virt. eigenvalues --    0.35063   0.36440   0.37127   0.37225   0.37607
 Alpha virt. eigenvalues --    0.38256   0.39051   0.39726   0.41780   0.43434
 Alpha virt. eigenvalues --    0.45593   0.47287   0.47969   0.48251   0.48924
 Alpha virt. eigenvalues --    0.49472   0.51346   0.51701   0.52418   0.53813
 Alpha virt. eigenvalues --    0.54686   0.55019   0.55870   0.56537   0.57275
 Alpha virt. eigenvalues --    0.58168   0.58623   0.59645   0.61042   0.62267
 Alpha virt. eigenvalues --    0.62489   0.63390   0.63927   0.64829   0.66118
 Alpha virt. eigenvalues --    0.68698   0.69850   0.70489   0.71057   0.71706
 Alpha virt. eigenvalues --    0.72019   0.73208   0.73298   0.73885   0.74364
 Alpha virt. eigenvalues --    0.74829   0.75570   0.76309   0.76509   0.77174
 Alpha virt. eigenvalues --    0.77432   0.78068   0.79494   0.80064   0.80944
 Alpha virt. eigenvalues --    0.81304   0.82148   0.83054   0.83227   0.83653
 Alpha virt. eigenvalues --    0.84703   0.86141   0.87866   0.89727   0.89851
 Alpha virt. eigenvalues --    0.90583   0.91829   0.93615   0.95977   0.96703
 Alpha virt. eigenvalues --    0.98059   0.98786   1.02028   1.03725   1.05514
 Alpha virt. eigenvalues --    1.09089   1.09998   1.11661   1.12416   1.13273
 Alpha virt. eigenvalues --    1.15328   1.17760   1.18497   1.20775   1.21588
 Alpha virt. eigenvalues --    1.23771   1.24931   1.28034   1.28260   1.29348
 Alpha virt. eigenvalues --    1.30485   1.31362   1.32002   1.32228   1.32860
 Alpha virt. eigenvalues --    1.34726   1.36363   1.36716   1.37869   1.38205
 Alpha virt. eigenvalues --    1.38642   1.40760   1.41545   1.43079   1.48833
 Alpha virt. eigenvalues --    1.54891   1.57455   1.59620   1.61050   1.61868
 Alpha virt. eigenvalues --    1.62772   1.64664   1.69343   1.74310   1.75146
 Alpha virt. eigenvalues --    1.76273   1.77225   1.78742   1.80947   1.81750
 Alpha virt. eigenvalues --    1.82230   1.82406   1.82898   1.83789   1.84234
 Alpha virt. eigenvalues --    1.85253   1.85816   1.85927   1.87632   1.87958
 Alpha virt. eigenvalues --    1.88381   1.88580   1.89219   1.92304   1.93332
 Alpha virt. eigenvalues --    1.93449   1.95213   1.96041   2.00494   2.02003
 Alpha virt. eigenvalues --    2.04012   2.04574   2.05922   2.06728   2.08652
 Alpha virt. eigenvalues --    2.09951   2.11063   2.13234   2.14114   2.17074
 Alpha virt. eigenvalues --    2.17228   2.19697   2.21278   2.21538   2.22729
 Alpha virt. eigenvalues --    2.24830   2.26845   2.29138   2.30966   2.31452
 Alpha virt. eigenvalues --    2.33084   2.35095   2.35605   2.38510   2.38757
 Alpha virt. eigenvalues --    2.40484   2.43272   2.43694   2.44343   2.45532
 Alpha virt. eigenvalues --    2.46108   2.52028   2.55352   2.56780   2.57169
 Alpha virt. eigenvalues --    2.59890   2.62336   2.68626   2.70855   2.71758
 Alpha virt. eigenvalues --    2.72534   2.73100   2.73411   2.73678   2.73967
 Alpha virt. eigenvalues --    2.74762   2.74982   2.77050   2.78785   2.81373
 Alpha virt. eigenvalues --    2.82919   2.83097   2.84250   2.85270   2.85888
 Alpha virt. eigenvalues --    2.88795   2.94106   2.95369   2.96276   2.99743
 Alpha virt. eigenvalues --    3.00982   3.01427   3.03213   3.03575   3.04620
 Alpha virt. eigenvalues --    3.06518   3.08909   3.23013   3.23546   3.25301
 Alpha virt. eigenvalues --    3.31420   3.33598   3.34602   3.45696   3.47257
 Alpha virt. eigenvalues --    3.69678   3.78526
          Condensed to atoms (all electrons):
               1          2          3          4          5          6
     1  O    8.171447   0.389974  -0.040012   0.002339  -0.018819   0.001257
     2  S    0.389974  13.956723   0.191103  -0.029335  -0.001075  -0.001435
     3  N   -0.040012   0.191103   6.872345   0.249123  -0.076419   0.007747
     4  C    0.002339  -0.029335   0.249123   5.187081   0.259438   0.107274
     5  C   -0.018819  -0.001075  -0.076419   0.259438   5.190361   0.266355
     6  C    0.001257  -0.001435   0.007747   0.107274   0.266355   5.047902
     7  C   -0.000028   0.000086  -0.000412  -0.163162   0.086154   0.275626
     8  C   -0.000005  -0.000203   0.006884   0.110115  -0.146723   0.096618
     9  C    0.000313   0.001273  -0.071396   0.265233   0.073924  -0.146814
    10  C   -0.066870   0.244414  -0.080453   0.005378   0.001039  -0.000604
    11  C    0.003543  -0.042610  -0.022476   0.001202   0.000576   0.000060
    12  C   -0.000024   0.002188   0.000514  -0.000298  -0.000155  -0.000012
    13  C   -0.000029   0.000719  -0.000064   0.000008  -0.000018   0.000001
    14  C    0.000000   0.000010   0.000000  -0.000000  -0.000000   0.000000
    15  C    0.001133   0.001290   0.000009  -0.000040  -0.000006   0.000002
    16  C    0.003508  -0.037490   0.008199  -0.000883  -0.000522  -0.000002
    17  O   -0.027624   0.421268  -0.044946   0.000606   0.000146   0.000006
    18  H    0.000959  -0.002425   0.317795  -0.002112   0.004064  -0.000280
    19  H    0.033120  -0.002353  -0.011645  -0.072621   0.440203  -0.046752
    20  H    0.000007  -0.000015  -0.000106   0.015255  -0.065654   0.456103
    21  H    0.000000  -0.000000   0.000011  -0.001438   0.014825  -0.067811
    22  H   -0.000000   0.000003  -0.000115   0.015540  -0.001879   0.013818
    23  H    0.000015  -0.000133  -0.009488  -0.082498   0.016749  -0.002243
    24  H    0.000277  -0.014944   0.020367  -0.001346  -0.000421   0.000039
    25  H    0.000001  -0.000163  -0.000012   0.000007   0.000003   0.000000
    26  H    0.000000  -0.000000   0.000000  -0.000000  -0.000000   0.000000
    27  H   -0.000000  -0.000000  -0.000000   0.000000   0.000000  -0.000000
    28  H    0.000000  -0.000000   0.000000  -0.000000   0.000000   0.000000
    29  H   -0.000005  -0.000166   0.000001   0.000000  -0.000001   0.000000
    30  H    0.012434  -0.010227   0.000601  -0.000152   0.000037   0.000015
               7          8          9         10         11         12
     1  O   -0.000028  -0.000005   0.000313  -0.066870   0.003543  -0.000024
     2  S    0.000086  -0.000203   0.001273   0.244414  -0.042610   0.002188
     3  N   -0.000412   0.006884  -0.071396  -0.080453  -0.022476   0.000514
     4  C   -0.163162   0.110115   0.265233   0.005378   0.001202  -0.000298
     5  C    0.086154  -0.146723   0.073924   0.001039   0.000576  -0.000155
     6  C    0.275626   0.096618  -0.146814  -0.000604   0.000060  -0.000012
     7  C    5.104147   0.284989   0.085712  -0.000003  -0.000012   0.000002
     8  C    0.284989   5.011072   0.308063  -0.000007  -0.000009   0.000001
     9  C    0.085712   0.308063   5.140655  -0.000783  -0.000350  -0.000002
    10  C   -0.000003  -0.000007  -0.000783   5.719215   0.226888   0.099685
    11  C   -0.000012  -0.000009  -0.000350   0.226888   5.045518   0.312470
    12  C    0.000002   0.000001  -0.000002   0.099685   0.312470   5.063615
    13  C   -0.000000   0.000000  -0.000001  -0.188304   0.095551   0.287305
    14  C   -0.000000   0.000000  -0.000000   0.000595   0.009669  -0.076874
    15  C    0.000000   0.000000   0.000000   0.094961  -0.122028   0.053469
    16  C    0.000000   0.000000  -0.000021   0.206692   0.051564  -0.126097
    17  O   -0.000000   0.000000  -0.000064  -0.041907   0.001195   0.000013
    18  H    0.000008   0.000237  -0.014336   0.003485   0.001961   0.000047
    19  H    0.013740  -0.002142   0.013490  -0.004004  -0.001142  -0.000079
    20  H   -0.073785   0.014016  -0.001895   0.000005   0.000001  -0.000000
    21  H    0.451801  -0.070318   0.014437   0.000000   0.000000   0.000000
    22  H   -0.069170   0.453653  -0.068978   0.000000  -0.000000  -0.000000
    23  H    0.014892  -0.060006   0.452929  -0.000022  -0.000022   0.000001
    24  H    0.000002   0.000052  -0.000384  -0.073478   0.452747  -0.059160
    25  H   -0.000000  -0.000000   0.000001   0.016779  -0.065965   0.459956
    26  H    0.000000   0.000000   0.000000   0.000002   0.000833  -0.008823
    27  H   -0.000000  -0.000000  -0.000000   0.000130  -0.000250  -0.003296
    28  H    0.000000  -0.000000   0.000000  -0.000014  -0.000517   0.007405
    29  H    0.000000  -0.000000   0.000000   0.016620  -0.001873   0.014392
    30  H   -0.000000   0.000000  -0.000001  -0.076667   0.013224  -0.001858
              13         14         15         16         17         18
     1  O   -0.000029   0.000000   0.001133   0.003508  -0.027624   0.000959
     2  S    0.000719   0.000010   0.001290  -0.037490   0.421268  -0.002425
     3  N   -0.000064   0.000000   0.000009   0.008199  -0.044946   0.317795
     4  C    0.000008  -0.000000  -0.000040  -0.000883   0.000606  -0.002112
     5  C   -0.000018  -0.000000  -0.000006  -0.000522   0.000146   0.004064
     6  C    0.000001   0.000000   0.000002  -0.000002   0.000006  -0.000280
     7  C   -0.000000  -0.000000   0.000000   0.000000  -0.000000   0.000008
     8  C    0.000000   0.000000   0.000000   0.000000   0.000000   0.000237
     9  C   -0.000001  -0.000000   0.000000  -0.000021  -0.000064  -0.014336
    10  C   -0.188304   0.000595   0.094961   0.206692  -0.041907   0.003485
    11  C    0.095551   0.009669  -0.122028   0.051564   0.001195   0.001961
    12  C    0.287305  -0.076874   0.053469  -0.126097   0.000013   0.000047
    13  C    5.260080   0.407623   0.283545   0.099474  -0.000014   0.000006
    14  C    0.407623   4.550090  -0.076794   0.009829  -0.000000  -0.000000
    15  C    0.283545  -0.076794   5.086416   0.292426  -0.000126   0.000003
    16  C    0.099474   0.009829   0.292426   5.073106  -0.002831  -0.000472
    17  O   -0.000014  -0.000000  -0.000126  -0.002831   8.157815   0.011719
    18  H    0.000006  -0.000000   0.000003  -0.000472   0.011719   0.510072
    19  H   -0.000022  -0.000000   0.000237   0.000513   0.000384  -0.000397
    20  H    0.000000   0.000000  -0.000000   0.000000  -0.000000   0.000010
    21  H    0.000000   0.000000  -0.000000  -0.000000   0.000000  -0.000001
    22  H   -0.000000  -0.000000   0.000000   0.000000  -0.000000  -0.000023
    23  H   -0.000000   0.000000  -0.000000   0.000001  -0.000022   0.002896
    24  H    0.014580  -0.000226  -0.001826   0.013445   0.000961  -0.000620
    25  H   -0.076994  -0.013480   0.014512  -0.001968   0.000001  -0.000004
    26  H   -0.018714   0.392069   0.007302  -0.000573  -0.000000  -0.000000
    27  H   -0.012069   0.389417  -0.003358  -0.000229   0.000000   0.000000
    28  H   -0.018582   0.392357  -0.008901   0.000810  -0.000000  -0.000000
    29  H   -0.075753  -0.013854   0.460655  -0.067133   0.000002  -0.000000
    30  H    0.014199  -0.000223  -0.050353   0.451410   0.000429  -0.000031
              19         20         21         22         23         24
     1  O    0.033120   0.000007   0.000000  -0.000000   0.000015   0.000277
     2  S   -0.002353  -0.000015  -0.000000   0.000003  -0.000133  -0.014944
     3  N   -0.011645  -0.000106   0.000011  -0.000115  -0.009488   0.020367
     4  C   -0.072621   0.015255  -0.001438   0.015540  -0.082498  -0.001346
     5  C    0.440203  -0.065654   0.014825  -0.001879   0.016749  -0.000421
     6  C   -0.046752   0.456103  -0.067811   0.013818  -0.002243   0.000039
     7  C    0.013740  -0.073785   0.451801  -0.069170   0.014892   0.000002
     8  C   -0.002142   0.014016  -0.070318   0.453653  -0.060006   0.000052
     9  C    0.013490  -0.001895   0.014437  -0.068978   0.452929  -0.000384
    10  C   -0.004004   0.000005   0.000000   0.000000  -0.000022  -0.073478
    11  C   -0.001142   0.000001   0.000000  -0.000000  -0.000022   0.452747
    12  C   -0.000079  -0.000000   0.000000  -0.000000   0.000001  -0.059160
    13  C   -0.000022   0.000000   0.000000  -0.000000  -0.000000   0.014580
    14  C   -0.000000   0.000000   0.000000  -0.000000   0.000000  -0.000226
    15  C    0.000237  -0.000000  -0.000000   0.000000  -0.000000  -0.001826
    16  C    0.000513   0.000000  -0.000000   0.000000   0.000001   0.013445
    17  O    0.000384  -0.000000   0.000000  -0.000000  -0.000022   0.000961
    18  H   -0.000397   0.000010  -0.000001  -0.000023   0.002896  -0.000620
    19  H    0.627385  -0.013018  -0.000206   0.000017  -0.000121  -0.000088
    20  H   -0.013018   0.664780  -0.012024  -0.000256   0.000024   0.000001
    21  H   -0.000206  -0.012024   0.671671  -0.012310  -0.000233  -0.000000
    22  H    0.000017  -0.000256  -0.012310   0.667252  -0.013059  -0.000001
    23  H   -0.000121   0.000024  -0.000233  -0.013059   0.687456   0.000095
    24  H   -0.000088   0.000001  -0.000000  -0.000001   0.000095   0.641352
    25  H    0.000001  -0.000000  -0.000000   0.000000   0.000000  -0.011974
    26  H    0.000000   0.000000  -0.000000  -0.000000  -0.000000  -0.000001
    27  H    0.000000  -0.000000   0.000000   0.000000   0.000000   0.000002
    28  H   -0.000000  -0.000000  -0.000000   0.000000  -0.000000   0.000008
    29  H   -0.000000   0.000000   0.000000  -0.000000   0.000000   0.000026
    30  H    0.000321  -0.000001  -0.000000   0.000000  -0.000000  -0.000220
              25         26         27         28         29         30
     1  O    0.000001   0.000000  -0.000000   0.000000  -0.000005   0.012434
     2  S   -0.000163  -0.000000  -0.000000  -0.000000  -0.000166  -0.010227
     3  N   -0.000012   0.000000  -0.000000   0.000000   0.000001   0.000601
     4  C    0.000007  -0.000000   0.000000  -0.000000   0.000000  -0.000152
     5  C    0.000003  -0.000000   0.000000   0.000000  -0.000001   0.000037
     6  C    0.000000   0.000000  -0.000000   0.000000   0.000000   0.000015
     7  C   -0.000000   0.000000  -0.000000   0.000000   0.000000  -0.000000
     8  C   -0.000000   0.000000  -0.000000  -0.000000  -0.000000   0.000000
     9  C    0.000001   0.000000  -0.000000   0.000000   0.000000  -0.000001
    10  C    0.016779   0.000002   0.000130  -0.000014   0.016620  -0.076667
    11  C   -0.065965   0.000833  -0.000250  -0.000517  -0.001873   0.013224
    12  C    0.459956  -0.008823  -0.003296   0.007405   0.014392  -0.001858
    13  C   -0.076994  -0.018714  -0.012069  -0.018582  -0.075753   0.014199
    14  C   -0.013480   0.392069   0.389417   0.392357  -0.013854  -0.000223
    15  C    0.014512   0.007302  -0.003358  -0.008901   0.460655  -0.050353
    16  C   -0.001968  -0.000573  -0.000229   0.000810  -0.067133   0.451410
    17  O    0.000001  -0.000000   0.000000  -0.000000   0.000002   0.000429
    18  H   -0.000004  -0.000000   0.000000  -0.000000  -0.000000  -0.000031
    19  H    0.000001   0.000000   0.000000  -0.000000  -0.000000   0.000321
    20  H   -0.000000   0.000000  -0.000000  -0.000000   0.000000  -0.000001
    21  H   -0.000000  -0.000000   0.000000  -0.000000   0.000000  -0.000000
    22  H    0.000000  -0.000000   0.000000   0.000000  -0.000000   0.000000
    23  H    0.000000  -0.000000   0.000000  -0.000000   0.000000  -0.000000
    24  H   -0.011974  -0.000001   0.000002   0.000008   0.000026  -0.000220
    25  H    0.668733   0.004338   0.000793   0.000146  -0.000226   0.000022
    26  H    0.004338   0.619755  -0.017279  -0.022257   0.000164   0.000007
    27  H    0.000793  -0.017279   0.598249  -0.017174   0.000723   0.000003
    28  H    0.000146  -0.022257  -0.017174   0.619693   0.004531   0.000000
    29  H   -0.000226   0.000164   0.000723   0.004531   0.665217  -0.011392
    30  H    0.000022   0.000007   0.000003   0.000000  -0.011392   0.627675
 Mulliken charges:
               1
     1  O   -0.466910
     2  S    0.933524
     3  N   -0.317155
     4  C    0.135285
     5  C   -0.042185
     6  C   -0.006871
     7  C   -0.010587
     8  C   -0.006287
     9  C   -0.051004
    10  C   -0.102772
    11  C    0.040252
    12  C   -0.024383
    13  C   -0.072527
    14  C    0.029793
    15  C   -0.032526
    16  C    0.027244
    17  O   -0.477013
    18  H    0.167438
    19  H    0.025179
    20  H    0.016553
    21  H    0.011596
    22  H    0.015507
    23  H   -0.007207
    24  H    0.020733
    25  H    0.005494
    26  H    0.043177
    27  H    0.064338
    28  H    0.042495
    29  H    0.008072
    30  H    0.030747
 Sum of Mulliken charges =  -0.00000
 Mulliken charges with hydrogens summed into heavy atoms:
               1
     1  O   -0.466910
     2  S    0.933524
     3  N   -0.149717
     4  C    0.135285
     5  C   -0.017006
     6  C    0.009681
     7  C    0.001009
     8  C    0.009220
     9  C   -0.058211
    10  C   -0.102772
    11  C    0.060985
    12  C   -0.018890
    13  C   -0.072527
    14  C    0.179803
    15  C   -0.024454
    16  C    0.057992
    17  O   -0.477013
 APT charges:
               1
     1  O   -0.205323
     2  S    0.027531
     3  N   -0.600336
     4  C   -0.539297
     5  C   -0.326932
     6  C   -0.440264
     7  C   -0.602680
     8  C   -0.486681
     9  C   -0.485154
    10  C   -0.307408
    11  C   -0.403701
    12  C   -0.624685
    13  C    0.137316
    14  C   -1.016124
    15  C   -0.657145
    16  C   -0.443906
    17  O    0.089751
    18  H    0.657289
    19  H    0.038453
    20  H    0.519050
    21  H    0.940231
    22  H    0.917877
    23  H    0.425404
    24  H    0.195870
    25  H    0.532160
    26  H    0.539328
    27  H    0.310494
    28  H    0.689640
    29  H    0.723173
    30  H    0.396067
 Sum of APT charges =  -0.00000
 APT charges with hydrogens summed into heavy atoms:
               1
     1  O   -0.205323
     2  S    0.027531
     3  N    0.056954
     4  C   -0.539297
     5  C   -0.288478
     6  C    0.078786
     7  C    0.337551
     8  C    0.431195
     9  C   -0.059750
    10  C   -0.307408
    11  C   -0.207831
    12  C   -0.092525
    13  C    0.137316
    14  C    0.523339
    15  C    0.066029
    16  C   -0.047839
    17  O    0.089751
 Electronic spatial extent (au):  <R**2>=           4800.8385
 Charge=             -0.0000 electrons
 Dipole moment (field-independent basis, Debye):
    X=             -0.9796    Y=             -4.0868    Z=             -1.4052  Tot=              4.4312
 Quadrupole moment (field-independent basis, Debye-Ang):
   XX=            -91.1022   YY=           -114.7835   ZZ=           -100.8096
   XY=              4.0910   XZ=             -6.8012   YZ=             -1.1633
 Traceless Quadrupole moment (field-independent basis, Debye-Ang):
   XX=             11.1296   YY=            -12.5518   ZZ=              1.4222
   XY=              4.0910   XZ=             -6.8012   YZ=             -1.1633
 Octapole moment (field-independent basis, Debye-Ang**2):
  XXX=            -27.3734  YYY=            -18.9165  ZZZ=             -6.3593  XYY=              3.6388
  XXY=            -30.4903  XXZ=             -0.2644  XZZ=              3.5342  YZZ=             -3.6654
  YYZ=              2.8023  XYZ=            -17.6322
 Hexadecapole moment (field-independent basis, Debye-Ang**3):
 XXXX=          -4181.7529 YYYY=          -1547.3762 ZZZZ=           -636.9472 XXXY=              0.8946
 XXXZ=            -86.3339 YYYX=             41.7402 YYYZ=             14.7215 ZZZX=            -17.0524
 ZZZY=            -14.3504 XXYY=           -886.0015 XXZZ=           -781.2711 YYZZ=           -352.0797
 XXYZ=             -0.5868 YYXZ=             -3.3918 ZZXY=             -2.6494
 N-N= 1.313958619575D+03 E-N=-5.216683287447D+03  KE= 1.097870310726D+03
  Exact polarizability:       0.000       0.000       0.000       0.000       0.000       0.000
 Approx polarizability:     179.688      -7.801     169.128     -15.304       0.329     198.981
   1 Symmetry operations used in ECPInt.
 ECPInt:  NShTT=   10296 NPrTT=   38220 LenC2=    9450 LenP2D=   24775.
 LDataN:  DoStor=T MaxTD1= 6 Len=  172
 Calling FoFJK, ICntrl=    100127 FMM=F ISym2X=0 I1Cent= 0 IOpClX= 0 NMat=1 NMatS=1 NMatT=0.
 ***** Axes restored to original set *****
 -------------------------------------------------------------------
 Center     Atomic                   Forces (Hartrees/Bohr)
 Number     Number              X              Y              Z
 -------------------------------------------------------------------
      1        8          -0.011232144    0.013856804   -0.050974450
      2       16          -0.028369723    0.020891066    0.017495442
      3        7          -0.015709310    0.020188680    0.022625459
      4        6           0.019020573   -0.017800268    0.006822408
      5        6          -0.011664778    0.007218797   -0.004372864
      6        6           0.005009807   -0.003475876   -0.003463618
      7        6           0.004806853   -0.005199908    0.002667276
      8        6           0.002644749   -0.002110516    0.001111380
      9        6          -0.012206362    0.009395235   -0.000525839
     10        6           0.013615468    0.008039416    0.002616950
     11        6           0.001999283   -0.001863123   -0.012293974
     12        6          -0.000054078    0.002531456    0.002349295
     13        6          -0.002493575   -0.004124192    0.000443513
     14        6          -0.005020424    0.000518335   -0.001414795
     15        6           0.001366937    0.002065771   -0.002273091
     16        6          -0.002299795    0.004319743    0.012244624
     17        8           0.027383733   -0.043909666    0.020594007
     18        1           0.008620743    0.009347251   -0.014286752
     19        1          -0.004368876   -0.001304313    0.007257426
     20        1          -0.001244772   -0.003334482    0.009544408
     21        1           0.007338195   -0.007247863    0.002477449
     22        1           0.006914332   -0.002256678   -0.007456610
     23        1           0.001070892    0.004602069   -0.012165338
     24        1           0.005838651   -0.000064996   -0.008158950
     25        1          -0.000485647   -0.005413309   -0.010385461
     26        1          -0.001789315   -0.001927148   -0.005658631
     27        1           0.001802308   -0.007173257    0.002140315
     28        1          -0.004640534    0.000358928    0.004028307
     29        1          -0.006837307   -0.000295130    0.009514187
     30        1           0.000984117    0.004167174    0.009497927
 -------------------------------------------------------------------
 Cartesian Forces:  Max     0.050974450 RMS     0.011661575
 FormGI is forming the generalized inverse of G from B-inverse, IUseBI=4.

 GradGradGradGradGradGradGradGradGradGradGradGradGradGradGradGradGradGrad
 Berny optimization.
 Internal  Forces:  Max     0.054534686 RMS     0.009892077
 Search for a local minimum.
 Step number   1 out of a maximum of  162
 All quantities printed in internal units (Hartrees-Bohrs-Radians)
 Mixed Optimization -- RFO/linear search
 Second derivative matrix not updated -- analytic derivatives used.
 ITU=  0
     Eigenvalues ---   -0.00732  -0.00075  -0.00013   0.00262   0.01402
     Eigenvalues ---    0.01451   0.01698   0.01758   0.01857   0.01859
     Eigenvalues ---    0.01966   0.02075   0.02250   0.02434   0.02475
     Eigenvalues ---    0.02482   0.02700   0.02729   0.02908   0.02927
     Eigenvalues ---    0.03030   0.03046   0.03187   0.05649   0.05777
     Eigenvalues ---    0.09690   0.11306   0.11352   0.11484   0.11700
     Eigenvalues ---    0.11804   0.12043   0.12256   0.12409   0.12440
     Eigenvalues ---    0.12486   0.12785   0.13050   0.14629   0.14924
     Eigenvalues ---    0.15153   0.16441   0.17496   0.18173   0.18786
     Eigenvalues ---    0.19125   0.19636   0.20283   0.20724   0.21024
     Eigenvalues ---    0.21472   0.23038   0.24360   0.32069   0.33171
     Eigenvalues ---    0.35814   0.36499   0.36595   0.36779   0.38345
     Eigenvalues ---    0.39063   0.39384   0.39457   0.39543   0.39610
     Eigenvalues ---    0.39711   0.39782   0.39844   0.40172   0.40848
     Eigenvalues ---    0.44792   0.46272   0.46421   0.47285   0.47991
     Eigenvalues ---    0.48658   0.51629   0.51781   0.53017   0.53214
     Eigenvalues ---    0.53816   0.57035   0.57071   0.90054
 RFO step:  Lambda=-3.19944075D-02 EMin=-7.32175622D-03
 Linear search not attempted -- first point.
 Iteration  1 RMS(Cart)=  0.21782822 RMS(Int)=  0.03567854
 Iteration  2 RMS(Cart)=  0.14776489 RMS(Int)=  0.00757057
 Iteration  3 RMS(Cart)=  0.01386792 RMS(Int)=  0.00072502
 Iteration  4 RMS(Cart)=  0.00011005 RMS(Int)=  0.00072341
 Iteration  5 RMS(Cart)=  0.00000003 RMS(Int)=  0.00072341
 Variable       Old X    -DE/DX   Delta X   Delta X   Delta X     New X
                                 (Linear)    (Quad)   (Total)
    R1        2.83700  -0.05247   0.00000  -0.10736  -0.10736   2.72964
    R2        3.22750  -0.00338   0.00000  -0.03456  -0.03456   3.19294
    R3        3.39398  -0.00243   0.00000  -0.03182  -0.03182   3.36216
    R4        2.83444  -0.05453   0.00000  -0.10501  -0.10501   2.72943
    R5        2.63379   0.02671   0.00000   0.02755   0.02755   2.66133
    R6        1.89048   0.01799   0.00000   0.03062   0.03062   1.92110
    R7        2.64455   0.00681   0.00000   0.00525   0.00533   2.64989
    R8        2.64441   0.00480   0.00000   0.00014   0.00021   2.64463
    R9        2.59686   0.01912   0.00000   0.02967   0.02968   2.62654
   R10        2.03057   0.00738   0.00000   0.02426   0.02426   2.05482
   R11        2.60874   0.01234   0.00000   0.02316   0.02309   2.63183
   R12        2.03641   0.01010   0.00000   0.02403   0.02403   2.06045
   R13        2.60922   0.01149   0.00000   0.02186   0.02178   2.63100
   R14        2.03617   0.01060   0.00000   0.02351   0.02351   2.05968
   R15        2.59865   0.01566   0.00000   0.02841   0.02840   2.62705
   R16        2.03634   0.01036   0.00000   0.02428   0.02428   2.06062
   R17        2.03288   0.01300   0.00000   0.02901   0.02901   2.06189
   R18        2.59688   0.01968   0.00000   0.03296   0.03299   2.62987
   R19        2.59637   0.01937   0.00000   0.03143   0.03146   2.62783
   R20        2.60770   0.01169   0.00000   0.01755   0.01755   2.62525
   R21        2.03464   0.00991   0.00000   0.02353   0.02353   2.05817
   R22        2.62171   0.01470   0.00000   0.02467   0.02465   2.64635
   R23        2.03400   0.01164   0.00000   0.02737   0.02737   2.06136
   R24        2.81159   0.01271   0.00000   0.02904   0.02904   2.84062
   R25        2.62196   0.01433   0.00000   0.02166   0.02163   2.64358
   R26        2.06053   0.00608   0.00000   0.01470   0.01470   2.07522
   R27        2.06038   0.00767   0.00000   0.01948   0.01948   2.07987
   R28        2.06049   0.00600   0.00000   0.01479   0.01479   2.07527
   R29        2.60835   0.01086   0.00000   0.02041   0.02040   2.62875
   R30        2.03395   0.01164   0.00000   0.02740   0.02740   2.06135
   R31        2.03711   0.01027   0.00000   0.02287   0.02287   2.05997
    A1        1.99681  -0.00193   0.00000  -0.06483  -0.06754   1.92927
    A2        1.84475   0.00067   0.00000   0.04140   0.04244   1.88719
    A3        2.11690  -0.00348   0.00000   0.00184  -0.00377   2.11313
    A4        1.71833   0.02119   0.00000   0.06059   0.06125   1.77958
    A5        1.85933  -0.01563   0.00000  -0.05171  -0.05451   1.80482
    A6        1.88252   0.00620   0.00000   0.03735   0.03793   1.92045
    A7        2.12195   0.03836   0.00000   0.00270   0.00255   2.12450
    A8        1.82849  -0.01129   0.00000   0.00442   0.00416   1.83264
    A9        2.04595  -0.01430   0.00000  -0.03251  -0.03257   2.01337
   A10        2.14967   0.01762   0.00000  -0.02599  -0.02654   2.12313
   A11        2.07950  -0.02067   0.00000  -0.00124  -0.00188   2.07762
   A12        2.05363   0.00300   0.00000   0.02569   0.02533   2.07895
   A13        2.11410  -0.00442   0.00000  -0.02177  -0.02164   2.09246
   A14        2.07125   0.00638   0.00000   0.03573   0.03567   2.10692
   A15        2.09716  -0.00193   0.00000  -0.01377  -0.01385   2.08332
   A16        2.09658   0.00420   0.00000   0.01358   0.01355   2.11013
   A17        2.09289  -0.00342   0.00000  -0.01429  -0.01429   2.07859
   A18        2.09368  -0.00078   0.00000   0.00078   0.00078   2.09446
   A19        2.09223  -0.00473   0.00000  -0.01114  -0.01126   2.08097
   A20        2.09537   0.00269   0.00000   0.00563   0.00568   2.10104
   A21        2.09558   0.00204   0.00000   0.00555   0.00559   2.10117
   A22        2.09802   0.00036   0.00000   0.00348   0.00343   2.10145
   A23        2.09238   0.00087   0.00000   0.00504   0.00506   2.09744
   A24        2.09278  -0.00123   0.00000  -0.00851  -0.00849   2.08430
   A25        2.11180   0.00160   0.00000  -0.00967  -0.00957   2.10223
   A26        2.06985   0.00032   0.00000   0.01419   0.01413   2.08397
   A27        2.10148  -0.00191   0.00000  -0.00444  -0.00450   2.09697
   A28        2.10700   0.00523   0.00000  -0.00687  -0.00706   2.09994
   A29        2.07835  -0.00714   0.00000  -0.00702  -0.00722   2.07113
   A30        2.09784   0.00191   0.00000   0.01391   0.01382   2.11166
   A31        2.09479  -0.00387   0.00000  -0.01491  -0.01486   2.07993
   A32        2.08113   0.00347   0.00000   0.01597   0.01594   2.09707
   A33        2.10725   0.00039   0.00000  -0.00107  -0.00110   2.10614
   A34        2.10392   0.00300   0.00000   0.00983   0.00983   2.11375
   A35        2.09648  -0.00289   0.00000  -0.01217  -0.01216   2.08432
   A36        2.08278  -0.00010   0.00000   0.00234   0.00234   2.08512
   A37        2.10520   0.00032   0.00000   0.00143   0.00144   2.10664
   A38        2.07127  -0.00069   0.00000  -0.00341  -0.00345   2.06782
   A39        2.10626   0.00038   0.00000   0.00208   0.00209   2.10835
   A40        1.93918   0.00104   0.00000   0.00473   0.00470   1.94388
   A41        1.93327   0.00016   0.00000  -0.00261  -0.00261   1.93066
   A42        1.93988   0.00108   0.00000   0.00395   0.00392   1.94380
   A43        1.88540  -0.00119   0.00000  -0.00667  -0.00667   1.87873
   A44        1.87869  -0.00009   0.00000   0.00681   0.00677   1.88546
   A45        1.88515  -0.00113   0.00000  -0.00654  -0.00654   1.87861
   A46        2.10463   0.00242   0.00000   0.00846   0.00845   2.11308
   A47        2.08291   0.00013   0.00000   0.00301   0.00301   2.08592
   A48        2.09564  -0.00255   0.00000  -0.01147  -0.01147   2.08418
   A49        2.09384  -0.00276   0.00000  -0.01377  -0.01372   2.08012
   A50        2.07909   0.00276   0.00000   0.01002   0.00999   2.08908
   A51        2.11024  -0.00000   0.00000   0.00375   0.00372   2.11397
    D1        0.36190   0.01570   0.00000   0.10726   0.10445   0.46636
    D2       -2.00885   0.01208   0.00000   0.14981   0.14713  -1.86172
    D3       -1.58553   0.00399   0.00000   0.04854   0.04873  -1.53680
    D4        2.32690   0.00038   0.00000   0.09109   0.09140   2.41830
    D5        2.75048  -0.00638   0.00000  -0.00034   0.00209   2.75258
    D6        0.37973  -0.00999   0.00000   0.04221   0.04477   0.42450
    D7       -2.53265  -0.00358   0.00000  -0.18940  -0.18938  -2.72203
    D8        0.60829  -0.00255   0.00000  -0.15625  -0.15647   0.45182
    D9       -0.46606   0.00302   0.00000  -0.22237  -0.22206  -0.68812
   D10        2.67488   0.00404   0.00000  -0.18922  -0.18915   2.48573
   D11        1.46244  -0.00378   0.00000  -0.24395  -0.24392   1.21852
   D12       -1.67981  -0.00275   0.00000  -0.21080  -0.21101  -1.89081
   D13        0.18627  -0.00000   0.00000   0.43038   0.42981   0.61608
   D14       -2.98595  -0.00182   0.00000   0.36980   0.37008  -2.61587
   D15        2.46814   0.00940   0.00000   0.40029   0.40001   2.86815
   D16       -0.70408   0.00758   0.00000   0.33971   0.34028  -0.36381
   D17        3.10512  -0.00138   0.00000  -0.03410  -0.03398   3.07115
   D18       -0.07568  -0.00068   0.00000  -0.02856  -0.02838  -0.10407
   D19       -0.00627   0.00082   0.00000   0.02607   0.02625   0.01998
   D20        3.09611   0.00151   0.00000   0.03161   0.03184   3.12796
   D21       -3.10708   0.00033   0.00000   0.03516   0.03575  -3.07133
   D22        0.02237   0.00083   0.00000   0.04313   0.04367   0.06604
   D23        0.00557  -0.00110   0.00000  -0.02298  -0.02334  -0.01778
   D24        3.13502  -0.00060   0.00000  -0.01500  -0.01543   3.11958
   D25        0.00197  -0.00006   0.00000  -0.01127  -0.01108  -0.00911
   D26        3.13362   0.00013   0.00000  -0.00434  -0.00428   3.12934
   D27       -3.09983  -0.00094   0.00000  -0.01799  -0.01771  -3.11754
   D28        0.03182  -0.00076   0.00000  -0.01106  -0.01091   0.02091
   D29        0.00322  -0.00045   0.00000  -0.00756  -0.00748  -0.00426
   D30        3.13941  -0.00006   0.00000  -0.00005  -0.00007   3.13934
   D31       -3.12843  -0.00062   0.00000  -0.01441  -0.01426   3.14050
   D32        0.00776  -0.00023   0.00000  -0.00689  -0.00684   0.00092
   D33       -0.00391   0.00015   0.00000   0.01056   0.01048   0.00657
   D34        3.13962   0.00034   0.00000   0.00795   0.00787  -3.13569
   D35       -3.14010  -0.00024   0.00000   0.00305   0.00306  -3.13704
   D36        0.00343  -0.00005   0.00000   0.00044   0.00046   0.00389
   D37       -0.00058   0.00067   0.00000   0.00520   0.00512   0.00454
   D38       -3.12981   0.00014   0.00000  -0.00305  -0.00298  -3.13279
   D39        3.13907   0.00048   0.00000   0.00783   0.00772  -3.13639
   D40        0.00984  -0.00005   0.00000  -0.00042  -0.00038   0.00946
   D41       -3.13913   0.00094   0.00000   0.02744   0.02753  -3.11160
   D42        0.00869   0.00090   0.00000   0.03096   0.03106   0.03975
   D43        0.00312  -0.00009   0.00000  -0.00607  -0.00615  -0.00302
   D44       -3.13224  -0.00014   0.00000  -0.00255  -0.00262  -3.13486
   D45        3.13964  -0.00107   0.00000  -0.02847  -0.02854   3.11110
   D46       -0.00695  -0.00114   0.00000  -0.03031  -0.03040  -0.03735
   D47       -0.00260  -0.00005   0.00000   0.00449   0.00459   0.00199
   D48        3.13399  -0.00012   0.00000   0.00265   0.00274   3.13672
   D49        0.00489  -0.00008   0.00000   0.00058   0.00058   0.00547
   D50       -3.13565  -0.00006   0.00000  -0.00001  -0.00001  -3.13567
   D51        3.14016  -0.00002   0.00000  -0.00292  -0.00290   3.13726
   D52       -0.00038  -0.00000   0.00000  -0.00351  -0.00350  -0.00388
   D53       -3.12240   0.00020   0.00000   0.00300   0.00299  -3.11941
   D54       -0.01315   0.00039   0.00000   0.00639   0.00638  -0.00677
   D55        0.01815   0.00017   0.00000   0.00357   0.00358   0.02173
   D56        3.12740   0.00037   0.00000   0.00697   0.00697   3.13437
   D57       -0.56695   0.00076   0.00000   0.05242   0.05244  -0.51451
   D58        1.52875   0.00005   0.00000   0.04541   0.04541   1.57416
   D59       -2.65859  -0.00055   0.00000   0.03803   0.03802  -2.62057
   D60        2.60764   0.00058   0.00000   0.04906   0.04908   2.65671
   D61       -1.57985  -0.00012   0.00000   0.04205   0.04204  -1.53781
   D62        0.51600  -0.00072   0.00000   0.03467   0.03465   0.55065
   D63        0.01368  -0.00053   0.00000  -0.00797  -0.00798   0.00570
   D64       -3.12798  -0.00030   0.00000  -0.00686  -0.00686  -3.13485
   D65        3.12291  -0.00033   0.00000  -0.00459  -0.00460   3.11831
   D66       -0.01875  -0.00011   0.00000  -0.00348  -0.00348  -0.02224
   D67       -0.00594   0.00035   0.00000   0.00257   0.00256  -0.00338
   D68        3.14075   0.00042   0.00000   0.00443   0.00443  -3.13801
   D69        3.13572   0.00013   0.00000   0.00146   0.00145   3.13718
   D70       -0.00078   0.00020   0.00000   0.00331   0.00331   0.00254
         Item               Value     Threshold  Converged?
 Maximum Force            0.054535     0.000450     NO 
 RMS     Force            0.009892     0.000300     NO 
 Maximum Displacement     1.095772     0.001800     NO 
 RMS     Displacement     0.348298     0.001200     NO 
 Predicted change in Energy=-2.189474D-02
 GradGradGradGradGradGradGradGradGradGradGradGradGradGradGradGradGradGrad

                          Input orientation:                          
 ---------------------------------------------------------------------
 Center     Atomic      Atomic             Coordinates (Angstroms)
 Number     Number       Type             X           Y           Z
 ---------------------------------------------------------------------
      1          8           0        0.491654    1.777721    1.306221
      2         16           0       -0.007610    1.658432   -0.043954
      3          7           0        1.135081    0.904244   -1.034058
      4          6           0        2.089810    0.009015   -0.514043
      5          6           0        1.786503   -0.854944    0.547988
      6          6           0        2.728860   -1.781923    0.977529
      7          6           0        3.973634   -1.875119    0.359897
      8          6           0        4.269320   -1.028408   -0.705022
      9          6           0        3.336135   -0.095245   -1.142005
     10          6           0       -1.333469    0.472023   -0.041097
     11          6           0       -1.667292   -0.211220   -1.206636
     12          6           0       -2.729906   -1.105859   -1.186353
     13          6           0       -3.470003   -1.323833   -0.017663
     14          6           0       -4.599999   -2.314959    0.001533
     15          6           0       -3.110940   -0.624409    1.139433
     16          6           0       -2.048640    0.273692    1.134886
     17          8           0       -0.390097    2.826067   -0.803226
     18          1           0        1.508236    1.647529   -1.618668
     19          1           0        0.831000   -0.788288    1.062706
     20          1           0        2.483624   -2.439525    1.811954
     21          1           0        4.707063   -2.603764    0.705025
     22          1           0        5.237130   -1.091936   -1.203377
     23          1           0        3.569144    0.560655   -1.982252
     24          1           0       -1.093927   -0.050140   -2.118517
     25          1           0       -2.991599   -1.647769   -2.096163
     26          1           0       -5.071984   -2.403040   -0.986106
     27          1           0       -4.235093   -3.313286    0.287102
     28          1           0       -5.374679   -2.024710    0.723778
     29          1           0       -3.671914   -0.786005    2.060889
     30          1           0       -1.766045    0.816676    2.036888
 ---------------------------------------------------------------------
                    Distance matrix (angstroms):
                    1          2          3          4          5
     1  O    0.000000
     2  S    1.444461   0.000000
     3  N    2.579509   1.689630   0.000000
     4  C    2.999297   2.709378   1.408317   0.000000
     5  C    3.030260   3.144249   2.453969   1.402259   0.000000
     6  C    4.217131   4.513063   3.715119   2.416740   1.389903
     7  C    5.134487   5.338482   4.210149   2.804020   2.420677
     8  C    5.117637   5.093942   3.696872   2.421360   2.786485
     9  C    4.194387   3.932141   2.419766   1.399476   2.415487
    10  C    2.617477   1.779178   2.695649   3.486673   3.441234
    11  C    3.864115   2.757168   3.021148   3.826748   3.927058
    12  C    4.990633   4.044414   4.359109   4.992455   4.844466
    13  C    5.202599   4.569766   5.215763   5.738849   5.307605
    14  C    6.661620   6.072886   6.657842   7.100719   6.574014
    15  C    4.333213   4.030190   5.008946   5.493906   4.938412
    16  C    2.957119   2.733674   3.903587   4.462710   4.040618
    17  O    2.515210   1.444355   2.464316   3.764219   4.484775
    18  H    3.099252   2.185779   1.016605   2.059891   3.321777
    19  H    2.599780   2.813255   2.711743   2.169431   1.087366
    20  H    4.691362   5.142363   4.593380   3.400103   2.143475
    21  H    6.109707   6.399643   5.299961   3.893939   3.407742
    22  H    6.087081   6.034574   4.565108   3.404835   3.876889
    23  H    4.665431   4.213701   2.634727   2.156009   3.403504
    24  H    4.193325   2.898812   2.656195   3.565671   4.006848
    25  H    5.953423   4.903745   4.966923   5.573934   5.518185
    26  H    7.327182   6.559809   7.033354   7.571799   7.196450
    27  H    7.021332   6.534462   6.954983   7.189153   6.509311
    28  H    7.015098   6.554417   7.351581   7.834975   7.258222
    29  H    4.947475   4.881881   5.961781   6.360801   5.664622
    30  H    2.560212   2.851412   4.225507   4.693312   4.199016
                    6          7          8          9         10
     6  C    0.000000
     7  C    1.392702   0.000000
[...]
     4  C   -0.112017   0.009906   0.333998   0.045012   0.001027   0.000249
     5  C    0.048673  -0.090386   0.057843   0.003469   0.000326   0.000048
     6  C    0.413201   0.022543  -0.098000  -0.000068   0.000171  -0.000008
     7  C    4.963719   0.439102   0.035563  -0.000158  -0.000059   0.000020
     8  C    0.439102   4.933739   0.408382  -0.001762  -0.000680  -0.000051
     9  C    0.035563   0.408382   5.115204  -0.000173  -0.001914   0.000794
    10  C   -0.000158  -0.001762  -0.000173   5.294030   0.368089   0.015631
    11  C   -0.000059  -0.000680  -0.001914   0.368089   5.106117   0.404475
    12  C    0.000020  -0.000051   0.000794   0.015631   0.404475   5.062969
    13  C    0.000042   0.000056  -0.000462  -0.090534   0.016245   0.432196
    14  C   -0.000001  -0.000016   0.000008  -0.004307   0.013138  -0.073389
    15  C   -0.000195   0.002006  -0.000562   0.049798  -0.046391  -0.014085
    16  C   -0.000704   0.001198  -0.014243   0.316289  -0.069600  -0.050386
    17  O   -0.000003  -0.000001  -0.000524  -0.096277   0.026775   0.002761
    18  H    0.000136   0.001087   0.008838  -0.000736   0.000145  -0.000166
    19  H    0.010215  -0.004442   0.011287   0.001828  -0.000172   0.000007
    20  H   -0.058354   0.010553  -0.003504  -0.000016   0.000001  -0.000000
    21  H    0.443933  -0.056087   0.012197   0.000004  -0.000000   0.000000
    22  H   -0.057143   0.438886  -0.053929   0.000005  -0.000001  -0.000003
    23  H    0.010390  -0.031466   0.439951   0.000787   0.000380   0.000310
    24  H   -0.000003   0.000006  -0.000132  -0.045634   0.432622  -0.048535
    25  H   -0.000000   0.000003  -0.000002   0.011287  -0.048888   0.443223
    26  H    0.000000  -0.000001   0.000001   0.000065   0.001942  -0.006515
    27  H   -0.000000   0.000001  -0.000002   0.000055  -0.000638   0.006959
    28  H    0.000000   0.000000   0.000000   0.000161  -0.000662  -0.004579
    29  H    0.000008   0.000072  -0.000080   0.010710  -0.003657   0.012781
    30  H    0.000105   0.000167  -0.001668  -0.046330   0.008176  -0.002425
              13         14         15         16         17         18
     1  O   -0.000112  -0.000000   0.002964   0.018596  -0.043928   0.002676
     2  S   -0.000535   0.000005   0.004868  -0.016552   0.584230  -0.016602
     3  N    0.000226  -0.000004   0.000051   0.006360  -0.048057   0.365620
     4  C   -0.000717   0.000007   0.001884  -0.002552   0.001635  -0.051469
     5  C    0.000219   0.000006  -0.002490   0.000870  -0.000743   0.004524
     6  C   -0.000039  -0.000001   0.000433  -0.001267  -0.000000  -0.000720
     7  C    0.000042  -0.000001  -0.000195  -0.000704  -0.000003   0.000136
     8  C    0.000056  -0.000016   0.002006   0.001198  -0.000001   0.001087
     9  C   -0.000462   0.000008  -0.000562  -0.014243  -0.000524   0.008838
    10  C   -0.090534  -0.004307   0.049798   0.316289  -0.096277  -0.000736
    11  C    0.016245   0.013138  -0.046391  -0.069600   0.026775   0.000145
    12  C    0.432196  -0.073389  -0.014085  -0.050386   0.002761  -0.000166
    13  C    4.972710   0.297556   0.412641   0.033011   0.000166   0.000064
    14  C    0.297556   4.958420  -0.073673   0.013814   0.000001   0.000000
    15  C    0.412641  -0.073673   5.100172   0.357381  -0.000586  -0.000043
    16  C    0.033011   0.013814   0.357381   5.142037   0.008736   0.000707
    17  O    0.000166   0.000001  -0.000586   0.008736   8.022371   0.004369
    18  H    0.000064   0.000000  -0.000043   0.000707   0.004369   0.429410
    19  H    0.000015   0.000000  -0.000158  -0.000442  -0.000133  -0.000050
    20  H   -0.000000  -0.000000   0.000008  -0.000004  -0.000000   0.000013
    21  H   -0.000001   0.000000  -0.000002  -0.000018   0.000000  -0.000002
    22  H   -0.000005   0.000000   0.000022   0.000029  -0.000000  -0.000040
    23  H   -0.000009  -0.000000  -0.000258  -0.000269  -0.000176   0.003563
    24  H    0.008424  -0.000057  -0.002425   0.008280   0.013552   0.000364
    25  H   -0.062074  -0.006786   0.012868  -0.003857  -0.000028  -0.000009
    26  H   -0.054873   0.427636   0.007936  -0.000711   0.000000   0.000000
    27  H   -0.053307   0.427629  -0.006656   0.001938   0.000000  -0.000000
    28  H   -0.017369   0.390161  -0.004882  -0.000732  -0.000000  -0.000000
    29  H   -0.063176  -0.006653   0.444492  -0.048532   0.000003   0.000000
    30  H    0.008917  -0.000031  -0.049470   0.436243   0.000385  -0.000098
              19         20         21         22         23         24
     1  O    0.008971  -0.000038   0.000001  -0.000000  -0.000017   0.000543
     2  S   -0.002920  -0.000003   0.000003  -0.000007  -0.000121  -0.004412
     3  N   -0.001404  -0.000119   0.000008  -0.000360   0.002897   0.000275
     4  C   -0.044800   0.013945  -0.003964   0.015211  -0.080501  -0.000183
     5  C    0.434637  -0.057682   0.011297  -0.003858   0.012038  -0.000018
     6  C   -0.048922   0.446325  -0.056274   0.010719  -0.003893   0.000007
     7  C    0.010215  -0.058354   0.443933  -0.057143   0.010390  -0.000003
     8  C   -0.004442   0.010553  -0.056087   0.438886  -0.031466   0.000006
     9  C    0.011287  -0.003504   0.012197  -0.053929   0.439951  -0.000132
    10  C    0.001828  -0.000016   0.000004   0.000005   0.000787  -0.045634
    11  C   -0.000172   0.000001  -0.000000  -0.000001   0.000380   0.432622
    12  C    0.000007  -0.000000   0.000000  -0.000003   0.000310  -0.048535
    13  C    0.000015  -0.000000  -0.000001  -0.000005  -0.000009   0.008424
    14  C    0.000000  -0.000000   0.000000   0.000000  -0.000000  -0.000057
    15  C   -0.000158   0.000008  -0.000002   0.000022  -0.000258  -0.002425
    16  C   -0.000442  -0.000004  -0.000018   0.000029  -0.000269   0.008280
    17  O   -0.000133  -0.000000   0.000000  -0.000000  -0.000176   0.013552
    18  H   -0.000050   0.000013  -0.000002  -0.000040   0.003563   0.000364
    19  H    0.476182  -0.006494  -0.000017   0.000015   0.000012  -0.000005
    20  H   -0.006494   0.534759  -0.006847  -0.000125   0.000028   0.000000
    21  H   -0.000017  -0.006847   0.538791  -0.006650  -0.000098  -0.000000
    22  H    0.000015  -0.000125  -0.006650   0.541628  -0.007507   0.000000
    23  H    0.000012   0.000028  -0.000098  -0.007507   0.538599  -0.000067
    24  H   -0.000005   0.000000  -0.000000   0.000000  -0.000067   0.477707
    25  H   -0.000000   0.000000   0.000000   0.000000  -0.000003  -0.005564
    26  H   -0.000000  -0.000000   0.000000  -0.000000   0.000000  -0.000019
    27  H   -0.000000   0.000000  -0.000000   0.000000  -0.000000   0.000003
    28  H    0.000000   0.000000  -0.000000  -0.000000   0.000000   0.000007
    29  H   -0.000007   0.000001  -0.000000  -0.000000  -0.000002   0.000031
    30  H   -0.000091  -0.000017  -0.000004   0.000004  -0.000053  -0.000066
              25         26         27         28         29         30
     1  O    0.000004   0.000000   0.000000  -0.000000  -0.000011   0.008188
     2  S   -0.000114   0.000001   0.000001  -0.000001  -0.000100  -0.004119
     3  N    0.000017  -0.000000  -0.000000   0.000000   0.000031   0.000355
     4  C   -0.000007  -0.000001   0.000003  -0.000000   0.000037   0.000128
     5  C   -0.000002   0.000000   0.000000  -0.000000  -0.000101   0.000016
     6  C    0.000000  -0.000000   0.000000   0.000000   0.000056   0.000350
     7  C   -0.000000   0.000000  -0.000000   0.000000   0.000008   0.000105
     8  C    0.000003  -0.000001   0.000001   0.000000   0.000072   0.000167
     9  C   -0.000002   0.000001  -0.000002   0.000000  -0.000080  -0.001668
    10  C    0.011287   0.000065   0.000055   0.000161   0.010710  -0.046330
    11  C   -0.048888   0.001942  -0.000638  -0.000662  -0.003657   0.008176
    12  C    0.443223  -0.006515   0.006959  -0.004579   0.012781  -0.002425
    13  C   -0.062074  -0.054873  -0.053307  -0.017369  -0.063176   0.008917
    14  C   -0.006786   0.427636   0.427629   0.390161  -0.006653  -0.000031
    15  C    0.012868   0.007936  -0.006656  -0.004882   0.444492  -0.049470
    16  C   -0.003857  -0.000711   0.001938  -0.000732  -0.048532   0.436243
    17  O   -0.000028   0.000000   0.000000  -0.000000   0.000003   0.000385
    18  H   -0.000009   0.000000  -0.000000  -0.000000   0.000000  -0.000098
    19  H   -0.000000  -0.000000  -0.000000   0.000000  -0.000007  -0.000091
    20  H    0.000000  -0.000000   0.000000   0.000000   0.000001  -0.000017
    21  H    0.000000   0.000000  -0.000000  -0.000000  -0.000000  -0.000004
    22  H    0.000000  -0.000000   0.000000  -0.000000  -0.000000   0.000004
    23  H   -0.000003   0.000000  -0.000000   0.000000  -0.000002  -0.000053
    24  H   -0.005564  -0.000019   0.000003   0.000007   0.000031  -0.000066
    25  H    0.533412   0.001095   0.000057   0.000224  -0.000049   0.000026
    26  H    0.001095   0.542017  -0.023657  -0.023408   0.000074   0.000002
    27  H    0.000057  -0.023657   0.540725  -0.024236   0.000880  -0.000022
    28  H    0.000224  -0.023408  -0.024236   0.544767   0.000256   0.000008
    29  H   -0.000049   0.000074   0.000880   0.000256   0.533624  -0.005595
    30  H    0.000026   0.000002  -0.000022   0.000008  -0.005595   0.481725
 Mulliken charges:
               1
     1  O   -0.461034
     2  S    0.856456
     3  N   -0.316466
     4  C    0.199929
     5  C   -0.270576
     6  C   -0.072234
     7  C   -0.137598
     8  C   -0.096902
     9  C   -0.217405
    10  C    0.000979
    11  C   -0.174769
    12  C   -0.186572
    13  C    0.160725
    14  C   -0.363463
    15  C   -0.195649
    16  C   -0.135619
    17  O   -0.474526
    18  H    0.248419
    19  H    0.166887
    20  H    0.127569
    21  H    0.123730
    22  H    0.123108
    23  H    0.115487
    24  H    0.165294
    25  H    0.125167
    26  H    0.128413
    27  H    0.130268
    28  H    0.140286
    29  H    0.124905
    30  H    0.165192
 Sum of Mulliken charges =  -0.00000
 Mulliken charges with hydrogens summed into heavy atoms:
               1
     1  O   -0.461034
     2  S    0.856456
     3  N   -0.068048
     4  C    0.199929
     5  C   -0.103689
     6  C    0.055335
     7  C   -0.013868
     8  C    0.026206
     9  C   -0.101919
    10  C    0.000979
    11  C   -0.009475
    12  C   -0.061404
    13  C    0.160725
    14  C    0.035504
    15  C   -0.070744
    16  C    0.029573
    17  O   -0.474526
 Electronic spatial extent (au):  <R**2>=           4366.5835
 Charge=             -0.0000 electrons
 Dipole moment (field-independent basis, Debye):
    X=             -1.8224    Y=             -5.3822    Z=             -1.7648  Tot=              5.9500
 Quadrupole moment (field-independent basis, Debye-Ang):
   XX=            -96.8170   YY=           -114.0126   ZZ=           -101.0968
   XY=              0.2829   XZ=              2.6676   YZ=             -4.5446
 Traceless Quadrupole moment (field-independent basis, Debye-Ang):
   XX=              7.1585   YY=            -10.0371   ZZ=              2.8787
   XY=              0.2829   XZ=              2.6676   YZ=             -4.5446
 Octapole moment (field-independent basis, Debye-Ang**2):
  XXX=            -41.9523  YYY=            -42.3688  ZZZ=            -11.7720  XYY=              3.5035
  XXY=            -16.3271  XXZ=              7.5875  XZZ=              2.8426  YZZ=             -0.4003
  YYZ=             -0.7595  XYZ=             -0.8853
 Hexadecapole moment (field-independent basis, Debye-Ang**3):
 XXXX=          -3343.3900 YYYY=          -1978.1310 ZZZZ=           -577.7224 XXXY=             53.3212
 XXXZ=            112.7848 YYYX=            -18.4114 YYYZ=             17.6575 ZZZX=             13.6293
 ZZZY=            -24.0112 XXYY=           -821.9416 XXZZ=           -639.5096 YYZZ=           -410.8659
 XXYZ=            -31.5971 YYXZ=            -12.7854 ZZXY=             -2.1680
 N-N= 1.331932040271D+03 E-N=-5.259236016012D+03  KE= 1.102023885093D+03
 Breneman (CHELPG) radii used.
 Read replacement radii for each type of atom:
 Atom Element Radius
    1     8    1.70
    2    16    2.00
    3     7    1.70
    4     6    1.50
    5     6    1.50
    6     6    1.50
    7     6    1.50
    8     6    1.50
    9     6    1.50
   10     6    1.50
   11     6    1.50
   12     6    1.50
   13     6    1.50
   14     6    1.50
   15     6    1.50
   16     6    1.50
   17     8    1.70
   18     1    1.45
   19     1    1.45
   20     1    1.45
   21     1    1.45
   22     1    1.45
   23     1    1.45
   24     1    1.45
   25     1    1.45
   26     1    1.45
   27     1    1.45
   28     1    1.45
   29     1    1.45
   30     1    1.45
 Generate Potential Derived Charges using the Breneman model, NDens= 1.
 Grid spacing= 0.300 Box extension= 2.800
 NStep X,Y,Z=   49     42     34   Total possible points=       69972
 Number of Points to Fit=   18711

 **********************************************************************

            Electrostatic Properties Using The SCF Density.

 **********************************************************************

       Atomic Center    1 is at   0.760011  2.052992  1.477385
       Atomic Center    2 is at   0.211302  1.955903  0.139110
       Atomic Center    3 is at   1.389777  1.267721 -0.841709
       Atomic Center    4 is at   1.950917  0.004407 -0.532396
       Atomic Center    5 is at   2.685341 -0.167017  0.646365
       Atomic Center    6 is at   3.219230 -1.416688  0.949161
       Atomic Center    7 is at   3.052632 -2.492023  0.076112
       Atomic Center    8 is at   2.334324 -2.314462 -1.105058
       Atomic Center    9 is at   1.772233 -1.075507 -1.403395
       Atomic Center   10 is at  -1.098911  0.752234  0.173432
       Atomic Center   11 is at  -2.134217  0.847542 -0.754339
       Atomic Center   12 is at  -3.122052 -0.132170 -0.768169
       Atomic Center   13 is at  -3.088733 -1.207192  0.129543
       Atomic Center   14 is at  -4.177682 -2.246441  0.128527
       Atomic Center   15 is at  -2.036277 -1.274848  1.051450
       Atomic Center   16 is at  -1.043010 -0.301463  1.084665
       Atomic Center   17 is at  -0.244735  3.115714 -0.602854
       Atomic Center   18 is at   1.147204  1.412246 -1.818009
       Atomic Center   19 is at   2.820995  0.683310  1.314640
       Atomic Center   20 is at   3.787298 -1.545855  1.872961
       Atomic Center   21 is at   3.485218 -3.465696  0.314559
       Atomic Center   22 is at   2.196909 -3.149063 -1.795827
       Atomic Center   23 is at   1.185366 -0.942234 -2.315767
       Atomic Center   24 is at  -2.165181  1.691888 -1.445556
       Atomic Center   25 is at  -3.939287 -0.058434 -1.490083
       Atomic Center   26 is at  -4.628400 -2.357175 -0.867657
       Atomic Center   27 is at  -3.797489 -3.227250  0.447165
       Atomic Center   28 is at  -4.982166 -1.961887  0.825856
       Atomic Center   29 is at  -1.993853 -2.105168  1.760630
       Atomic Center   30 is at  -0.230869 -0.351041  1.811650
   18711 points will be used for fitting atomic charges
 Fitting point charges to electrostatic potential
 Charges from ESP fit, RMS=   0.00358 RRMS=   0.21888:
 ESP charges:
               1
     1  O   -0.469829
     2  S    0.935273
     3  N   -0.647287
     4  C    0.411960
     5  C   -0.220759
     6  C   -0.054252
     7  C   -0.148671
     8  C   -0.053182
     9  C   -0.270654
    10  C   -0.066059
    11  C   -0.067025
    12  C   -0.212930
    13  C    0.240298
    14  C   -0.272088
    15  C   -0.231662
    16  C   -0.035315
    17  O   -0.485503
    18  H    0.354828
    19  H    0.160655
    20  H    0.096994
    21  H    0.105286
    22  H    0.104226
    23  H    0.111173
    24  H    0.112544
    25  H    0.126909
    26  H    0.077482
    27  H    0.078764
    28  H    0.090234
    29  H    0.129214
    30  H    0.099377
 Sum of ESP charges =   0.00000
 ESP charges with hydrogens summed into heavy atoms:
               1
     1  O   -0.469829
     2  S    0.935273
     3  N   -0.292459
     4  C    0.411960
     5  C   -0.060104
     6  C    0.042742
     7  C   -0.043386
     8  C    0.051044
     9  C   -0.159481
    10  C   -0.066059
    11  C    0.045519
    12  C   -0.086021
    13  C    0.240298
    14  C   -0.025608
    15  C   -0.102448
    16  C    0.064062
    17  O   -0.485503
 Charge=   0.00000 Dipole=    -1.7019    -5.2557    -1.7351 Tot=     5.7905
 -----------------------------------------------------------------

              Electrostatic Properties (Atomic Units)

 -----------------------------------------------------------------
    Center     Electric         -------- Electric Field --------
               Potential          X             Y             Z
 -----------------------------------------------------------------
    1 Atom    -22.373376
    2 Atom    -59.026799
    3 Atom    -18.345602
    4 Atom    -14.712678
    5 Atom    -14.763165
    6 Atom    -14.758981
    7 Atom    -14.761227
    8 Atom    -14.756712
    9 Atom    -14.755803
   10 Atom    -14.732022
   11 Atom    -14.744872
   12 Atom    -14.752123
   13 Atom    -14.736845
   14 Atom    -14.755043
   15 Atom    -14.752981
   16 Atom    -14.745692
   17 Atom    -22.373239
   18 Atom     -1.001975
   19 Atom     -1.101926
   20 Atom     -1.099706
   21 Atom     -1.099251
   22 Atom     -1.096083
   23 Atom     -1.087787
   24 Atom     -1.086166
   25 Atom     -1.090245
   26 Atom     -1.100360
   27 Atom     -1.100258
   28 Atom     -1.097640
   29 Atom     -1.091441
   30 Atom     -1.088677
 -----------------------------------------------------------------
 Unable to Open any file for archive entry.
 1\1\GINC-NOTCH212\SP\RwB97XD\def2TZVP\C13H13N1O2S1\U1366379\19-Feb-202
 6\0\\#N Guess=Read Geom=Check Integral(Ultrafine) Density Pop=(ChelpG,
 ReadRadii) NMR wB97XD def2TZVP\\prod_5l_41\\0,1\O,0,0.1931502644,2.225
 5562911,1.4410564775\S,0,-0.0621350574,2.0138974702,0.0298449389\N,0,1
 .3545893054,1.4268235026,-0.6576430656\C,0,1.9705116545,0.2490191258,-
 0.167815097\C,0,2.4667189789,0.2090761875,1.1400176829\C,0,3.055987714
 1,-0.9585542228,1.6173035198\C,0,3.1812150273,-2.0793591817,0.79606779
 04\C,0,2.7005499166,-2.0315782171,-0.5113478903\C,0,2.0840308518,-0.87
 76318852,-0.9891261949\C,0,-1.2198905882,0.6707247369,-0.1189654937\C,
 0,-2.0517036977,0.6106043615,-1.2352875938\C,0,-2.9090916445,-0.475318
 3644,-1.3819265286\C,0,-2.9451888004,-1.5033767475,-0.4308942503\C,0,-
 3.8974415264,-2.6594466445,-0.5811101905\C,0,-2.0983716374,-1.41407745
 61,0.6813467191\C,0,-1.2389310381,-0.3330538191,0.8484088657\O,0,-0.47
 79210119,3.0839578941,-0.8565712883\H,0,1.2995546258,1.5042075541,-1.6
 695092906\H,0,2.3759506109,1.0949380241,1.7685547156\H,0,3.4370201155,
 -0.9855739123,2.6404734472\H,0,3.656010049,-2.9871146583,1.1736608278\
 H,0,2.7924875265,-2.9029142768,-1.1632095828\H,0,1.6819626102,-0.84823
 4037,-2.0050372686\H,0,-2.0308094609,1.418062159,-1.9696153428\H,0,-3.
 5676377685,-0.5238502317,-2.2528061652\H,0,-4.1246392875,-2.8600107779
 ,-1.6374942557\H,0,-3.4890586214,-3.5771182366,-0.1348318532\H,0,-4.85
 08630497,-2.4414655911,-0.0732672498\H,0,-2.1131747418,-2.2055969087,1
 .4346378189\H,0,-0.5888813191,-0.2609221381,1.721775798\\Version=ES64L
 -G16RevC.01\State=1-A\HF=-1106.630477\RMSD=3.939e-09\Dipole=-0.3382765
 ,-2.2111843,-0.6900459\Quadrupole=4.0939979,-7.4788539,3.384856,2.2659
 991,2.6434236,-2.3435693\PG=C01 [X(C13H13N1O2S1)]\\@
 The archive entry for this job was punched.


 AND THIS OUR LIFE, EXEMPT FROM PUBLIC HAUNT,
 FINDS TONGUES IN TREES, BOOKS IN THE RUNNING BROOKS,
 SERMONS IN STONES, AND GOOD IN EVERYTHING.
 I WOULD NOT CHANGE IT. -- W. SHAKESPEARE
 AS YOU LIKE IT, ACT II, SCENE 1.
 Job cpu time:       0 days  1 hours 48 minutes 43.1 seconds.
 Elapsed time:       0 days  0 hours  7 minutes 11.3 seconds.
 File lengths (MBytes):  RWF=    226 Int=      0 D2E=      0 Chk=     36 Scr=      2
 Normal termination of Gaussian 16 at Thu Feb 19 20:27:42 2026.
