 Entering Gaussian System, Link 0=g16
 Input=prod_5h_2.com
 Output=prod_5h_2.log
 Initial command:
 /uufs/chpc.utah.edu/sys/installdir/gaussian16/C01/AVX/g16/l1.exe "/scratch/general/vast/u1366379/GAUSSSCRDIR/11046995-notchpeak.peaks/Gau-2892143.inp" -scrdir="/scratch/general/vast/u1366379/GAUSSSCRDIR/11046995-notchpeak.peaks/"
 Entering Link 1 = /uufs/chpc.utah.edu/sys/installdir/gaussian16/C01/AVX/g16/l1.exe PID=   2892145.
  
 Copyright (c) 1988-2019, Gaussian, Inc.  All Rights Reserved.
  
 This is part of the Gaussian(R) 16 program.  It is based on
 the Gaussian(R) 09 system (copyright 2009, Gaussian, Inc.),
 the Gaussian(R) 03 system (copyright 2003, Gaussian, Inc.),
 the Gaussian(R) 98 system (copyright 1998, Gaussian, Inc.),
 the Gaussian(R) 94 system (copyright 1995, Gaussian, Inc.),
 the Gaussian 92(TM) system (copyright 1992, Gaussian, Inc.),
 the Gaussian 90(TM) system (copyright 1990, Gaussian, Inc.),
 the Gaussian 88(TM) system (copyright 1988, Gaussian, Inc.),
 the Gaussian 86(TM) system (copyright 1986, Carnegie Mellon
 University), and the Gaussian 82(TM) system (copyright 1983,
 Carnegie Mellon University). Gaussian is a federally registered
 trademark of Gaussian, Inc.
  
 This software contains proprietary and confidential information,
 including trade secrets, belonging to Gaussian, Inc.
  
 This software is provided under written license and may be
 used, copied, transmitted, or stored only in accord with that
 written license.
  
 The following legend is applicable only to US Government
 contracts under FAR:
  
                    RESTRICTED RIGHTS LEGEND
  
 Use, reproduction and disclosure by the US Government is
 subject to restrictions as set forth in subparagraphs (a)
 and (c) of the Commercial Computer Software - Restricted
 Rights clause in FAR 52.227-19.
  
 Gaussian, Inc.
 340 Quinnipiac St., Bldg. 40, Wallingford CT 06492
  
  
 ---------------------------------------------------------------
 Warning -- This program may not be used in any manner that
 competes with the business of Gaussian, Inc. or will provide
 assistance to any competitor of Gaussian, Inc.  The licensee
 of this program is prohibited from giving any competitor of
 Gaussian, Inc. access to this program.  By using this program,
 the user acknowledges that Gaussian, Inc. is engaged in the
 business of creating and licensing software in the field of
 computational chemistry and represents and warrants to the
 licensee that it is not a competitor of Gaussian, Inc. and that
 it will not use this program in any manner prohibited above.
 ---------------------------------------------------------------
  

 Cite this work as:
 Gaussian 16, Revision C.01,
 M. J. Frisch, G. W. Trucks, H. B. Schlegel, G. E. Scuseria, 
 M. A. Robb, J. R. Cheeseman, G. Scalmani, V. Barone, 
 G. A. Petersson, H. Nakatsuji, X. Li, M. Caricato, A. V. Marenich, 
 J. Bloino, B. G. Janesko, R. Gomperts, B. Mennucci, H. P. Hratchian, 
 J. V. Ortiz, A. F. Izmaylov, J. L. Sonnenberg, D. Williams-Young, 
 F. Ding, F. Lipparini, F. Egidi, J. Goings, B. Peng, A. Petrone, 
 T. Henderson, D. Ranasinghe, V. G. Zakrzewski, J. Gao, N. Rega, 
 G. Zheng, W. Liang, M. Hada, M. Ehara, K. Toyota, R. Fukuda, 
 J. Hasegawa, M. Ishida, T. Nakajima, Y. Honda, O. Kitao, H. Nakai, 
 T. Vreven, K. Throssell, J. A. Montgomery, Jr., J. E. Peralta, 
 F. Ogliaro, M. J. Bearpark, J. J. Heyd, E. N. Brothers, K. N. Kudin, 
 V. N. Staroverov, T. A. Keith, R. Kobayashi, J. Normand, 
 K. Raghavachari, A. P. Rendell, J. C. Burant, S. S. Iyengar, 
 J. Tomasi, M. Cossi, J. M. Millam, M. Klene, C. Adamo, R. Cammi, 
 J. W. Ochterski, R. L. Martin, K. Morokuma, O. Farkas, 
 J. B. Foresman, and D. J. Fox, Gaussian, Inc., Wallingford CT, 2019.
 
 ******************************************
 Gaussian 16:  ES64L-G16RevC.01  3-Jul-2019
                19-Feb-2026 
 ******************************************
 %NProcShared=16
 Will use up to   16 processors via shared memory.
 %Mem=16GB
 %chk=prod_5h_2.chk
 ---------------------------------------------------------------
 #N OPT=(CalcFC) FREQ=NORAMAN Integral(Ultrafine) wB97XD def2SVP
 ---------------------------------------------------------------
 1/10=4,18=20,19=15,26=4,38=1/1,3;
 2/9=110,12=2,17=6,18=5,40=1/2;
 3/5=43,7=101,11=2,25=1,30=1,71=2,74=-58,75=-5,140=1/1,2,3;
 4//1;
 5/5=2,38=5/2;
 8/6=4,10=90,11=11/1;
 11/6=1,8=1,9=11,15=111,16=1/1,2,10;
 10/6=1,13=1/2;
 6/7=2,8=2,9=2,10=2,28=1/1;
 7/10=1,25=1/1,2,3,16;
 1/10=4,18=20,19=15,26=4/3(2);
 2/9=110/2;
 99//99;
 2/9=110/2;
 3/5=43,7=101,11=2,25=1,30=1,71=1,74=-58,75=-5/1,2,3;
 4/5=5,16=3,69=1/1;
 5/5=2,38=5/2;
 7//1,2,3,16;
 1/18=20,19=15,26=4/3(-5);
 2/9=110/2;
 6/7=2,8=2,9=2,10=2,19=2,28=1/1;
 99/9=1/99;
 ---------
 prod_5h_2
 ---------
 Symbolic Z-matrix:
 Charge =  0 Multiplicity = 1
 Cl                    4.51616  -0.61093  -0.74692 
 C                     2.90518  -0.12689  -0.32675 
 C                     2.1662    0.65218  -1.20129 
 C                     0.8851    1.03254  -0.87122 
 C                     2.35665  -0.52276   0.88164 
 C                     1.07584  -0.14367   1.21415 
 C                     0.32193   0.63938   0.34165 
 N                    -1.02881   1.01913   0.68008 
 C                    -1.22262   2.25766   1.42842 
 C                    -2.14004   0.2172    0.31083 
 C                    -3.44594   0.56628   0.65529 
 C                    -4.50764  -0.22895   0.28552 
 C                    -4.29107  -1.38767  -0.4345 
 C                    -3.00489  -1.74942  -0.7839 
 C                    -1.94184  -0.95676  -0.41544 
 H                     2.60831   0.9508   -2.13643 
 H                     0.29969   1.63386  -1.54438 
 H                     2.94511  -1.12867   1.54926 
 H                     0.63708  -0.44931   2.14771 
 H                    -0.26349   2.74202   1.60234 
 H                    -1.68184   2.04713   2.39231 
 H                    -1.85646   2.94164   0.86733 
 H                    -3.62351   1.46597   1.21677 
 H                    -5.51125   0.05314   0.55887 
 H                    -5.12376  -2.00814  -0.7228 
 H                    -2.83358  -2.65318  -1.34545 
 H                    -0.93947  -1.2371   -0.6863 
 

 GradGradGradGradGradGradGradGradGradGradGradGradGradGradGradGradGradGrad
 Berny optimization.
 Initialization pass.
                           ----------------------------
                           !    Initial Parameters    !
                           ! (Angstroms and Degrees)  !
 --------------------------                            --------------------------
 ! Name  Definition              Value          Derivative Info.                !
 --------------------------------------------------------------------------------
 ! R1    R(1,2)                  1.7338         calculate D2E/DX2 analytically  !
 ! R2    R(2,3)                  1.3849         calculate D2E/DX2 analytically  !
 ! R3    R(2,5)                  1.3848         calculate D2E/DX2 analytically  !
 ! R4    R(3,4)                  1.3765         calculate D2E/DX2 analytically  !
 ! R5    R(3,16)                 1.0766         calculate D2E/DX2 analytically  !
 ! R6    R(4,7)                  1.3938         calculate D2E/DX2 analytically  !
 ! R7    R(4,17)                 1.0758         calculate D2E/DX2 analytically  !
 ! R8    R(5,6)                  1.3765         calculate D2E/DX2 analytically  !
 ! R9    R(5,18)                 1.0766         calculate D2E/DX2 analytically  !
 ! R10   R(6,7)                  1.3938         calculate D2E/DX2 analytically  !
 ! R11   R(6,19)                 1.0759         calculate D2E/DX2 analytically  !
 ! R12   R(7,8)                  1.4433         calculate D2E/DX2 analytically  !
 ! R13   R(8,9)                  1.46           calculate D2E/DX2 analytically  !
 ! R14   R(8,10)                 1.4192         calculate D2E/DX2 analytically  !
 ! R15   R(9,20)                 1.0885         calculate D2E/DX2 analytically  !
 ! R16   R(9,21)                 1.0883         calculate D2E/DX2 analytically  !
 ! R17   R(9,22)                 1.0883         calculate D2E/DX2 analytically  !
 ! R18   R(10,11)                1.3949         calculate D2E/DX2 analytically  !
 ! R19   R(10,15)                1.3946         calculate D2E/DX2 analytically  !
 ! R20   R(11,12)                1.3771         calculate D2E/DX2 analytically  !
 ! R21   R(11,23)                1.0753         calculate D2E/DX2 analytically  !
 ! R22   R(12,13)                1.3813         calculate D2E/DX2 analytically  !
 ! R23   R(12,24)                1.0777         calculate D2E/DX2 analytically  !
 ! R24   R(13,14)                1.381          calculate D2E/DX2 analytically  !
 ! R25   R(13,25)                1.0777         calculate D2E/DX2 analytically  !
 ! R26   R(14,15)                1.3763         calculate D2E/DX2 analytically  !
 ! R27   R(14,26)                1.0777         calculate D2E/DX2 analytically  !
 ! R28   R(15,27)                1.0755         calculate D2E/DX2 analytically  !
 ! A1    A(1,2,3)              119.9884         calculate D2E/DX2 analytically  !
 ! A2    A(1,2,5)              119.9794         calculate D2E/DX2 analytically  !
 ! A3    A(3,2,5)              120.032          calculate D2E/DX2 analytically  !
 ! A4    A(2,3,4)              120.0423         calculate D2E/DX2 analytically  !
 ! A5    A(2,3,16)             119.0399         calculate D2E/DX2 analytically  !
 ! A6    A(4,3,16)             120.9177         calculate D2E/DX2 analytically  !
 ! A7    A(3,4,7)              120.447          calculate D2E/DX2 analytically  !
 ! A8    A(3,4,17)             120.7189         calculate D2E/DX2 analytically  !
 ! A9    A(7,4,17)             118.8336         calculate D2E/DX2 analytically  !
 ! A10   A(2,5,6)              120.0407         calculate D2E/DX2 analytically  !
 ! A11   A(2,5,18)             119.0432         calculate D2E/DX2 analytically  !
 ! A12   A(6,5,18)             120.9159         calculate D2E/DX2 analytically  !
 ! A13   A(5,6,7)              120.4505         calculate D2E/DX2 analytically  !
 ! A14   A(5,6,19)             120.7204         calculate D2E/DX2 analytically  !
 ! A15   A(7,6,19)             118.8284         calculate D2E/DX2 analytically  !
 ! A16   A(4,7,6)              118.9874         calculate D2E/DX2 analytically  !
 ! A17   A(4,7,8)              120.5266         calculate D2E/DX2 analytically  !
 ! A18   A(6,7,8)              120.4787         calculate D2E/DX2 analytically  !
 ! A19   A(7,8,9)              117.8795         calculate D2E/DX2 analytically  !
 ! A20   A(7,8,10)             121.5382         calculate D2E/DX2 analytically  !
 ! A21   A(9,8,10)             120.5808         calculate D2E/DX2 analytically  !
 ! A22   A(8,9,20)             110.0244         calculate D2E/DX2 analytically  !
 ! A23   A(8,9,21)             110.2367         calculate D2E/DX2 analytically  !
 ! A24   A(8,9,22)             110.2555         calculate D2E/DX2 analytically  !
 ! A25   A(20,9,21)            108.4452         calculate D2E/DX2 analytically  !
 ! A26   A(20,9,22)            108.4159         calculate D2E/DX2 analytically  !
 ! A27   A(21,9,22)            109.4185         calculate D2E/DX2 analytically  !
 ! A28   A(8,10,11)            121.8262         calculate D2E/DX2 analytically  !
 ! A29   A(8,10,15)            119.9904         calculate D2E/DX2 analytically  !
 ! A30   A(11,10,15)           118.1834         calculate D2E/DX2 analytically  !
 ! A31   A(10,11,12)           120.727          calculate D2E/DX2 analytically  !
 ! A32   A(10,11,23)           119.5326         calculate D2E/DX2 analytically  !
 ! A33   A(12,11,23)           119.7404         calculate D2E/DX2 analytically  !
 ! A34   A(11,12,13)           120.233          calculate D2E/DX2 analytically  !
 ! A35   A(11,12,24)           119.9138         calculate D2E/DX2 analytically  !
 ! A36   A(13,12,24)           119.8532         calculate D2E/DX2 analytically  !
 ! A37   A(12,13,14)           119.844          calculate D2E/DX2 analytically  !
 ! A38   A(12,13,25)           120.0835         calculate D2E/DX2 analytically  !
 ! A39   A(14,13,25)           120.0725         calculate D2E/DX2 analytically  !
 ! A40   A(13,14,15)           120.0507         calculate D2E/DX2 analytically  !
 ! A41   A(13,14,26)           119.9692         calculate D2E/DX2 analytically  !
 ! A42   A(15,14,26)           119.9801         calculate D2E/DX2 analytically  !
 ! A43   A(10,15,14)           120.9619         calculate D2E/DX2 analytically  !
 ! A44   A(10,15,27)           118.8834         calculate D2E/DX2 analytically  !
 ! A45   A(14,15,27)           120.1547         calculate D2E/DX2 analytically  !
 ! D1    D(1,2,3,4)            179.7343         calculate D2E/DX2 analytically  !
 ! D2    D(1,2,3,16)            -0.1798         calculate D2E/DX2 analytically  !
 ! D3    D(5,2,3,4)             -0.0812         calculate D2E/DX2 analytically  !
 ! D4    D(5,2,3,16)          -179.9953         calculate D2E/DX2 analytically  !
 ! D5    D(1,2,5,6)           -179.7397         calculate D2E/DX2 analytically  !
 ! D6    D(1,2,5,18)             0.1531         calculate D2E/DX2 analytically  !
 ! D7    D(3,2,5,6)              0.0758         calculate D2E/DX2 analytically  !
 ! D8    D(3,2,5,18)           179.9686         calculate D2E/DX2 analytically  !
 ! D9    D(2,3,4,7)              0.0312         calculate D2E/DX2 analytically  !
 ! D10   D(2,3,4,17)          -179.7169         calculate D2E/DX2 analytically  !
 ! D11   D(16,3,4,7)           179.9436         calculate D2E/DX2 analytically  !
 ! D12   D(16,3,4,17)            0.1955         calculate D2E/DX2 analytically  !
 ! D13   D(3,4,7,6)              0.0238         calculate D2E/DX2 analytically  !
 ! D14   D(3,4,7,8)           -178.997          calculate D2E/DX2 analytically  !
 ! D15   D(17,4,7,6)           179.7766         calculate D2E/DX2 analytically  !
 ! D16   D(17,4,7,8)             0.7557         calculate D2E/DX2 analytically  !
 ! D17   D(2,5,6,7)             -0.0204         calculate D2E/DX2 analytically  !
 ! D18   D(2,5,6,19)           179.6783         calculate D2E/DX2 analytically  !
 ! D19   D(18,5,6,7)          -179.9112         calculate D2E/DX2 analytically  !
 ! D20   D(18,5,6,19)           -0.2125         calculate D2E/DX2 analytically  !
 ! D21   D(5,6,7,4)             -0.0292         calculate D2E/DX2 analytically  !
 ! D22   D(5,6,7,8)            178.9921         calculate D2E/DX2 analytically  !
 ! D23   D(19,6,7,4)          -179.7335         calculate D2E/DX2 analytically  !
 ! D24   D(19,6,7,8)            -0.7122         calculate D2E/DX2 analytically  !
 ! D25   D(4,7,8,9)            -91.7198         calculate D2E/DX2 analytically  !
 ! D26   D(4,7,8,10)            88.7242         calculate D2E/DX2 analytically  !
 ! D27   D(6,7,8,9)             89.274          calculate D2E/DX2 analytically  !
 ! D28   D(6,7,8,10)           -90.2819         calculate D2E/DX2 analytically  !
 ! D29   D(7,8,9,20)             1.5105         calculate D2E/DX2 analytically  !
 ! D30   D(7,8,9,21)          -118.045          calculate D2E/DX2 analytically  !
 ! D31   D(7,8,9,22)           121.0416         calculate D2E/DX2 analytically  !
 ! D32   D(10,8,9,20)         -178.9291         calculate D2E/DX2 analytically  !
 ! D33   D(10,8,9,21)           61.5154         calculate D2E/DX2 analytically  !
 ! D34   D(10,8,9,22)          -59.398          calculate D2E/DX2 analytically  !
 ! D35   D(7,8,10,11)          178.8428         calculate D2E/DX2 analytically  !
 ! D36   D(7,8,10,15)           -1.091          calculate D2E/DX2 analytically  !
 ! D37   D(9,8,10,11)           -0.7013         calculate D2E/DX2 analytically  !
 ! D38   D(9,8,10,15)          179.3649         calculate D2E/DX2 analytically  !
 ! D39   D(8,10,11,12)        -179.9783         calculate D2E/DX2 analytically  !
 ! D40   D(8,10,11,23)          -0.0522         calculate D2E/DX2 analytically  !
 ! D41   D(15,10,11,12)         -0.0433         calculate D2E/DX2 analytically  !
 ! D42   D(15,10,11,23)        179.8828         calculate D2E/DX2 analytically  !
 ! D43   D(8,10,15,14)         179.9951         calculate D2E/DX2 analytically  !
 ! D44   D(8,10,15,27)          -0.0123         calculate D2E/DX2 analytically  !
 ! D45   D(11,10,15,14)          0.0589         calculate D2E/DX2 analytically  !
 ! D46   D(11,10,15,27)       -179.9485         calculate D2E/DX2 analytically  !
 ! D47   D(10,11,12,13)          0.002          calculate D2E/DX2 analytically  !
 ! D48   D(10,11,12,24)        179.984          calculate D2E/DX2 analytically  !
 ! D49   D(23,11,12,13)       -179.924          calculate D2E/DX2 analytically  !
 ! D50   D(23,11,12,24)          0.0581         calculate D2E/DX2 analytically  !
 ! D51   D(11,12,13,14)          0.0251         calculate D2E/DX2 analytically  !
 ! D52   D(11,12,13,25)       -179.9877         calculate D2E/DX2 analytically  !
 ! D53   D(24,12,13,14)       -179.9569         calculate D2E/DX2 analytically  !
 ! D54   D(24,12,13,25)          0.0302         calculate D2E/DX2 analytically  !
 ! D55   D(12,13,14,15)         -0.0096         calculate D2E/DX2 analytically  !
 ! D56   D(12,13,14,26)        179.9851         calculate D2E/DX2 analytically  !
 ! D57   D(25,13,14,15)       -179.9968         calculate D2E/DX2 analytically  !
 ! D58   D(25,13,14,26)         -0.002          calculate D2E/DX2 analytically  !
 ! D59   D(13,14,15,10)         -0.0331         calculate D2E/DX2 analytically  !
 ! D60   D(13,14,15,27)        179.9744         calculate D2E/DX2 analytically  !
 ! D61   D(26,14,15,10)        179.9722         calculate D2E/DX2 analytically  !
 ! D62   D(26,14,15,27)         -0.0203         calculate D2E/DX2 analytically  !
 --------------------------------------------------------------------------------
 Trust Radius=3.00D-01 FncErr=1.00D-07 GrdErr=1.00D-06 EigMax=2.50D+02 EigMin=1.00D-04
 Number of steps in this run=    145 maximum allowed number of steps=    162.
 GradGradGradGradGradGradGradGradGradGradGradGradGradGradGradGradGradGrad

                          Input orientation:                          
 ---------------------------------------------------------------------
 Center     Atomic      Atomic             Coordinates (Angstroms)
 Number     Number       Type             X           Y           Z
 ---------------------------------------------------------------------
      1         17           0        4.516160   -0.610930   -0.746920
      2          6           0        2.905180   -0.126890   -0.326750
      3          6           0        2.166200    0.652180   -1.201290
      4          6           0        0.885100    1.032540   -0.871220
      5          6           0        2.356650   -0.522760    0.881640
      6          6           0        1.075840   -0.143670    1.214150
      7          6           0        0.321930    0.639380    0.341650
      8          7           0       -1.028810    1.019130    0.680080
      9          6           0       -1.222620    2.257660    1.428420
     10          6           0       -2.140040    0.217200    0.310830
     11          6           0       -3.445940    0.566280    0.655290
     12          6           0       -4.507640   -0.228950    0.285520
     13          6           0       -4.291070   -1.387670   -0.434500
     14          6           0       -3.004890   -1.749420   -0.783900
     15          6           0       -1.941840   -0.956760   -0.415440
     16          1           0        2.608310    0.950800   -2.136430
     17          1           0        0.299690    1.633860   -1.544380
     18          1           0        2.945110   -1.128670    1.549260
     19          1           0        0.637080   -0.449310    2.147710
     20          1           0       -0.263490    2.742020    1.602340
     21          1           0       -1.681840    2.047130    2.392310
     22          1           0       -1.856460    2.941640    0.867330
     23          1           0       -3.623510    1.465970    1.216770
     24          1           0       -5.511250    0.053140    0.558870
     25          1           0       -5.123760   -2.008140   -0.722800
     26          1           0       -2.833580   -2.653180   -1.345450
     27          1           0       -0.939470   -1.237100   -0.686300
 ---------------------------------------------------------------------
                    Distance matrix (angstroms):
                    1          2          3          4          5
     1  Cl   0.000000
     2  C    1.733809   0.000000
     3  C    2.706328   1.384869   0.000000
     4  C    3.987611   2.391955   1.376531   0.000000
     5  C    2.706190   1.384848   2.399032   2.767117   0.000000
     6  C    3.987472   2.391890   2.767058   2.401795   1.376498
     7  C    4.509970   2.776168   2.404612   1.393840   2.404630
     8  N    5.953160   4.219401   3.725895   2.463689   3.725505
     9  C    6.774549   5.079905   4.580070   3.351380   4.565181
    10  C    6.790407   5.096975   4.584694   3.348655   4.592775
    11  C    8.169887   6.463870   5.911885   4.615792   5.908239
    12  C    9.090699   7.438763   6.893993   5.657831   6.896388
    13  C    8.846933   7.306654   6.815078   5.730696   6.831726
    14  C    7.606821   6.145772   5.716823   4.783194   5.746723
    15  C    6.475743   4.918349   4.481321   3.486637   4.510852
    16  H    2.830129   2.127085   1.076625   2.139367   3.368005
    17  H    4.842896   3.372157   2.136648   1.075842   3.842872
    18  H    2.829964   2.127104   3.368034   3.843591   1.076628
    19  H    4.842754   3.372119   3.842823   3.372141   2.136644
    20  H    6.293358   4.689616   4.258071   3.218708   4.247744
    21  H    7.438767   5.758507   5.446766   4.274249   5.019548
    22  H    7.472405   5.789207   5.069774   3.766082   5.454591
    23  H    8.626924   6.895176   6.326927   4.987497   6.311075
    24  H   10.133856   8.464811   7.899383   6.627041   7.895549
    25  H    9.740679   8.255897   7.774945   6.736035   7.793402
    26  H    7.651647   6.352421   5.995330   5.257186   6.036316
    27  H    5.491781   4.017857   3.671482   2.917964   3.719291
                    6          7          8          9         10
     6  C    0.000000
     7  C    1.393845   0.000000
     8  N    2.463105   1.443345   0.000000
     9  C    3.330948   2.487073   1.459977   0.000000
    10  C    3.359777   2.498096   1.419250   2.500829   0.000000
    11  C    4.611166   3.781608   2.459310   2.898560   1.394950
    12  C    5.660819   4.907331   3.716940   4.275606   2.409402
    13  C    5.750592   5.098148   4.204440   5.116081   2.785328
    14  C    4.819024   4.247465   3.703107   4.911979   2.411222
    15  C    3.524638   2.871498   2.436787   3.774863   1.394609
    16  H    3.843529   3.386059   4.600656   5.393706   5.392038
    17  H    3.372167   2.132274   2.662898   3.397660   3.376538
    18  H    2.139321   3.386059   4.600061   5.371388   5.404056
    19  H    1.075853   2.132233   2.661850   3.362075   3.395697
    20  H    3.204950   2.520546   2.098721   1.088477   3.400611
    21  H    3.713821   3.194066   2.101182   1.088251   2.809119
    22  H    4.270574   3.212806   2.101455   1.088303   2.795118
    23  H    4.967377   4.124995   2.687037   2.536896   2.140289
    24  H    6.622528   5.866588   4.586949   4.899834   3.384301
    25  H    6.757445   6.148004   5.282145   6.167957   3.863045
    26  H    5.304032   4.862561   4.565723   5.865654   3.385756
    27  H    2.978049   2.483745   2.639233   4.094577   2.133219
                   11         12         13         14         15
    11  C    0.000000
    12  C    1.377072   0.000000
    13  C    2.391612   1.381290   0.000000
    14  C    2.761930   2.390344   1.381015   0.000000
    15  C    2.393414   2.757604   2.388499   1.376280   0.000000
    16  H    6.677986   7.608837   7.481073   6.374052   5.225367
    17  H    4.473032   5.470742   5.606831   4.790111   3.606976
    18  H    6.672148   7.612491   7.507642   6.421173   5.269903
    19  H    4.464280   5.475806   5.642250   4.852687   3.671249
    20  H    3.969727   5.345417   6.117553   5.777755   4.535336
    21  H    2.884823   4.195742   5.157207   5.123726   4.120002
    22  H    2.865963   4.173715   5.134687   5.104067   4.104913
    23  H    1.075283   2.126421   3.363865   3.837200   3.370719
    24  H    2.130285   1.077742   2.133438   3.366615   3.835344
    25  H    3.367766   2.135844   1.077716   2.135481   3.365187
    26  H    3.839644   3.367407   2.134390   1.077714   2.130249
    27  H    3.366665   3.833098   3.364416   2.130248   1.075500
                   16         17         18         19         20
    16  H    0.000000
    17  H    2.479278   0.000000
    18  H    4.245226   4.919393   0.000000
    19  H    4.919341   4.252641   2.479249   0.000000
    20  H    5.043224   3.383347   5.027939   3.360512   0.000000
    21  H    6.333783   4.426599   5.674954   3.416055   1.765968
    22  H    5.737612   3.489358   6.331471   4.399506   1.765684
    23  H    7.095416   4.800379   7.070324   4.763147   3.614789
    24  H    8.602191   6.378821   8.595788   6.370152   5.988146
    25  H    8.398725   6.584297   8.428665   6.622466   7.182793
    26  H    6.574837   5.313724   6.640537   5.394876   6.663558
    27  H    4.413222   3.242565   4.483241   3.337325   4.639851
                   21         22         23         24         25
    21  H    0.000000
    22  H    1.776571   0.000000
    23  H    2.343016   2.328557   0.000000
    24  H    4.690616   4.668626   2.447955   0.000000
    25  H    6.164085   6.140365   4.252308   2.457987   0.000000
    26  H    6.114758   6.095340   4.914912   4.256820   2.459409
    27  H    4.562359   4.551539   4.258208   4.910839   4.254893
                   26         27
    26  H    0.000000
    27  H    2.455079   0.000000
 Stoichiometry    C13H12ClN
 Framework group  C1[X(C13H12ClN)]
 Deg. of freedom    75
 Full point group                 C1      NOp   1
 Largest Abelian subgroup         C1      NOp   1
 Largest concise Abelian subgroup C1      NOp   1
                         Standard orientation:                         
 ---------------------------------------------------------------------
 Center     Atomic      Atomic             Coordinates (Angstroms)
 Number     Number       Type             X           Y           Z
 ---------------------------------------------------------------------
      1         17           0       -4.657463   -0.750257   -0.014252
      2          6           0       -3.018365   -0.185153   -0.003838
      3          6           0       -2.359331    0.004859    1.199255
      4          6           0       -1.056199    0.448251    1.208661
      5          6           0       -2.367569    0.072339   -1.198814
      6          6           0       -1.064514    0.515904   -1.192167
      7          6           0       -0.390445    0.709769    0.012346
      8          7           0        0.982787    1.154095    0.019508
      9          6           0        1.235014    2.592070    0.031320
     10          6           0        2.061509    0.231900    0.005922
     11          6           0        3.390690    0.654830   -0.011193
     12          6           0        4.419994   -0.259873   -0.024598
     13          6           0        4.147206   -1.613956   -0.021282
     14          6           0        2.837300   -2.051086   -0.004984
     15          6           0        1.806550   -1.139203    0.008118
     16          1           0       -2.880489   -0.200325    2.118720
     17          1           0       -0.532392    0.595247    2.136806
     18          1           0       -2.894870   -0.081309   -2.124813
     19          1           0       -0.546803    0.714393   -2.114142
     20          1           0        0.292386    3.135594    0.059930
     21          1           0        1.775342    2.886851   -0.866142
     22          1           0        1.816306    2.865436    0.909827
     23          1           0        3.612082    1.707068   -0.015130
     24          1           0        5.442179    0.081427   -0.038018
     25          1           0        4.954621   -2.327711   -0.031597
     26          1           0        2.622155   -3.107104   -0.002611
     27          1           0        0.785806   -1.477777    0.020404
 ---------------------------------------------------------------------
 Rotational constants (GHZ):           1.3600490           0.2508465           0.2288372
 Standard basis: def2SVP (5D, 7F)
 There are   289 symmetry adapted cartesian basis functions of A   symmetry.
 There are   274 symmetry adapted basis functions of A   symmetry.
   274 basis functions,   471 primitive gaussians,   289 cartesian basis functions
    57 alpha electrons       57 beta electrons
       nuclear repulsion energy       991.8324741518 Hartrees.
 NAtoms=   27 NActive=   27 NUniq=   27 SFac= 1.00D+00 NAtFMM=   60 NAOKFM=F Big=F
 Integral buffers will be    131072 words long.
 Raffenetti 2 integral format.
 Two-electron integral symmetry is turned on.
 Nuclear repulsion after empirical dispersion term =      991.8146346069 Hartrees.
 One-electron integrals computed using PRISM.
   1 Symmetry operations used in ECPInt.
 ECPInt:  NShTT=    8256 NPrTT=   30622 LenC2=    7756 LenP2D=   20898.
 LDataN:  DoStor=T MaxTD1= 4 Len=   56
 NBasis=   274 RedAO= T EigKep=  2.24D-04  NBF=   274
 NBsUse=   274 1.00D-06 EigRej= -1.00D+00 NBFU=   274
 ExpMin= 1.22D-01 ExpMax= 1.04D+04 ExpMxC= 1.57D+03 IAcc=3 IRadAn=         5 AccDes= 0.00D+00
 Harris functional with IExCor= 4639 and IRadAn=       5 diagonalized for initial guess.
 HarFok:  IExCor= 4639 AccDes= 0.00D+00 IRadAn=         5 IDoV= 1 UseB2=F ITyADJ=14
 ICtDFT=  3500011 ScaDFX=  1.000000  1.000000  1.000000  1.000000
 FoFCou: FMM=F IPFlag=           0 FMFlag=      100000 FMFlg1=           0
         NFxFlg=           0 DoJE=T BraDBF=F KetDBF=T FulRan=T
         wScrn=  0.000000 ICntrl=       500 IOpCl=  0 I1Cent=   200000004 NGrid=           0
         NMat0=    1 NMatS0=      1 NMatT0=    0 NMatD0=    1 NMtDS0=    0 NMtDT0=    0
 Petite list used in FoFCou.
 Requested convergence on RMS density matrix=1.00D-08 within 128 cycles.
 Requested convergence on MAX density matrix=1.00D-06.
 Requested convergence on             energy=1.00D-06.
 No special actions if energy rises.
 Integral accuracy reduced to 1.0D-05 until final iterations.
 Initial convergence to 1.0D-05 achieved.  Increase integral accuracy.
 SCF Done:  E(RwB97XD) =  -1016.82222290     A.U. after   15 cycles
            NFock= 15  Conv=0.75D-08     -V/T= 2.0067
 DoSCS=F DFT=T ScalE2(SS,OS)=  1.000000  1.000000
 Range of M.O.s used for correlation:     1   274
 NBasis=   274 NAE=    57 NBE=    57 NFC=     0 NFV=     0
 NROrb=    274 NOA=    57 NOB=    57 NVA=   217 NVB=   217

 **** Warning!!: The largest alpha MO coefficient is  0.16992703D+02

   1 Symmetry operations used in ECPInt.
 ECPInt:  NShTT=    8256 NPrTT=   30622 LenC2=    7756 LenP2D=   20898.
 LDataN:  DoStor=T MaxTD1= 5 Len=  102
 Symmetrizing basis deriv contribution to polar:
 IMax=3 JMax=2 DiffMx= 0.00D+00
 G2DrvN: will do    28 centers at a time, making    1 passes.
 Calling FoFCou, ICntrl=  3107 FMM=F I1Cent=   0 AccDes= 0.00D+00.
 End of G2Drv F.D. properties file   721 does not exist.
 End of G2Drv F.D. properties file   722 does not exist.
 End of G2Drv F.D. properties file   788 does not exist.
          IDoAtm=111111111111111111111111111
          Differentiating once with respect to nuclear coordinates.
 Keep R1 ints in memory in canonical form, NReq=1447775478.
          There are    84 degrees of freedom in the 1st order CPHF.  IDoFFX=6 NUNeed=     0.
     78 vectors produced by pass  0 Test12= 1.47D-14 1.19D-09 XBig12= 8.06D-02 1.27D-01.
 AX will form    78 AO Fock derivatives at one time.
     78 vectors produced by pass  1 Test12= 1.47D-14 1.19D-09 XBig12= 9.23D-03 3.51D-02.
     78 vectors produced by pass  2 Test12= 1.47D-14 1.19D-09 XBig12= 2.35D-04 3.01D-03.
     78 vectors produced by pass  3 Test12= 1.47D-14 1.19D-09 XBig12= 2.96D-06 3.36D-04.
     78 vectors produced by pass  4 Test12= 1.47D-14 1.19D-09 XBig12= 2.03D-08 2.45D-05.
     78 vectors produced by pass  5 Test12= 1.47D-14 1.19D-09 XBig12= 9.24D-11 2.28D-06.
     70 vectors produced by pass  6 Test12= 1.47D-14 1.19D-09 XBig12= 5.08D-13 1.06D-07.
     36 vectors produced by pass  7 Test12= 1.47D-14 1.19D-09 XBig12= 2.61D-15 7.52D-09.
 InvSVY:  IOpt=1 It=  1 EMax= 5.00D-16
 Solved reduced A of dimension   574 with    84 vectors.
 End of Minotr F.D. properties file   721 does not exist.
 End of Minotr F.D. properties file   722 does not exist.
 End of Minotr F.D. properties file   788 does not exist.

 **********************************************************************

            Population analysis using the SCF Density.

 **********************************************************************

 Orbital symmetries:
       Occupied  (A) (A) (A) (A) (A) (A) (A) (A) (A) (A) (A) (A)
                 (A) (A) (A) (A) (A) (A) (A) (A) (A) (A) (A) (A)
                 (A) (A) (A) (A) (A) (A) (A) (A) (A) (A) (A) (A)
                 (A) (A) (A) (A) (A) (A) (A) (A) (A) (A) (A) (A)
                 (A) (A) (A) (A) (A) (A) (A) (A) (A)
       Virtual   (A) (A) (A) (A) (A) (A) (A) (A) (A) (A) (A) (A)
                 (A) (A) (A) (A) (A) (A) (A) (A) (A) (A) (A) (A)
                 (A) (A) (A) (A) (A) (A) (A) (A) (A) (A) (A) (A)
                 (A) (A) (A) (A) (A) (A) (A) (A) (A) (A) (A) (A)
                 (A) (A) (A) (A) (A) (A) (A) (A) (A) (A) (A) (A)
                 (A) (A) (A) (A) (A) (A) (A) (A) (A) (A) (A) (A)
                 (A) (A) (A) (A) (A) (A) (A) (A) (A) (A) (A) (A)
                 (A) (A) (A) (A) (A) (A) (A) (A) (A) (A) (A) (A)
                 (A) (A) (A) (A) (A) (A) (A) (A) (A) (A) (A) (A)
                 (A) (A) (A) (A) (A) (A) (A) (A) (A) (A) (A) (A)
                 (A) (A) (A) (A) (A) (A) (A) (A) (A) (A) (A) (A)
                 (A) (A) (A) (A) (A) (A) (A) (A) (A) (A) (A) (A)
                 (A) (A) (A) (A) (A) (A) (A) (A) (A) (A) (A) (A)
                 (A) (A) (A) (A) (A) (A) (A) (A) (A) (A) (A) (A)
                 (A) (A) (A) (A) (A) (A) (A) (A) (A) (A) (A) (A)
                 (A) (A) (A) (A) (A) (A) (A) (A) (A) (A) (A) (A)
                 (A) (A) (A) (A) (A) (A) (A) (A) (A) (A) (A) (A)
                 (A) (A) (A) (A) (A) (A) (A) (A) (A) (A) (A) (A)
                 (A)
 The electronic state is 1-A.
 Alpha  occ. eigenvalues -- -101.68137 -14.46285 -10.36508 -10.34882 -10.33912
 Alpha  occ. eigenvalues --  -10.33195 -10.31806 -10.31805 -10.31571 -10.31567
 Alpha  occ. eigenvalues --  -10.29268 -10.29161 -10.28775 -10.28484 -10.28103
 Alpha  occ. eigenvalues --   -9.58948  -7.34333  -7.33356  -7.33328  -1.04353
 Alpha  occ. eigenvalues --   -0.99779  -0.94853  -0.93212  -0.86456  -0.84491
 Alpha  occ. eigenvalues --   -0.83967  -0.82636  -0.76831  -0.72451  -0.71002
 Alpha  occ. eigenvalues --   -0.68970  -0.66928  -0.63356  -0.60271  -0.58501
 Alpha  occ. eigenvalues --   -0.57109  -0.55649  -0.54471  -0.53150  -0.52939
 Alpha  occ. eigenvalues --   -0.52610  -0.51452  -0.50689  -0.49447  -0.48501
 Alpha  occ. eigenvalues --   -0.46565  -0.46390  -0.45290  -0.43518  -0.42659
 Alpha  occ. eigenvalues --   -0.41391  -0.39726  -0.37431  -0.35469  -0.32867
 Alpha  occ. eigenvalues --   -0.32727  -0.26996
 Alpha virt. eigenvalues --    0.04203   0.04346   0.07172   0.08595   0.11296
 Alpha virt. eigenvalues --    0.14332   0.16112   0.17688   0.17738   0.18659
 Alpha virt. eigenvalues --    0.19990   0.20521   0.21353   0.21620   0.22120
 Alpha virt. eigenvalues --    0.23423   0.23586   0.24789   0.25442   0.25481
 Alpha virt. eigenvalues --    0.30795   0.32726   0.35596   0.35670   0.35985
 Alpha virt. eigenvalues --    0.37881   0.38892   0.39393   0.40542   0.42414
 Alpha virt. eigenvalues --    0.43620   0.44506   0.45474   0.46731   0.48916
 Alpha virt. eigenvalues --    0.49262   0.49601   0.51503   0.52677   0.53639
 Alpha virt. eigenvalues --    0.53912   0.54473   0.55344   0.56070   0.57580
 Alpha virt. eigenvalues --    0.57912   0.58367   0.59752   0.60775   0.60944
 Alpha virt. eigenvalues --    0.61891   0.63648   0.63905   0.65774   0.67051
 Alpha virt. eigenvalues --    0.67694   0.69543   0.70570   0.70903   0.72005
 Alpha virt. eigenvalues --    0.72507   0.73886   0.74560   0.75011   0.75166
 Alpha virt. eigenvalues --    0.75352   0.75720   0.76743   0.77943   0.78117
 Alpha virt. eigenvalues --    0.78649   0.79188   0.79852   0.80313   0.81279
 Alpha virt. eigenvalues --    0.82913   0.83056   0.84833   0.85191   0.86394
 Alpha virt. eigenvalues --    0.86959   0.87813   0.88872   0.90102   0.90886
 Alpha virt. eigenvalues --    0.91644   0.92275   0.93835   0.95290   0.96857
 Alpha virt. eigenvalues --    0.99468   0.99673   1.04440   1.04803   1.07916
 Alpha virt. eigenvalues --    1.09754   1.11911   1.15193   1.17849   1.18672
 Alpha virt. eigenvalues --    1.23542   1.25747   1.27326   1.30232   1.30769
 Alpha virt. eigenvalues --    1.30974   1.31197   1.33199   1.33716   1.34360
 Alpha virt. eigenvalues --    1.36521   1.37038   1.37874   1.38281   1.39445
 Alpha virt. eigenvalues --    1.40182   1.41238   1.44450   1.50797   1.55739
 Alpha virt. eigenvalues --    1.58358   1.60709   1.61692   1.65220   1.67068
 Alpha virt. eigenvalues --    1.72685   1.74708   1.77124   1.77383   1.78294
 Alpha virt. eigenvalues --    1.79600   1.81398   1.82515   1.83506   1.83809
 Alpha virt. eigenvalues --    1.84281   1.84618   1.85867   1.86937   1.87322
 Alpha virt. eigenvalues --    1.88044   1.89307   1.90523   1.90575   1.91770
 Alpha virt. eigenvalues --    1.92995   1.94716   1.95762   1.97678   1.98365
 Alpha virt. eigenvalues --    1.99047   2.00095   2.01804   2.05184   2.06159
 Alpha virt. eigenvalues --    2.08724   2.10050   2.11468   2.14399   2.15620
 Alpha virt. eigenvalues --    2.16245   2.17770   2.19944   2.22581   2.25247
 Alpha virt. eigenvalues --    2.25343   2.26394   2.28017   2.28551   2.30571
 Alpha virt. eigenvalues --    2.32745   2.33119   2.35730   2.35933   2.38237
 Alpha virt. eigenvalues --    2.40046   2.41546   2.43498   2.44894   2.45596
 Alpha virt. eigenvalues --    2.46335   2.47065   2.50407   2.56449   2.57924
 Alpha virt. eigenvalues --    2.58462   2.65732   2.69814   2.70929   2.71588
 Alpha virt. eigenvalues --    2.71945   2.72119   2.74676   2.75731   2.79942
 Alpha virt. eigenvalues --    2.83143   2.85446   2.85973   2.88823   2.90960
 Alpha virt. eigenvalues --    2.94356   2.95620   2.99412   3.00758   3.02395
 Alpha virt. eigenvalues --    3.03807   3.05703   3.06385   3.08541   3.21405
 Alpha virt. eigenvalues --    3.22480   3.28796   3.30103   3.32798   3.46028
 Alpha virt. eigenvalues --    3.70847   3.80336
          Condensed to atoms (all electrons):
               1          2          3          4          5          6
     1  Cl  16.961645   0.233756  -0.054024   0.002630  -0.054039   0.002635
     2  C    0.233756   5.269945   0.264642   0.112593   0.264831   0.112425
     3  C   -0.054024   0.264642   5.095430   0.226058   0.093379  -0.134415
     4  C    0.002630   0.112593   0.226058   5.102442  -0.134579   0.049915
     5  C   -0.054039   0.264831   0.093379  -0.134579   5.094148   0.226600
     6  C    0.002635   0.112425  -0.134415   0.049915   0.226600   5.101207
     7  C    0.000935  -0.191400   0.118675   0.284628   0.119083   0.284654
     8  N    0.000001  -0.000115   0.010493  -0.073843   0.010452  -0.074961
     9  C   -0.000000   0.000041  -0.000148  -0.005170  -0.000154  -0.005272
    10  C   -0.000000   0.000065  -0.000375  -0.001960  -0.000386  -0.001356
    11  C    0.000000   0.000000  -0.000005  -0.000430  -0.000005  -0.000382
    12  C   -0.000000   0.000000   0.000000   0.000024   0.000000   0.000022
    13  C   -0.000000  -0.000000   0.000000  -0.000034   0.000000  -0.000031
    14  C    0.000000   0.000003   0.000015   0.000039   0.000010   0.000004
    15  C    0.000000   0.000085  -0.000609  -0.002889  -0.000524  -0.002465
    16  H    0.001115  -0.074387   0.444537  -0.053417   0.014888  -0.002548
    17  H   -0.000113   0.016109  -0.073557   0.458121  -0.003198   0.016826
    18  H    0.001117  -0.074277   0.014861  -0.002532   0.444347  -0.053251
    19  H   -0.000113   0.016118  -0.003203   0.016824  -0.073526   0.457984
    20  H    0.000000   0.000013  -0.000407  -0.000154  -0.000382  -0.000358
    21  H    0.000000  -0.000000   0.000069  -0.000452  -0.000180   0.002058
    22  H    0.000000  -0.000000  -0.000157   0.001822   0.000067  -0.000441
    23  H    0.000000  -0.000000   0.000001  -0.000030   0.000001  -0.000026
    24  H    0.000000  -0.000000   0.000000  -0.000000   0.000000  -0.000000
    25  H    0.000000  -0.000000   0.000000   0.000000   0.000000   0.000000
    26  H    0.000000   0.000000  -0.000002   0.000016  -0.000001   0.000014
    27  H   -0.000000   0.000222  -0.000464  -0.002320  -0.000417  -0.002292
               7          8          9         10         11         12
     1  Cl   0.000935   0.000001  -0.000000  -0.000000   0.000000  -0.000000
     2  C   -0.191400  -0.000115   0.000041   0.000065   0.000000   0.000000
     3  C    0.118675   0.010493  -0.000148  -0.000375  -0.000005   0.000000
     4  C    0.284628  -0.073843  -0.005170  -0.001960  -0.000430   0.000024
     5  C    0.119083   0.010452  -0.000154  -0.000386  -0.000005   0.000000
     6  C    0.284654  -0.074961  -0.005272  -0.001356  -0.000382   0.000022
     7  C    5.231422   0.271657  -0.040145  -0.037259   0.009065  -0.000324
     8  N    0.271657   6.844092   0.336486   0.348715  -0.093992   0.008035
     9  C   -0.040145   0.336486   4.431312  -0.051259   0.003518   0.000396
    10  C   -0.037259   0.348715  -0.051259   5.033059   0.254699   0.122071
    11  C    0.009065  -0.093992   0.003518   0.254699   5.223104   0.271010
    12  C   -0.000324   0.008035   0.000396   0.122071   0.271010   5.043332
    13  C    0.000188  -0.000738   0.000080  -0.165525   0.089104   0.280511
    14  C   -0.002830   0.009194  -0.000285   0.121634  -0.157498   0.104957
    15  C   -0.000049  -0.090549   0.006241   0.277069   0.077064  -0.156287
    16  H    0.014651  -0.000169   0.000002   0.000000  -0.000000  -0.000000
    17  H   -0.065244  -0.006699   0.000042   0.001317  -0.000205   0.000001
    18  H    0.014600  -0.000170   0.000002   0.000001  -0.000000  -0.000000
    19  H   -0.065171  -0.006804   0.000098   0.001213  -0.000207   0.000003
    20  H    0.004875  -0.023020   0.396927   0.005947   0.000422  -0.000050
    21  H    0.001935  -0.031795   0.400787  -0.008976   0.004921   0.000822
    22  H    0.002419  -0.030597   0.399993  -0.009398   0.005142   0.000895
    23  H   -0.000174  -0.016419   0.012333  -0.078643   0.459079  -0.071293
    24  H    0.000007  -0.000089  -0.000038   0.015434  -0.070104   0.453499
    25  H   -0.000000   0.000012  -0.000000  -0.001401   0.014909  -0.070676
    26  H   -0.000030  -0.000097   0.000006   0.015336  -0.001957   0.014339
    27  H    0.015023  -0.019628  -0.000116  -0.067832   0.016781  -0.002596
              13         14         15         16         17         18
     1  Cl  -0.000000   0.000000   0.000000   0.001115  -0.000113   0.001117
     2  C   -0.000000   0.000003   0.000085  -0.074387   0.016109  -0.074277
     3  C    0.000000   0.000015  -0.000609   0.444537  -0.073557   0.014861
     4  C   -0.000034   0.000039  -0.002889  -0.053417   0.458121  -0.002532
     5  C    0.000000   0.000010  -0.000524   0.014888  -0.003198   0.444347
     6  C   -0.000031   0.000004  -0.002465  -0.002548   0.016826  -0.053251
     7  C    0.000188  -0.002830  -0.000049   0.014651  -0.065244   0.014600
     8  N   -0.000738   0.009194  -0.090549  -0.000169  -0.006699  -0.000170
     9  C    0.000080  -0.000285   0.006241   0.000002   0.000042   0.000002
    10  C   -0.165525   0.121634   0.277069   0.000000   0.001317   0.000001
    11  C    0.089104  -0.157498   0.077064  -0.000000  -0.000205  -0.000000
    12  C    0.280511   0.104957  -0.156287  -0.000000   0.000001  -0.000000
    13  C    5.118542   0.270667   0.089932  -0.000000   0.000004   0.000000
    14  C    0.270667   5.056924   0.275677  -0.000001  -0.000061  -0.000001
    15  C    0.089932   0.275677   5.177304   0.000000  -0.000662   0.000001
    16  H   -0.000000  -0.000001   0.000000   0.652211  -0.012379  -0.000283
    17  H    0.000004  -0.000061  -0.000662  -0.012379   0.660531   0.000033
    18  H    0.000000  -0.000001   0.000001  -0.000283   0.000033   0.652190
    19  H    0.000004  -0.000051  -0.000619   0.000033  -0.000223  -0.012376
    20  H    0.000004   0.000003  -0.000174   0.000004   0.000221   0.000003
    21  H   -0.000070   0.000030  -0.000175  -0.000001   0.000086   0.000003
    22  H   -0.000076   0.000029  -0.000121   0.000002  -0.000471  -0.000001
    23  H    0.015717  -0.002501   0.016662  -0.000000  -0.000011  -0.000000
    24  H   -0.070630   0.014285  -0.001917  -0.000000  -0.000000  -0.000000
    25  H    0.452456  -0.070656   0.014893   0.000000   0.000000   0.000000
    26  H   -0.072220   0.454699  -0.069675  -0.000000   0.000000  -0.000000
    27  H    0.015553  -0.076206   0.457674   0.000004  -0.000131   0.000002
              19         20         21         22         23         24
     1  Cl  -0.000113   0.000000   0.000000   0.000000   0.000000   0.000000
     2  C    0.016118   0.000013  -0.000000  -0.000000  -0.000000  -0.000000
     3  C   -0.003203  -0.000407   0.000069  -0.000157   0.000001   0.000000
     4  C    0.016824  -0.000154  -0.000452   0.001822  -0.000030  -0.000000
     5  C   -0.073526  -0.000382  -0.000180   0.000067   0.000001   0.000000
     6  C    0.457984  -0.000358   0.002058  -0.000441  -0.000026  -0.000000
     7  C   -0.065171   0.004875   0.001935   0.002419  -0.000174   0.000007
     8  N   -0.006804  -0.023020  -0.031795  -0.030597  -0.016419  -0.000089
     9  C    0.000098   0.396927   0.400787   0.399993   0.012333  -0.000038
    10  C    0.001213   0.005947  -0.008976  -0.009398  -0.078643   0.015434
    11  C   -0.000207   0.000422   0.004921   0.005142   0.459079  -0.070104
    12  C    0.000003  -0.000050   0.000822   0.000895  -0.071293   0.453499
    13  C    0.000004   0.000004  -0.000070  -0.000076   0.015717  -0.070630
    14  C   -0.000051   0.000003   0.000030   0.000029  -0.002501   0.014285
    15  C   -0.000619  -0.000174  -0.000175  -0.000121   0.016662  -0.001917
    16  H    0.000033   0.000004  -0.000001   0.000002  -0.000000  -0.000000
    17  H   -0.000223   0.000221   0.000086  -0.000471  -0.000011  -0.000000
    18  H   -0.012376   0.000003   0.000003  -0.000001  -0.000000  -0.000000
    19  H    0.661070   0.000254  -0.000508   0.000085  -0.000013  -0.000000
    20  H    0.000254   0.601967  -0.019815  -0.018637  -0.000013  -0.000001
    21  H   -0.000508  -0.019815   0.653453  -0.040868  -0.001336   0.000011
    22  H    0.000085  -0.018637  -0.040868   0.650776  -0.001480   0.000011
    23  H   -0.000013  -0.000013  -0.001336  -0.001480   0.698119  -0.013798
    24  H   -0.000000  -0.000001   0.000011   0.000011  -0.013798   0.678469
    25  H    0.000000  -0.000000  -0.000000  -0.000000  -0.000264  -0.012553
    26  H    0.000000  -0.000000  -0.000000  -0.000000   0.000024  -0.000269
    27  H   -0.000125  -0.000007  -0.000006  -0.000010  -0.000183   0.000020
              25         26         27
     1  Cl   0.000000   0.000000  -0.000000
     2  C   -0.000000   0.000000   0.000222
     3  C    0.000000  -0.000002  -0.000464
     4  C    0.000000   0.000016  -0.002320
     5  C    0.000000  -0.000001  -0.000417
     6  C    0.000000   0.000014  -0.002292
     7  C   -0.000000  -0.000030   0.015023
     8  N    0.000012  -0.000097  -0.019628
     9  C   -0.000000   0.000006  -0.000116
    10  C   -0.001401   0.015336  -0.067832
    11  C    0.014909  -0.001957   0.016781
    12  C   -0.070676   0.014339  -0.002596
    13  C    0.452456  -0.072220   0.015553
    14  C   -0.070656   0.454699  -0.076206
    15  C    0.014893  -0.069675   0.457674
    16  H    0.000000  -0.000000   0.000004
    17  H    0.000000   0.000000  -0.000131
    18  H    0.000000  -0.000000   0.000002
    19  H    0.000000   0.000000  -0.000125
    20  H   -0.000000  -0.000000  -0.000007
    21  H   -0.000000  -0.000000  -0.000006
    22  H   -0.000000  -0.000000  -0.000010
    23  H   -0.000264   0.000024  -0.000183
    24  H   -0.012553  -0.000269   0.000020
    25  H    0.683487  -0.012498  -0.000259
    26  H   -0.012498   0.677494  -0.013396
    27  H   -0.000259  -0.013396   0.677260
 Mulliken charges:
               1
     1  Cl  -0.095545
     2  C    0.049330
     3  C   -0.000792
     4  C    0.022698
     5  C   -0.000415
     6  C    0.023454
     7  C    0.028811
     8  N   -0.369453
     9  C    0.114322
    10  C    0.227808
    11  C   -0.104032
    12  C    0.001308
    13  C   -0.023438
    14  C    0.001918
    15  C   -0.065888
    16  H    0.015736
    17  H    0.009662
    18  H    0.015731
    19  H    0.009255
    20  H    0.052377
    21  H    0.040007
    22  H    0.041015
    23  H   -0.015751
    24  H    0.007662
    25  H    0.002550
    26  H    0.008217
    27  H    0.003452
 Sum of Mulliken charges =  -0.00000
 Mulliken charges with hydrogens summed into heavy atoms:
               1
     1  Cl  -0.095545
     2  C    0.049330
     3  C    0.014944
     4  C    0.032360
     5  C    0.015316
     6  C    0.032709
     7  C    0.028811
     8  N   -0.369453
     9  C    0.247721
    10  C    0.227808
    11  C   -0.119783
    12  C    0.008970
    13  C   -0.020888
    14  C    0.010135
    15  C   -0.062436
 APT charges:
               1
     1  Cl   0.093402
     2  C    0.576402
     3  C   -0.747637
     4  C   -0.382579
     5  C   -0.747205
     6  C   -0.382552
     7  C   -0.324792
     8  N   -0.290113
     9  C   -0.805962
    10  C   -0.365725
    11  C   -0.589015
    12  C   -0.463852
    13  C   -0.657751
    14  C   -0.439013
    15  C   -0.286763
    16  H    0.596897
    17  H    0.327479
    18  H    0.599815
    19  H    0.330000
    20  H    0.291266
    21  H    0.413917
    22  H    0.425359
    23  H    0.465950
    24  H    0.958877
    25  H    0.953467
    26  H    0.480322
    27  H   -0.030194
 Sum of APT charges =  -0.00000
 APT charges with hydrogens summed into heavy atoms:
               1
     1  Cl   0.093402
     2  C    0.576402
     3  C   -0.150740
     4  C   -0.055100
     5  C   -0.147390
     6  C   -0.052552
     7  C   -0.324792
     8  N   -0.290113
     9  C    0.324580
    10  C   -0.365725
    11  C   -0.123065
    12  C    0.495025
    13  C    0.295715
    14  C    0.041309
    15  C   -0.316957
 Electronic spatial extent (au):  <R**2>=           4568.8219
 Charge=             -0.0000 electrons
 Dipole moment (field-independent basis, Debye):
    X=              0.2644    Y=              1.5282    Z=              0.0189  Tot=              1.5510
 Quadrupole moment (field-independent basis, Debye-Ang):
   XX=            -99.3947   YY=            -89.5752   ZZ=            -91.8410
   XY=              1.6185   XZ=             -0.0378   YZ=             -0.1721
 Traceless Quadrupole moment (field-independent basis, Debye-Ang):
   XX=             -5.7911   YY=              4.0284   ZZ=              1.7627
   XY=              1.6185   XZ=             -0.0378   YZ=             -0.1721
 Octapole moment (field-independent basis, Debye-Ang**2):
  XXX=             22.4857  YYY=              2.9346  ZZZ=              0.1345  XYY=              9.2656
  XXY=              4.2999  XXZ=             -0.5796  XZZ=            -28.9416  YZZ=              4.6138
  YYZ=              0.0654  XYZ=              0.5243
 Hexadecapole moment (field-independent basis, Debye-Ang**3):
 XXXX=          -4841.0974 YYYY=           -831.6944 ZZZZ=           -327.0932 XXXY=             27.0936
 XXXZ=             -2.3317 YYYX=             15.4494 YYYZ=              0.8267 ZZZX=              1.2322
 ZZZY=             -1.3658 XXYY=           -939.4464 XXZZ=           -895.6694 YYZZ=           -217.8475
 XXYZ=             -0.4729 YYXZ=             -0.0628 ZZXY=             21.3507
 N-N= 9.918146346069D+02 E-N=-4.366012765016D+03  KE= 1.010064198703D+03
  Exact polarizability:       0.000       0.000       0.000       0.000       0.000       0.000
 Approx polarizability:     209.128      12.978     154.003      -0.157      -1.023     137.097
   1 Symmetry operations used in ECPInt.
 ECPInt:  NShTT=    8256 NPrTT=   30622 LenC2=    7756 LenP2D=   20898.
 LDataN:  DoStor=T MaxTD1= 6 Len=  172
 Calling FoFJK, ICntrl=    100127 FMM=F ISym2X=0 I1Cent= 0 IOpClX= 0 NMat=1 NMatS=1 NMatT=0.
 ***** Axes restored to original set *****
 -------------------------------------------------------------------
 Center     Atomic                   Forces (Hartrees/Bohr)
 Number     Number              X              Y              Z
 -------------------------------------------------------------------
      1       17           0.003134271   -0.000860175   -0.000770056
      2        6           0.000799004   -0.000498304   -0.000332510
      3        6           0.007918080   -0.000737334   -0.003966223
      4        6          -0.007201912   -0.000778600    0.008745216
      5        6           0.008383780   -0.003054290    0.000364595
      6        6          -0.008552256    0.006365583   -0.004251140
      7        6          -0.020098012    0.001455750    0.002631257
      8        7          -0.000236331   -0.004580679   -0.003247987
      9        6           0.001782737   -0.017817967   -0.010291532
     10        6           0.027547529    0.015353541    0.006617059
     11        6           0.005900640    0.008316239    0.004334683
     12        6          -0.000456154   -0.003766881   -0.002289367
     13        6          -0.008534128   -0.004214560   -0.001680578
     14        6          -0.000705814    0.001059899    0.000736349
     15        6           0.005998813   -0.000363489   -0.000739325
     16        1           0.003540086    0.003467827   -0.009568502
     17        1          -0.005997761    0.005960686   -0.007692355
     18        1           0.005085901   -0.006044435    0.007307320
     19        1          -0.004370616   -0.003937725    0.009797032
     20        1           0.005759626    0.001016738   -0.000076954
     21        1          -0.005049511    0.001444414    0.009906409
     22        1          -0.006287443    0.008378314   -0.002752008
     23        1          -0.003345970    0.009043710    0.005799315
     24        1          -0.009379157    0.003519551    0.003087225
     25        1          -0.008143339   -0.005927965   -0.002727550
     26        1           0.002557429   -0.008591455   -0.005426372
     27        1           0.009950509   -0.004208393   -0.003514005
 -------------------------------------------------------------------
 Cartesian Forces:  Max     0.027547529 RMS     0.007001244
 FormGI is forming the generalized inverse of G from B-inverse, IUseBI=4.

 GradGradGradGradGradGradGradGradGradGradGradGradGradGradGradGradGradGrad
 Berny optimization.
 Internal  Forces:  Max     0.023615337 RMS     0.005703246
 Search for a local minimum.
 Step number   1 out of a maximum of  145
 All quantities printed in internal units (Hartrees-Bohrs-Radians)
 Mixed Optimization -- RFO/linear search
 Second derivative matrix not updated -- analytic derivatives used.
 ITU=  0
     Eigenvalues ---   -0.00207  -0.00098   0.00242   0.01271   0.01627
     Eigenvalues ---    0.01838   0.01870   0.01897   0.01933   0.01972
     Eigenvalues ---    0.02317   0.02388   0.02391   0.02420   0.02672
     Eigenvalues ---    0.02757   0.02817   0.02981   0.03073   0.03104
     Eigenvalues ---    0.03256   0.03347   0.06193   0.06260   0.11050
     Eigenvalues ---    0.11258   0.11290   0.11590   0.11738   0.11937
     Eigenvalues ---    0.12372   0.12409   0.12796   0.13123   0.16912
     Eigenvalues ---    0.17745   0.17763   0.18119   0.18710   0.19150
     Eigenvalues ---    0.19315   0.19888   0.19911   0.20582   0.21279
     Eigenvalues ---    0.21665   0.28234   0.30488   0.32102   0.35399
     Eigenvalues ---    0.35869   0.36311   0.36952   0.37166   0.38118
     Eigenvalues ---    0.38904   0.39388   0.39416   0.39551   0.39689
     Eigenvalues ---    0.39858   0.39928   0.40090   0.40380   0.41792
     Eigenvalues ---    0.45991   0.46107   0.46849   0.49444   0.50825
     Eigenvalues ---    0.52332   0.52687   0.52949   0.56477   0.56991
 RFO step:  Lambda=-1.05275765D-02 EMin=-2.07271727D-03
 Linear search not attempted -- first point.
 Iteration  1 RMS(Cart)=  0.11082693 RMS(Int)=  0.03160885
 Iteration  2 RMS(Cart)=  0.08990583 RMS(Int)=  0.00389203
 Iteration  3 RMS(Cart)=  0.00373851 RMS(Int)=  0.00324225
 Iteration  4 RMS(Cart)=  0.00000399 RMS(Int)=  0.00324224
 Iteration  5 RMS(Cart)=  0.00000000 RMS(Int)=  0.00324224
 Variable       Old X    -DE/DX   Delta X   Delta X   Delta X     New X
                                 (Linear)    (Quad)   (Total)
    R1        3.27642   0.00334   0.00000   0.01390   0.01390   3.29032
    R2        2.61702   0.01003   0.00000   0.01553   0.01554   2.63256
    R3        2.61698   0.01002   0.00000   0.01793   0.01794   2.63493
    R4        2.60127   0.01531   0.00000   0.02944   0.02944   2.63070
    R5        2.03453   0.01073   0.00000   0.02512   0.02512   2.05965
    R6        2.63398   0.00457   0.00000   0.00498   0.00496   2.63894
    R7        2.03305   0.01141   0.00000   0.02761   0.02761   2.06066
    R8        2.60120   0.01535   0.00000   0.02657   0.02657   2.62777
    R9        2.03453   0.01071   0.00000   0.02519   0.02519   2.05972
   R10        2.63399   0.00451   0.00000   0.00974   0.00973   2.64372
   R11        2.03307   0.01140   0.00000   0.02858   0.02858   2.06164
   R12        2.72753  -0.01713   0.00000  -0.04274  -0.04274   2.68478
   R13        2.75896  -0.00706   0.00000  -0.02744  -0.02744   2.73152
   R14        2.68199  -0.02362   0.00000  -0.06237  -0.06237   2.61963
   R15        2.05692   0.00552   0.00000   0.01533   0.01533   2.07226
   R16        2.05650   0.01063   0.00000   0.03345   0.03345   2.08995
   R17        2.05659   0.01035   0.00000   0.02419   0.02419   2.08078
   R18        2.63607   0.01101   0.00000   0.02509   0.02509   2.66116
   R19        2.63543   0.01360   0.00000   0.02893   0.02893   2.66436
   R20        2.60229   0.01674   0.00000   0.02870   0.02870   2.63099
   R21        2.03199   0.01115   0.00000   0.02556   0.02556   2.05755
   R22        2.61026   0.01218   0.00000   0.01956   0.01956   2.62982
   R23        2.03664   0.01044   0.00000   0.02653   0.02653   2.06316
   R24        2.60974   0.01472   0.00000   0.02541   0.02541   2.63515
   R25        2.03659   0.01043   0.00000   0.02421   0.02421   2.06080
   R26        2.60079   0.01486   0.00000   0.02399   0.02400   2.62479
   R27        2.03658   0.01044   0.00000   0.02649   0.02649   2.06307
   R28        2.03240   0.01126   0.00000   0.02668   0.02668   2.05908
    A1        2.09419  -0.00109   0.00000  -0.00652  -0.00653   2.08766
    A2        2.09404  -0.00109   0.00000  -0.00787  -0.00789   2.08615
    A3        2.09495   0.00218   0.00000   0.01440   0.01443   2.10938
    A4        2.09513  -0.00289   0.00000  -0.01335  -0.01334   2.08180
    A5        2.07764   0.00249   0.00000   0.01404   0.01403   2.09167
    A6        2.11041   0.00040   0.00000  -0.00070  -0.00071   2.10971
    A7        2.10220   0.00067   0.00000   0.00472   0.00471   2.10691
    A8        2.10694  -0.00086   0.00000  -0.00403  -0.00403   2.10291
    A9        2.07404   0.00019   0.00000  -0.00068  -0.00067   2.07337
   A10        2.09511  -0.00289   0.00000  -0.01293  -0.01291   2.08220
   A11        2.07770   0.00248   0.00000   0.01317   0.01316   2.09085
   A12        2.11038   0.00041   0.00000  -0.00023  -0.00024   2.11014
   A13        2.10226   0.00067   0.00000   0.00397   0.00396   2.10622
   A14        2.10697  -0.00090   0.00000  -0.01054  -0.01054   2.09643
   A15        2.07395   0.00023   0.00000   0.00655   0.00656   2.08050
   A16        2.07672   0.00227   0.00000   0.00320   0.00313   2.07986
   A17        2.10359  -0.00115   0.00000  -0.01092  -0.01095   2.09263
   A18        2.10275  -0.00111   0.00000   0.00798   0.00795   2.11070
   A19        2.05739   0.00316   0.00000   0.00496  -0.01685   2.04054
   A20        2.12124  -0.00295   0.00000  -0.01421  -0.03501   2.08623
   A21        2.10453  -0.00021   0.00000   0.00666  -0.01522   2.08932
   A22        1.92029  -0.00457   0.00000  -0.01988  -0.01983   1.90045
   A23        1.92399   0.00496   0.00000   0.04768   0.04752   1.97151
   A24        1.92432   0.00427   0.00000   0.01049   0.01026   1.93458
   A25        1.89273  -0.00062   0.00000  -0.00448  -0.00438   1.88835
   A26        1.89221  -0.00048   0.00000  -0.01079  -0.01081   1.88141
   A27        1.90971  -0.00375   0.00000  -0.02436  -0.02475   1.88496
   A28        2.12627  -0.00569   0.00000  -0.01412  -0.01418   2.11209
   A29        2.09423   0.00412   0.00000   0.01899   0.01892   2.11315
   A30        2.06269   0.00156   0.00000  -0.00486  -0.00491   2.05778
   A31        2.10708  -0.00150   0.00000  -0.00173  -0.00172   2.10537
   A32        2.08624   0.00231   0.00000   0.01601   0.01601   2.10225
   A33        2.08986  -0.00081   0.00000  -0.01429  -0.01429   2.07557
   A34        2.09846   0.00291   0.00000   0.01509   0.01509   2.11355
   A35        2.09289  -0.00244   0.00000  -0.01715  -0.01716   2.07573
   A36        2.09183  -0.00047   0.00000   0.00206   0.00205   2.09389
   A37        2.09167  -0.00406   0.00000  -0.02176  -0.02176   2.06992
   A38        2.09585   0.00190   0.00000   0.01096   0.01095   2.10680
   A39        2.09566   0.00216   0.00000   0.01081   0.01080   2.10647
   A40        2.09528   0.00315   0.00000   0.01792   0.01793   2.11321
   A41        2.09386  -0.00065   0.00000  -0.00007  -0.00007   2.09378
   A42        2.09405  -0.00251   0.00000  -0.01785  -0.01786   2.07619
   A43        2.11118  -0.00207   0.00000  -0.00467  -0.00466   2.10652
   A44        2.07491   0.00260   0.00000   0.01554   0.01553   2.09043
   A45        2.09710  -0.00053   0.00000  -0.01087  -0.01089   2.08621
    D1        3.13696   0.00007   0.00000   0.00075   0.00076   3.13772
    D2       -0.00314   0.00007   0.00000   0.00476   0.00479   0.00166
    D3       -0.00142   0.00000   0.00000  -0.00090  -0.00089  -0.00231
    D4       -3.14151   0.00001   0.00000   0.00311   0.00314  -3.13837
    D5       -3.13705  -0.00003   0.00000  -0.00481  -0.00480   3.14133
    D6        0.00267  -0.00008   0.00000  -0.00121  -0.00118   0.00149
    D7        0.00132   0.00003   0.00000  -0.00316  -0.00314  -0.00182
    D8        3.14105  -0.00001   0.00000   0.00045   0.00048   3.14152
    D9        0.00054   0.00006   0.00000   0.00554   0.00555   0.00609
   D10       -3.13665   0.00002   0.00000   0.00374   0.00375  -3.13290
   D11        3.14061   0.00005   0.00000   0.00146   0.00149  -3.14109
   D12        0.00341   0.00001   0.00000  -0.00033  -0.00030   0.00311
   D13        0.00042  -0.00015   0.00000  -0.00607  -0.00609  -0.00567
   D14       -3.12409  -0.00079   0.00000  -0.02315  -0.02309   3.13601
   D15        3.13769  -0.00011   0.00000  -0.00432  -0.00433   3.13336
   D16        0.01319  -0.00076   0.00000  -0.02140  -0.02133  -0.00814
   D17       -0.00036  -0.00012   0.00000   0.00258   0.00260   0.00224
   D18        3.13598  -0.00005   0.00000  -0.00018  -0.00015   3.13583
   D19       -3.14004  -0.00008   0.00000  -0.00110  -0.00108  -3.14112
   D20       -0.00371  -0.00001   0.00000  -0.00386  -0.00382  -0.00753
   D21       -0.00051   0.00018   0.00000   0.00200   0.00197   0.00146
   D22        3.12400   0.00082   0.00000   0.01888   0.01896  -3.14022
   D23       -3.13694   0.00011   0.00000   0.00476   0.00474  -3.13220
   D24       -0.01243   0.00075   0.00000   0.02164   0.02173   0.00930
   D25       -1.60081   0.00037   0.00000  -0.04956  -0.04748  -1.64829
   D26        1.54853   0.00043   0.00000   0.33300   0.33088   1.87941
   D27        1.55813  -0.00032   0.00000  -0.06685  -0.06473   1.49339
   D28       -1.57572  -0.00026   0.00000   0.31571   0.31363  -1.26209
   D29        0.02636   0.00010   0.00000   0.37622   0.37634   0.40270
   D30       -2.06027   0.00063   0.00000   0.36436   0.36471  -1.69556
   D31        2.11258  -0.00069   0.00000   0.35692   0.35693   2.46951
   D32       -3.12290   0.00003   0.00000  -0.00260  -0.00281  -3.12571
   D33        1.07365   0.00056   0.00000  -0.01447  -0.01444   1.05921
   D34       -1.03669  -0.00076   0.00000  -0.02191  -0.02222  -1.05891
   D35        3.12140   0.00012   0.00000  -0.27991  -0.27797   2.84342
   D36       -0.01904   0.00013   0.00000  -0.30113  -0.29927  -0.31831
   D37       -0.01224   0.00017   0.00000   0.11289   0.11103   0.09879
   D38        3.13051   0.00017   0.00000   0.09167   0.08974  -3.06294
   D39       -3.14121  -0.00002   0.00000  -0.02716  -0.02695   3.11502
   D40       -0.00091  -0.00000   0.00000  -0.02641  -0.02622  -0.02713
   D41       -0.00075  -0.00002   0.00000  -0.00629  -0.00630  -0.00705
   D42        3.13955  -0.00000   0.00000  -0.00554  -0.00557   3.13398
   D43        3.14151  -0.00000   0.00000   0.02286   0.02307  -3.11861
   D44       -0.00021   0.00001   0.00000   0.01557   0.01568   0.01547
   D45        0.00103   0.00000   0.00000   0.00241   0.00243   0.00346
   D46       -3.14069   0.00002   0.00000  -0.00488  -0.00496   3.13753
   D47        0.00003   0.00002   0.00000   0.00662   0.00668   0.00671
   D48        3.14131   0.00001   0.00000   0.00174   0.00178  -3.14009
   D49       -3.14027   0.00000   0.00000   0.00584   0.00594  -3.13433
   D50        0.00101  -0.00001   0.00000   0.00097   0.00104   0.00205
   D51        0.00044  -0.00001   0.00000  -0.00292  -0.00293  -0.00249
   D52       -3.14138  -0.00002   0.00000  -0.00329  -0.00332   3.13849
   D53       -3.14084   0.00001   0.00000   0.00195   0.00202  -3.13882
   D54        0.00053  -0.00000   0.00000   0.00159   0.00163   0.00216
   D55       -0.00017  -0.00001   0.00000  -0.00094  -0.00098  -0.00115
   D56        3.14133  -0.00001   0.00000   0.00181   0.00181  -3.14004
   D57       -3.14154  -0.00000   0.00000  -0.00058  -0.00059   3.14105
   D58       -0.00004   0.00000   0.00000   0.00218   0.00220   0.00216
   D59       -0.00058   0.00002   0.00000   0.00116   0.00118   0.00060
   D60        3.14115  -0.00000   0.00000   0.00853   0.00855  -3.13349
   D61        3.14111   0.00001   0.00000  -0.00160  -0.00159   3.13952
   D62       -0.00035  -0.00001   0.00000   0.00578   0.00579   0.00543
         Item               Value     Threshold  Converged?
 Maximum Force            0.023615     0.000450     NO 
 RMS     Force            0.005703     0.000300     NO 
 Maximum Displacement     0.651891     0.001800     NO 
 RMS     Displacement     0.198483     0.001200     NO 
 Predicted change in Energy=-6.143002D-03
 GradGradGradGradGradGradGradGradGradGradGradGradGradGradGradGradGradGrad

                          Input orientation:                          
 ---------------------------------------------------------------------
 Center     Atomic      Atomic             Coordinates (Angstroms)
 Number     Number       Type             X           Y           Z
 ---------------------------------------------------------------------
      1         17           0        4.529649   -0.696550   -0.490296
      2          6           0        2.895854   -0.158204   -0.220943
      3          6           0        2.308123    0.732608   -1.116337
      4          6           0        0.999887    1.154840   -0.896780
      5          6           0        2.192078   -0.626329    0.888000
      6          6           0        0.887655   -0.193066    1.098742
      7          6           0        0.280155    0.700864    0.210473
      8          7           0       -1.051654    1.148353    0.421418
      9          6           0       -1.228801    2.287277    1.293668
     10          6           0       -2.107565    0.276011    0.207518
     11          6           0       -3.387087    0.543300    0.731427
     12          6           0       -4.449380   -0.322328    0.485243
     13          6           0       -4.276035   -1.474859   -0.275214
     14          6           0       -3.010644   -1.748703   -0.793199
     15          6           0       -1.940587   -0.894062   -0.561191
     16          1           0        2.872424    1.085626   -1.979395
     17          1           0        0.517805    1.845425   -1.589443
     18          1           0        2.668781   -1.323053    1.577449
     19          1           0        0.322886   -0.554994    1.959132
     20          1           0       -0.294867    2.861272    1.322131
     21          1           0       -1.489821    2.000883    2.329515
     22          1           0       -2.020762    2.951709    0.914515
     23          1           0       -3.560980    1.431448    1.336781
     24          1           0       -5.429988   -0.087446    0.903836
     25          1           0       -5.111886   -2.150005   -0.461716
     26          1           0       -2.849872   -2.645906   -1.394076
     27          1           0       -0.964330   -1.128634   -0.984466
 ---------------------------------------------------------------------
                    Distance matrix (angstroms):
                    1          2          3          4          5
     1  Cl   0.000000
     2  C    1.741164   0.000000
     3  C    2.714700   1.393092   0.000000
     4  C    4.006506   2.403234   1.392109   0.000000
     5  C    2.714566   1.394344   2.424364   2.789143   0.000000
     6  C    4.005329   2.403258   2.789476   2.410717   1.390557
     7  C    4.527918   2.786754   2.423651   1.396466   2.424032
     8  N    5.948599   4.207439   3.718284   2.438547   3.726794
     9  C    6.726477   5.028639   4.553565   3.323782   4.511771
    10  C    6.744288   5.040469   4.632426   3.412927   4.445695
    11  C    8.105833   6.393314   5.990449   4.719171   5.702598
    12  C    9.039617   7.380929   7.024372   5.812618   6.660600
    13  C    8.842630   7.291950   6.995108   5.927649   6.626429
    14  C    7.619369   6.143605   5.877976   4.952337   5.581618
    15  C    6.473638   4.903919   4.583206   3.599584   4.387568
    16  H    2.853062   2.154023   1.089920   2.164079   3.408168
    17  H    4.874899   3.397416   2.160423   1.090454   3.879494
    18  H    2.851473   2.154680   3.407682   3.879042   1.089959
    19  H    4.869968   3.395635   3.880412   3.396778   2.155526
    20  H    6.262503   4.656073   4.153660   3.084131   4.305430
    21  H    7.173667   5.513678   5.282689   4.162141   4.747272
    22  H    7.628314   5.927389   5.271434   3.953967   5.527303
    23  H    8.562994   6.829657   6.399417   5.085943   6.126461
    24  H   10.075166   8.401772   8.039400   6.791817   7.641108
    25  H    9.750515   8.255249   7.987147   6.961684   7.582295
    26  H    7.685970   6.370107   6.172229   5.432643   5.891334
    27  H    5.533055   4.052866   3.767036   3.013318   3.704234
                    6          7          8          9         10
     6  C    0.000000
     7  C    1.398996   0.000000
     8  N    2.453384   1.420725   0.000000
     9  C    3.266417   2.442737   1.445458   0.000000
    10  C    3.160008   2.425225   1.386247   2.448906   0.000000
    11  C    4.353225   3.707409   2.432373   2.831213   1.408226
    12  C    5.373735   4.846744   3.702907   4.223236   2.432949
    13  C    5.494947   5.072330   4.214638   5.089273   2.828576
    14  C    4.603931   4.223398   3.702144   4.880483   2.432376
    15  C    3.353464   2.840942   2.434580   3.750741   1.409917
    16  H    3.879341   3.415175   4.600676   5.383024   5.498941
    17  H    3.393901   2.146204   2.644366   3.399735   3.547491
    18  H    2.162971   3.416196   4.613664   5.320353   5.219885
    19  H    1.090975   2.153327   2.674943   3.305916   3.108989
    20  H    3.282871   2.496757   2.078004   1.096592   3.348404
    21  H    3.461301   3.051754   2.135330   1.105952   2.803509
    22  H    4.287474   3.294875   2.105803   1.101104   2.768888
    23  H    4.741947   4.068986   2.686029   2.484625   2.173174
    24  H    6.321531   5.805852   4.574902   4.841616   3.414008
    25  H    6.500702   6.136236   5.305146   6.152170   3.919103
    26  H    5.118561   4.855153   4.574495   5.847061   3.413754
    27  H    2.940220   2.514694   2.677463   4.114400   2.168142
                   11         12         13         14         15
    11  C    0.000000
    12  C    1.392259   0.000000
    13  C    2.424154   1.391643   0.000000
    14  C    2.778394   2.395605   1.394459   0.000000
    15  C    2.414380   2.777759   2.423516   1.388978   0.000000
    16  H    6.842817   7.852744   7.782081   6.637090   5.394028
    17  H    4.725478   5.803137   5.977657   5.099187   3.821751
    18  H    6.393165   7.270666   7.189290   6.169037   5.099420
    19  H    4.059237   5.000101   5.195049   4.484717   3.404453
    20  H    3.909443   5.300535   6.099446   5.753428   4.511965
    21  H    2.877160   4.190184   5.160270   5.111129   4.115832
    22  H    2.775031   4.098997   5.108445   5.098041   4.119962
    23  H    1.088806   2.142452   3.399478   3.866917   3.411154
    24  H    2.144996   1.091779   2.155616   3.390122   3.869477
    25  H    3.413563   2.162417   1.090528   2.164750   3.412393
    26  H    3.870064   3.389584   2.158042   1.091729   2.142301
    27  H    3.407258   3.867267   3.404454   2.146734   1.089616
                   16         17         18         19         20
    16  H    0.000000
    17  H    2.504712   0.000000
    18  H    4.300504   4.969421   0.000000
    19  H    4.970289   4.288634   2.497763   0.000000
    20  H    4.907619   3.188988   5.133904   3.529627   0.000000
    21  H    6.199482   4.406014   5.376628   3.155249   1.784098
    22  H    5.983331   3.733363   6.380038   4.345213   1.775681
    23  H    7.246054   5.036929   6.815799   4.406550   3.565404
    24  H    8.866744   6.732657   8.220130   5.867521   5.936276
    25  H    8.747677   6.994901   8.085841   6.159651   7.176258
    26  H    6.856500   5.617069   6.405890   5.067771   6.650927
    27  H    4.540210   3.377535   4.449798   3.263550   4.657029
                   21         22         23         24         25
    21  H    0.000000
    22  H    1.785551   0.000000
    23  H    2.366321   2.204943   0.000000
    24  H    4.681730   4.567208   2.446972   0.000000
    25  H    6.175775   6.121808   4.297290   2.494007   0.000000
    26  H    6.107988   6.111489   4.958636   4.299199   2.496381
    27  H    4.588299   4.622919   4.322592   4.959018   4.303334
                   26         27
    26  H    0.000000
    27  H    2.454621   0.000000
 Stoichiometry    C13H12ClN
 Framework group  C1[X(C13H12ClN)]
 Deg. of freedom    75
 Full point group                 C1      NOp   1
 Largest Abelian subgroup         C1      NOp   1
 Largest concise Abelian subgroup C1      NOp   1
                         Standard orientation:                         
 ---------------------------------------------------------------------
 Center     Atomic      Atomic             Coordinates (Angstroms)
 Number     Number       Type             X           Y           Z
 ---------------------------------------------------------------------
      1         17           0       -4.647094   -0.751358   -0.117874
      2          6           0       -3.000314   -0.191377   -0.039214
      3          6           0       -2.485697    0.265576    1.172012
      4          6           0       -1.166729    0.707342    1.227989
      5          6           0       -2.213097   -0.208068   -1.189956
      6          6           0       -0.898645    0.240517   -1.121853
      7          6           0       -0.363797    0.702624    0.085451
      8          7           0        0.977910    1.163707    0.160860
      9          6           0        1.214486    2.547602   -0.182962
     10          6           0        2.018996    0.250992    0.091782
     11          6           0        3.332905    0.669321   -0.194128
     12          6           0        4.377903   -0.249941   -0.230497
     13          6           0        4.153569   -1.602929    0.005658
     14          6           0        2.854226   -2.025337    0.284575
     15          6           0        1.800476   -1.121518    0.329120
     16          1           0       -3.114836    0.268564    2.062012
     17          1           0       -0.741293    1.061503    2.167492
     18          1           0       -2.633382   -0.569266   -2.128522
     19          1           0       -0.269197    0.228274   -2.012848
     20          1           0        0.282561    3.110381   -0.051397
     21          1           0        1.553840    2.680772   -1.227106
     22          1           0        1.972566    2.992063    0.480512
     23          1           0        3.547428    1.718472   -0.391007
     24          1           0        5.386001    0.104964   -0.453572
     25          1           0        4.976322   -2.317943   -0.027246
     26          1           0        2.653167   -3.081408    0.474741
     27          1           0        0.796364   -1.478069    0.556924
 ---------------------------------------------------------------------
 Rotational constants (GHZ):           1.3568612           0.2527718           0.2309527
 Standard basis: def2SVP (5D, 7F)
 There are   289 symmetry adapted cartesian basis functions of A   symmetry.
 There are   274 symmetry adapted basis functions of A   symmetry.
   274 basis functions,   471 primitive gaussians,   289 cartesian basis functions
    57 alpha electrons       57 beta electrons
       nuclear repulsion energy       992.0834400639 Hartrees.
 NAtoms=   27 NActive=   27 NUniq=   27 SFac= 1.00D+00 NAtFMM=   60 NAOKFM=F Big=F
 Integral buffers will be    131072 words long.
 Raffenetti 2 integral format.
 Two-electron integral symmetry is turned on.
 Nuclear repulsion after empirical dispersion term =      992.0654643929 Hartrees.
 One-electron integrals computed using PRISM.
   1 Symmetry operations used in ECPInt.
 ECPInt:  NShTT=    8256 NPrTT=   30622 LenC2=    7757 LenP2D=   20914.
 LDataN:  DoStor=T MaxTD1= 4 Len=   56
 NBasis=   274 RedAO= T EigKep=  2.40D-04  NBF=   274
 NBsUse=   274 1.00D-06 EigRej= -1.00D+00 NBFU=   274
 Initial guess from the checkpoint file:  "prod_5h_2.chk"
 B after Tr=     0.000000   -0.000000    0.000000
         Rot=    0.998443    0.055506    0.005349   -0.001406 Ang=   6.40 deg.
 ExpMin= 1.22D-01 ExpMax= 1.04D+04 ExpMxC= 1.57D+03 IAcc=3 IRadAn=         5 AccDes= 0.00D+00
 Harris functional with IExCor= 4639 and IRadAn=       5 diagonalized for initial guess.
 HarFok:  IExCor= 4639 AccDes= 0.00D+00 IRadAn=         5 IDoV= 1 UseB2=F ITyADJ=14
 ICtDFT=  3500011 ScaDFX=  1.000000  1.000000  1.000000  1.000000
 FoFCou: FMM=F IPFlag=           0 FMFlag=      100000 FMFlg1=           0
         NFxFlg=           0 DoJE=T BraDBF=F KetDBF=T FulRan=T
         wScrn=  0.000000 ICntrl=       500 IOpCl=  0 I1Cent=   200000004 NGrid=           0
         NMat0=    1 NMatS0=      1 NMatT0=    0 NMatD0=    1 NMtDS0=    0 NMtDT0=    0
 Petite list used in FoFCou.
 Requested convergence on RMS density matrix=1.00D-08 within 128 cycles.
[...]
 Alpha virt. eigenvalues --   11.44969  22.19452  22.25529  22.54439  22.68839
 Alpha virt. eigenvalues --   22.70700  22.71510  22.75171  22.83747  22.85130
 Alpha virt. eigenvalues --   22.88515  22.93711  23.28246  23.33872  26.00206
 Alpha virt. eigenvalues --   33.13896
          Condensed to atoms (all electrons):
               1          2          3          4          5          6
     1  Cl  16.869129   0.286618  -0.046859   0.017808  -0.046798   0.017529
     2  C    0.286618   5.018801   0.327493   0.085920   0.303920   0.109023
     3  C   -0.046859   0.327493   5.053114   0.370749   0.075504  -0.113112
     4  C    0.017808   0.085920   0.370749   5.106767  -0.110086   0.058658
     5  C   -0.046798   0.303920   0.075504  -0.110086   5.114250   0.316552
     6  C    0.017529   0.109023  -0.113112   0.058658   0.316552   5.190665
     7  C   -0.004710  -0.139440   0.024509   0.425653   0.043936   0.350680
     8  N   -0.000023  -0.000446   0.006416  -0.041764   0.009886  -0.059045
     9  C   -0.000003  -0.000192   0.001297  -0.008353   0.000329  -0.002586
    10  C   -0.000012   0.000504   0.000735  -0.011876  -0.002726   0.028109
    11  C   -0.000000   0.000084   0.000122   0.000055  -0.000933   0.003385
    12  C    0.000000  -0.000005  -0.000006  -0.000013   0.000087   0.000041
    13  C    0.000000   0.000003   0.000001   0.000050  -0.000021   0.000140
    14  C    0.000000   0.000001  -0.000080   0.000090   0.000055   0.002429
    15  C    0.000004   0.000504  -0.000505   0.005915  -0.002546  -0.002643
    16  H    0.001678  -0.069839   0.447653  -0.056069   0.016870  -0.006683
    17  H   -0.000189   0.008999  -0.033397   0.426015  -0.002417   0.008353
    18  H    0.001703  -0.070363   0.015965  -0.005802   0.446799  -0.054116
    19  H   -0.000200   0.009227  -0.001965   0.008161  -0.041723   0.433234
    20  H   -0.000001  -0.000202  -0.000104  -0.004678   0.000500  -0.000183
    21  H    0.000000   0.000069   0.000181   0.003053  -0.000910   0.004684
    22  H    0.000000  -0.000025  -0.000250  -0.000335   0.000159  -0.001587
    23  H    0.000000  -0.000001   0.000011  -0.000088  -0.000003   0.000317
    24  H    0.000000   0.000000   0.000000   0.000000  -0.000000  -0.000004
    25  H   -0.000000   0.000000  -0.000000   0.000000  -0.000000   0.000002
    26  H   -0.000000  -0.000005   0.000004  -0.000015   0.000017  -0.000071
    27  H   -0.000001   0.000296   0.000030   0.000481  -0.000901  -0.002952
               7          8          9         10         11         12
     1  Cl  -0.004710  -0.000023  -0.000003  -0.000012  -0.000000   0.000000
     2  C   -0.139440  -0.000446  -0.000192   0.000504   0.000084  -0.000005
     3  C    0.024509   0.006416   0.001297   0.000735   0.000122  -0.000006
     4  C    0.425653  -0.041764  -0.008353  -0.011876   0.000055  -0.000013
     5  C    0.043936   0.009886   0.000329  -0.002726  -0.000933   0.000087
     6  C    0.350680  -0.059045  -0.002586   0.028109   0.003385   0.000041
     7  C    5.108925   0.271201  -0.076848  -0.151672  -0.001044   0.000029
     8  N    0.271201   6.420767   0.312158   0.423022  -0.090608   0.002887
     9  C   -0.076848   0.312158   4.931451  -0.076996  -0.006893  -0.002210
    10  C   -0.151672   0.423022  -0.076996   4.956142   0.382758  -0.000098
    11  C   -0.001044  -0.090608  -0.006893   0.382758   5.199843   0.446260
    12  C    0.000029   0.002887  -0.002210  -0.000098   0.446260   4.871122
    13  C    0.000225   0.000298   0.000539  -0.069179   0.013021   0.474860
    14  C   -0.002036   0.002564  -0.000846  -0.016710  -0.068119  -0.002732
    15  C    0.010039  -0.062828   0.012490   0.392289   0.021749  -0.056869
    16  H    0.016352  -0.000136   0.000035  -0.000005  -0.000002   0.000000
    17  H   -0.052687   0.005952  -0.002942   0.000782  -0.000015  -0.000003
    18  H    0.015342  -0.000132   0.000001   0.000124   0.000002   0.000001
    19  H   -0.043713  -0.003866   0.000118   0.000638   0.001303  -0.000061
    20  H   -0.007324  -0.026327   0.406575   0.007200   0.000603   0.000117
    21  H   -0.007110  -0.052325   0.408274  -0.005605   0.007869  -0.001115
    22  H    0.014198  -0.044344   0.413647  -0.005377  -0.004496   0.001578
    23  H   -0.001399  -0.004803   0.005227  -0.058130   0.430719  -0.022410
    24  H    0.000027  -0.000111  -0.000024   0.012932  -0.054454   0.436310
    25  H   -0.000000   0.000019  -0.000000  -0.003601   0.012762  -0.058460
    26  H    0.000084  -0.000156   0.000015   0.013232  -0.003371   0.010714
    27  H    0.001918  -0.003404  -0.000179  -0.048962   0.006874  -0.001780
              13         14         15         16         17         18
     1  Cl   0.000000   0.000000   0.000004   0.001678  -0.000189   0.001703
     2  C    0.000003   0.000001   0.000504  -0.069839   0.008999  -0.070363
     3  C    0.000001  -0.000080  -0.000505   0.447653  -0.033397   0.015965
     4  C    0.000050   0.000090   0.005915  -0.056069   0.426015  -0.005802
     5  C   -0.000021   0.000055  -0.002546   0.016870  -0.002417   0.446799
     6  C    0.000140   0.002429  -0.002643  -0.006683   0.008353  -0.054116
     7  C    0.000225  -0.002036   0.010039   0.016352  -0.052687   0.015342
     8  N    0.000298   0.002564  -0.062828  -0.000136   0.005952  -0.000132
     9  C    0.000539  -0.000846   0.012490   0.000035  -0.002942   0.000001
    10  C   -0.069179  -0.016710   0.392289  -0.000005   0.000782   0.000124
    11  C    0.013021  -0.068119   0.021749  -0.000002  -0.000015   0.000002
    12  C    0.474860  -0.002732  -0.056869   0.000000  -0.000003   0.000001
    13  C    4.938755   0.459758  -0.000994  -0.000000   0.000000  -0.000001
    14  C    0.459758   4.893020   0.472447   0.000000   0.000009  -0.000015
    15  C   -0.000994   0.472447   5.080932   0.000002  -0.000126  -0.000139
    16  H   -0.000000   0.000000   0.000002   0.521332  -0.007103   0.000020
    17  H    0.000000   0.000009  -0.000126  -0.007103   0.505664   0.000029
    18  H   -0.000001  -0.000015  -0.000139   0.000020   0.000029   0.519217
    19  H    0.000016  -0.000045  -0.000338   0.000015  -0.000157  -0.006609
    20  H   -0.000021   0.000065  -0.000518   0.000033  -0.003082   0.000002
    21  H    0.000149  -0.000154  -0.000448  -0.000008   0.000616   0.000001
    22  H   -0.000290   0.000017   0.000970   0.000005  -0.000602  -0.000000
    23  H    0.005510  -0.000404   0.002970  -0.000000   0.000001   0.000000
    24  H   -0.054013   0.009905  -0.002690  -0.000000   0.000000   0.000000
    25  H    0.446062  -0.059109   0.012168   0.000000   0.000000   0.000000
    26  H   -0.056349   0.439784  -0.055422   0.000000  -0.000000   0.000001
    27  H    0.006999  -0.037484   0.432471  -0.000010  -0.000024  -0.000008
              19         20         21         22         23         24
     1  Cl  -0.000200  -0.000001   0.000000   0.000000   0.000000   0.000000
     2  C    0.009227  -0.000202   0.000069  -0.000025  -0.000001   0.000000
     3  C   -0.001965  -0.000104   0.000181  -0.000250   0.000011   0.000000
     4  C    0.008161  -0.004678   0.003053  -0.000335  -0.000088   0.000000
     5  C   -0.041723   0.000500  -0.000910   0.000159  -0.000003  -0.000000
     6  C    0.433234  -0.000183   0.004684  -0.001587   0.000317  -0.000004
     7  C   -0.043713  -0.007324  -0.007110   0.014198  -0.001399   0.000027
     8  N   -0.003866  -0.026327  -0.052325  -0.044344  -0.004803  -0.000111
     9  C    0.000118   0.406575   0.408274   0.413647   0.005227  -0.000024
    10  C    0.000638   0.007200  -0.005605  -0.005377  -0.058130   0.012932
    11  C    0.001303   0.000603   0.007869  -0.004496   0.430719  -0.054454
    12  C   -0.000061   0.000117  -0.001115   0.001578  -0.022410   0.436310
    13  C    0.000016  -0.000021   0.000149  -0.000290   0.005510  -0.054013
    14  C   -0.000045   0.000065  -0.000154   0.000017  -0.000404   0.009905
    15  C   -0.000338  -0.000518  -0.000448   0.000970   0.002970  -0.002690
    16  H    0.000015   0.000033  -0.000008   0.000005  -0.000000  -0.000000
    17  H   -0.000157  -0.003082   0.000616  -0.000602   0.000001   0.000000
    18  H   -0.006609   0.000002   0.000001  -0.000000   0.000000   0.000000
    19  H    0.493393  -0.000175   0.000487  -0.000037   0.000001  -0.000001
    20  H   -0.000175   0.519673  -0.026644  -0.011769   0.000407  -0.000000
    21  H    0.000487  -0.026644   0.585151  -0.047332   0.003242  -0.000003
    22  H   -0.000037  -0.011769  -0.047332   0.550823  -0.007311  -0.000014
    23  H    0.000001   0.000407   0.003242  -0.007311   0.521697  -0.006613
    24  H   -0.000001  -0.000000  -0.000003  -0.000014  -0.006613   0.549582
    25  H    0.000002  -0.000000   0.000001  -0.000000  -0.000144  -0.006892
    26  H   -0.000006  -0.000000  -0.000000   0.000000   0.000037  -0.000171
    27  H   -0.000649  -0.000022   0.000025  -0.000007  -0.000149   0.000031
              25         26         27
     1  Cl  -0.000000  -0.000000  -0.000001
     2  C    0.000000  -0.000005   0.000296
     3  C   -0.000000   0.000004   0.000030
     4  C    0.000000  -0.000015   0.000481
     5  C   -0.000000   0.000017  -0.000901
     6  C    0.000002  -0.000071  -0.002952
     7  C   -0.000000   0.000084   0.001918
     8  N    0.000019  -0.000156  -0.003404
     9  C   -0.000000   0.000015  -0.000179
    10  C   -0.003601   0.013232  -0.048962
    11  C    0.012762  -0.003371   0.006874
    12  C   -0.058460   0.010714  -0.001780
    13  C    0.446062  -0.056349   0.006999
    14  C   -0.059109   0.439784  -0.037484
    15  C    0.012168  -0.055422   0.432471
    16  H    0.000000   0.000000  -0.000010
    17  H    0.000000  -0.000000  -0.000024
    18  H    0.000000   0.000001  -0.000008
    19  H    0.000002  -0.000006  -0.000649
    20  H   -0.000000  -0.000000  -0.000022
    21  H    0.000001  -0.000000   0.000025
    22  H   -0.000000   0.000000  -0.000007
    23  H   -0.000144   0.000037  -0.000149
    24  H   -0.006892  -0.000171   0.000031
    25  H    0.548652  -0.006837  -0.000102
    26  H   -0.006837   0.546917  -0.006968
    27  H   -0.000102  -0.006968   0.506106
 Mulliken charges:
               1
     1  Cl  -0.095674
     2  C    0.129056
     3  C   -0.127509
     4  C   -0.270297
     5  C   -0.119800
     6  C   -0.280818
     7  C    0.204864
     8  N   -0.064850
     9  C   -0.314083
    10  C    0.232478
    11  C   -0.297473
    12  C   -0.098244
    13  C   -0.165516
    14  C   -0.092411
    15  C   -0.258884
    16  H    0.135860
    17  H    0.146326
    18  H    0.137980
    19  H    0.152950
    20  H    0.145876
    21  H    0.127851
    22  H    0.142377
    23  H    0.131318
    24  H    0.116204
    25  H    0.115479
    26  H    0.118568
    27  H    0.148370
 Sum of Mulliken charges =  -0.00000
 Mulliken charges with hydrogens summed into heavy atoms:
               1
     1  Cl  -0.095674
     2  C    0.129056
     3  C    0.008351
     4  C   -0.123971
     5  C    0.018180
     6  C   -0.127868
     7  C    0.204864
     8  N   -0.064850
     9  C    0.102022
    10  C    0.232478
    11  C   -0.166155
    12  C    0.017960
    13  C   -0.050036
    14  C    0.026157
    15  C   -0.110513
 Electronic spatial extent (au):  <R**2>=           4597.6516
 Charge=              0.0000 electrons
 Dipole moment (field-independent basis, Debye):
    X=              1.0277    Y=              1.4554    Z=             -0.1836  Tot=              1.7911
 Quadrupole moment (field-independent basis, Debye-Ang):
   XX=           -100.6102   YY=            -87.7312   ZZ=            -95.0869
   XY=             -0.5277   XZ=             -3.4573   YZ=              1.1864
 Traceless Quadrupole moment (field-independent basis, Debye-Ang):
   XX=             -6.1341   YY=              6.7449   ZZ=             -0.6108
   XY=             -0.5277   XZ=             -3.4573   YZ=              1.1864
 Octapole moment (field-independent basis, Debye-Ang**2):
  XXX=             30.4806  YYY=              6.3007  ZZZ=             -1.8903  XYY=              4.1729
  XXY=              5.1744  XXZ=             -5.0020  XZZ=            -18.9501  YZZ=              1.6104
  YYZ=              4.7664  XYZ=            -14.8784
 Hexadecapole moment (field-independent basis, Debye-Ang**3):
 XXXX=          -4959.8930 YYYY=           -898.1167 ZZZZ=           -317.9069 XXXY=            -22.2088
 XXXZ=            -84.3748 YYYX=             13.8601 YYYZ=             -6.4342 ZZZX=             -6.7337
 ZZZY=             13.6121 XXYY=           -949.0558 XXZZ=           -910.8127 YYZZ=           -198.2227
 XXYZ=             -1.5476 YYXZ=              8.5120 ZZXY=             13.6435
 N-N= 9.899506514423D+02 E-N=-4.367478683475D+03  KE= 1.013776541833D+03
 Breneman (CHELPG) radii used.
 Read replacement radii for each type of atom:
 Atom Element Radius
    1    17    2.00
    2     6    1.50
    3     6    1.50
    4     6    1.50
    5     6    1.50
    6     6    1.50
    7     6    1.50
    8     7    1.70
    9     6    1.50
   10     6    1.50
   11     6    1.50
   12     6    1.50
   13     6    1.50
   14     6    1.50
   15     6    1.50
   16     1    1.45
   17     1    1.45
   18     1    1.45
   19     1    1.45
   20     1    1.45
   21     1    1.45
   22     1    1.45
   23     1    1.45
   24     1    1.45
   25     1    1.45
   26     1    1.45
   27     1    1.45
 Generate Potential Derived Charges using the Breneman model, NDens= 1.
 Grid spacing= 0.300 Box extension= 2.800
 NStep X,Y,Z=   54     40     31   Total possible points=       66960
 Number of Points to Fit=   16889

 **********************************************************************

            Electrostatic Properties Using The SCF Density.

 **********************************************************************

       Atomic Center    1 is at  -4.676837 -0.789524 -0.099549
       Atomic Center    2 is at  -3.027242 -0.229815 -0.051796
       Atomic Center    3 is at  -2.657924  0.755436  0.861027
       Atomic Center    4 is at  -1.335966  1.189482  0.902239
       Atomic Center    5 is at  -2.087203 -0.773221 -0.926359
       Atomic Center    6 is at  -0.774038 -0.316628 -0.892119
       Atomic Center    7 is at  -0.378711  0.666808  0.024741
       Atomic Center    8 is at   0.951968  1.149032  0.053816
       Atomic Center    9 is at   1.172046  2.542105 -0.271970
       Atomic Center   10 is at   2.033659  0.265477  0.061844
       Atomic Center   11 is at   3.291715  0.645588 -0.437506
       Atomic Center   12 is at   4.371666 -0.235574 -0.387580
       Atomic Center   13 is at   4.231917 -1.511299  0.148951
       Atomic Center   14 is at   2.985856 -1.894414  0.649612
       Atomic Center   15 is at   1.904137 -1.024446  0.615867
       Atomic Center   16 is at  -3.399347  1.166690  1.547359
       Atomic Center   17 is at  -1.035725  1.941295  1.635102
       Atomic Center   18 is at  -2.389331 -1.540226 -1.640833
       Atomic Center   19 is at  -0.037000 -0.732195 -1.582012
       Atomic Center   20 is at   0.257032  3.112097 -0.070926
       Atomic Center   21 is at   1.432265  2.693108 -1.336925
       Atomic Center   22 is at   1.980631  2.964852  0.344167
       Atomic Center   23 is at   3.438175  1.631553 -0.877965
       Atomic Center   24 is at   5.336658  0.088100 -0.784878
       Atomic Center   25 is at   5.079715 -2.197796  0.182021
       Atomic Center   26 is at   2.854213 -2.886865  1.087191
       Atomic Center   27 is at   0.945696 -1.338915  1.031607
   16889 points will be used for fitting atomic charges
 Fitting point charges to electrostatic potential
 Charges from ESP fit, RMS=   0.00399 RRMS=   0.40615:
 ESP charges:
               1
     1  Cl  -0.134147
     2  C    0.055394
     3  C   -0.051572
     4  C   -0.242844
     5  C   -0.093327
     6  C   -0.144757
     7  C    0.335052
     8  N   -0.432590
     9  C    0.057109
    10  C    0.392808
    11  C   -0.266718
    12  C   -0.050744
    13  C   -0.187286
    14  C   -0.032983
    15  C   -0.241019
    16  H    0.100155
    17  H    0.145553
    18  H    0.113291
    19  H    0.090280
    20  H    0.032715
    21  H    0.020147
    22  H    0.036516
    23  H    0.125148
    24  H    0.092592
    25  H    0.104437
    26  H    0.092458
    27  H    0.084333
 Sum of ESP charges =  -0.00000
 ESP charges with hydrogens summed into heavy atoms:
               1
     1  Cl  -0.134147
     2  C    0.055394
     3  C    0.048583
     4  C   -0.097291
     5  C    0.019963
     6  C   -0.054477
     7  C    0.335052
     8  N   -0.432590
     9  C    0.146487
    10  C    0.392808
    11  C   -0.141570
    12  C    0.041847
    13  C   -0.082849
    14  C    0.059475
    15  C   -0.156686
 Charge=  -0.00000 Dipole=     1.1923     1.5251    -0.1610 Tot=     1.9425
 -----------------------------------------------------------------

              Electrostatic Properties (Atomic Units)

 -----------------------------------------------------------------
    Center     Electric         -------- Electric Field --------
               Potential          X             Y             Z
 -----------------------------------------------------------------
    1 Atom    -64.432120
    2 Atom    -14.702335
    3 Atom    -14.750785
    4 Atom    -14.754359
    5 Atom    -14.751473
    6 Atom    -14.755673
    7 Atom    -14.716256
    8 Atom    -18.353217
    9 Atom    -14.729747
   10 Atom    -14.723075
   11 Atom    -14.773136
   12 Atom    -14.770044
   13 Atom    -14.778908
   14 Atom    -14.770542
   15 Atom    -14.774639
   16 Atom     -1.088205
   17 Atom     -1.089116
   18 Atom     -1.089262
   19 Atom     -1.092330
   20 Atom     -1.098131
   21 Atom     -1.109238
   22 Atom     -1.104801
   23 Atom     -1.104948
   24 Atom     -1.109628
   25 Atom     -1.113155
   26 Atom     -1.110293
   27 Atom     -1.108075
 -----------------------------------------------------------------
 Unable to Open any file for archive entry.
 1\1\GINC-NOTCH212\SP\RwB97XD\def2TZVP\C13H12Cl1N1\U1366379\19-Feb-2026
 \0\\#N Guess=Read Geom=Check Integral(Ultrafine) Density Pop=(ChelpG,R
 eadRadii) NMR wB97XD def2TZVP\\prod_5h_2\\0,1\Cl,0,4.5987819762,-0.661
 107386,-0.2829843617\C,0,2.9431525488,-0.1450326434,-0.1118798714\C,0,
 2.4976168023,0.9851372923,-0.7934771552\C,0,1.170793155,1.3850369939,-
 0.6619979152\C,0,2.0745454436,-0.8678807519,0.704721631\C,0,0.75670867
 ,-0.4469385482,0.8467260648\C,0,0.2849676945,0.6815441636,0.1625852672
 \N,0,-1.0502887613,1.1262210363,0.3157077861\C,0,-1.2638955371,2.42651
 14295,0.9147396544\C,0,-2.1187605265,0.2326033145,0.2127298377\C,0,-3.
 342713711,0.4790545855,0.8590593658\C,0,-4.41246194,-0.4042517337,0.71
 53840301\C,0,-4.2954267372,-1.5515892696,-0.0622975187\C,0,-3.08349420
 5,-1.8010495338,-0.7096725708\C,0,-2.0129951176,-0.9256288156,-0.58409
 52802\H,0,3.1831602366,1.537586448,-1.437464529\H,0,0.8098574293,2.253
 8226614,-1.2164283345\H,0,2.4362443088,-1.7480551515,1.2381236946\H,0,
 0.0758454256,-1.0041812395,1.4930836295\H,0,-0.3726509005,3.0475443012
 ,0.764533714\H,0,-1.4495266285,2.3668196358,2.0040616212\H,0,-2.119457
 7336,2.9371506882,0.4463275487\H,0,-3.469683013,1.3599313623,1.4879602
 513\H,0,-5.3506777402,-0.1863884783,1.231239324\H,0,-5.1348444769,-2.2
 410223476,-0.1680915354\H,0,-2.9710171584,-2.6892179258,-1.3359865033\
 H,0,-1.0827395038,-1.1311400873,-1.1158178448\\Version=ES64L-G16RevC.0
 1\State=1-A\HF=-1017.5704493\RMSD=1.423e-09\Dipole=-0.4052479,0.538053
 8,0.2069991\Quadrupole=-4.911315,5.1850569,-0.2737419,0.6281833,-2.161
 4026,0.0908129\PG=C01 [X(C13H12Cl1N1)]\\@
 The archive entry for this job was punched.


 WOMEN HOLD UP HALF THE SKY. -- MAO TSE TUNG
 Job cpu time:       0 days  1 hours 19 minutes  9.8 seconds.
 Elapsed time:       0 days  0 hours  5 minutes 13.7 seconds.
 File lengths (MBytes):  RWF=    183 Int=      0 D2E=      0 Chk=     30 Scr=      2
 Normal termination of Gaussian 16 at Thu Feb 19 05:31:30 2026.
