 Entering Gaussian System, Link 0=g16
 Input=prod_3e_1.com
 Output=prod_3e_1.log
 Initial command:
 /uufs/chpc.utah.edu/sys/installdir/gaussian16/C01/AVX/g16/l1.exe "/scratch/general/vast/u1366379/GAUSSSCRDIR/11028604-notchpeak.peaks/Gau-584380.inp" -scrdir="/scratch/general/vast/u1366379/GAUSSSCRDIR/11028604-notchpeak.peaks/"
 Entering Link 1 = /uufs/chpc.utah.edu/sys/installdir/gaussian16/C01/AVX/g16/l1.exe PID=    584381.
  
 Copyright (c) 1988-2019, Gaussian, Inc.  All Rights Reserved.
  
 This is part of the Gaussian(R) 16 program.  It is based on
 the Gaussian(R) 09 system (copyright 2009, Gaussian, Inc.),
 the Gaussian(R) 03 system (copyright 2003, Gaussian, Inc.),
 the Gaussian(R) 98 system (copyright 1998, Gaussian, Inc.),
 the Gaussian(R) 94 system (copyright 1995, Gaussian, Inc.),
 the Gaussian 92(TM) system (copyright 1992, Gaussian, Inc.),
 the Gaussian 90(TM) system (copyright 1990, Gaussian, Inc.),
 the Gaussian 88(TM) system (copyright 1988, Gaussian, Inc.),
 the Gaussian 86(TM) system (copyright 1986, Carnegie Mellon
 University), and the Gaussian 82(TM) system (copyright 1983,
 Carnegie Mellon University). Gaussian is a federally registered
 trademark of Gaussian, Inc.
  
 This software contains proprietary and confidential information,
 including trade secrets, belonging to Gaussian, Inc.
  
 This software is provided under written license and may be
 used, copied, transmitted, or stored only in accord with that
 written license.
  
 The following legend is applicable only to US Government
 contracts under FAR:
  
                    RESTRICTED RIGHTS LEGEND
  
 Use, reproduction and disclosure by the US Government is
 subject to restrictions as set forth in subparagraphs (a)
 and (c) of the Commercial Computer Software - Restricted
 Rights clause in FAR 52.227-19.
  
 Gaussian, Inc.
 340 Quinnipiac St., Bldg. 40, Wallingford CT 06492
  
  
 ---------------------------------------------------------------
 Warning -- This program may not be used in any manner that
 competes with the business of Gaussian, Inc. or will provide
 assistance to any competitor of Gaussian, Inc.  The licensee
 of this program is prohibited from giving any competitor of
 Gaussian, Inc. access to this program.  By using this program,
 the user acknowledges that Gaussian, Inc. is engaged in the
 business of creating and licensing software in the field of
 computational chemistry and represents and warrants to the
 licensee that it is not a competitor of Gaussian, Inc. and that
 it will not use this program in any manner prohibited above.
 ---------------------------------------------------------------
  

 Cite this work as:
 Gaussian 16, Revision C.01,
 M. J. Frisch, G. W. Trucks, H. B. Schlegel, G. E. Scuseria, 
 M. A. Robb, J. R. Cheeseman, G. Scalmani, V. Barone, 
 G. A. Petersson, H. Nakatsuji, X. Li, M. Caricato, A. V. Marenich, 
 J. Bloino, B. G. Janesko, R. Gomperts, B. Mennucci, H. P. Hratchian, 
 J. V. Ortiz, A. F. Izmaylov, J. L. Sonnenberg, D. Williams-Young, 
 F. Ding, F. Lipparini, F. Egidi, J. Goings, B. Peng, A. Petrone, 
 T. Henderson, D. Ranasinghe, V. G. Zakrzewski, J. Gao, N. Rega, 
 G. Zheng, W. Liang, M. Hada, M. Ehara, K. Toyota, R. Fukuda, 
 J. Hasegawa, M. Ishida, T. Nakajima, Y. Honda, O. Kitao, H. Nakai, 
 T. Vreven, K. Throssell, J. A. Montgomery, Jr., J. E. Peralta, 
 F. Ogliaro, M. J. Bearpark, J. J. Heyd, E. N. Brothers, K. N. Kudin, 
 V. N. Staroverov, T. A. Keith, R. Kobayashi, J. Normand, 
 K. Raghavachari, A. P. Rendell, J. C. Burant, S. S. Iyengar, 
 J. Tomasi, M. Cossi, J. M. Millam, M. Klene, C. Adamo, R. Cammi, 
 J. W. Ochterski, R. L. Martin, K. Morokuma, O. Farkas, 
 J. B. Foresman, and D. J. Fox, Gaussian, Inc., Wallingford CT, 2019.
 
 ******************************************
 Gaussian 16:  ES64L-G16RevC.01  3-Jul-2019
                17-Feb-2026 
 ******************************************
 %NProcShared=8
 Will use up to    8 processors via shared memory.
 %Mem=8GB
 %chk=prod_3e_1.chk
 ------------------------------------------------------
 #N OPT FREQ=NORAMAN Integral(Ultrafine) wB97XD def2SVP
 ------------------------------------------------------
 1/18=20,19=15,26=4,38=1/1,3;
 2/9=110,12=2,17=6,18=5,40=1/2;
 3/5=43,7=101,11=2,25=1,30=1,71=1,74=-58,75=-5/1,2,3;
 4//1;
 5/5=2,38=5/2;
 6/7=2,8=2,9=2,10=2,28=1/1;
 7//1,2,3,16;
 1/18=20,19=15,26=4/3(2);
 2/9=110/2;
 99//99;
 2/9=110/2;
 3/5=43,7=101,11=2,25=1,30=1,71=1,74=-58,75=-5/1,2,3;
 4/5=5,16=3,69=1/1;
 5/5=2,38=5/2;
 7//1,2,3,16;
 1/18=20,19=15,26=4/3(-5);
 2/9=110/2;
 6/7=2,8=2,9=2,10=2,19=2,28=1/1;
 99/9=1/99;
 ---------
 prod_3e_1
 ---------
 Symbolic Z-matrix:
 Charge =  0 Multiplicity = 1
 C                     5.2842    0.09329  -0.43866 
 O                     4.28105   0.87515   0.16193 
 C                     2.99553   0.30755   0.13341 
 C                     1.95721   1.03539   0.71646 
 C                     0.66993   0.5553    0.72784 
 C                     2.68702  -0.93049  -0.43314 
 C                     1.39858  -1.41066  -0.42049 
 C                     0.36403  -0.67306   0.1491 
 N                    -0.95989  -1.19138   0.16416 
 C                    -2.1629   -0.47084   0.03096 
 C                    -2.18374   0.83221  -0.4657 
 C                    -3.37155   1.51402  -0.60327 
 C                    -4.56305   0.9088   -0.25294 
 C                    -4.56212  -0.38561   0.23009 
 C                    -3.37638  -1.07127   0.36762 
 H                     5.37161  -0.8618    0.08052 
 H                     5.05239  -0.06292  -1.49282 
 H                     6.23243   0.62609  -0.36038 
 H                     2.19224   1.98496   1.1635 
 H                    -0.11312   1.1141    1.20927 
 H                     3.46476  -1.51812  -0.88555 
 H                     1.17019  -2.36464  -0.86287 
 H                    -1.04552  -2.20101   0.25257 
 H                    -1.2597    1.29153  -0.768 
 H                    -3.37265   2.52038  -0.98908 
 H                    -5.4922    1.44406  -0.36032 
 H                    -5.49183  -0.85962   0.49948 
 H                    -3.37184  -2.07895   0.74497 
 

 GradGradGradGradGradGradGradGradGradGradGradGradGradGradGradGradGradGrad
 Berny optimization.
 Initialization pass.
                           ----------------------------
                           !    Initial Parameters    !
                           ! (Angstroms and Degrees)  !
 --------------------------                            --------------------------
 ! Name  Definition              Value          Derivative Info.                !
 --------------------------------------------------------------------------------
 ! R1    R(1,2)                  1.4065         estimate D2E/DX2                !
 ! R2    R(1,16)                 1.0906         estimate D2E/DX2                !
 ! R3    R(1,17)                 1.0906         estimate D2E/DX2                !
 ! R4    R(1,18)                 1.0905         estimate D2E/DX2                !
 ! R5    R(2,3)                  1.4055         estimate D2E/DX2                !
 ! R6    R(3,4)                  1.3956         estimate D2E/DX2                !
 ! R7    R(3,6)                  1.396          estimate D2E/DX2                !
 ! R8    R(4,5)                  1.3739         estimate D2E/DX2                !
 ! R9    R(4,19)                 1.0755         estimate D2E/DX2                !
 ! R10   R(5,8)                  1.3919         estimate D2E/DX2                !
 ! R11   R(5,20)                 1.0757         estimate D2E/DX2                !
 ! R12   R(6,7)                  1.3751         estimate D2E/DX2                !
 ! R13   R(6,21)                 1.0746         estimate D2E/DX2                !
 ! R14   R(7,8)                  1.3924         estimate D2E/DX2                !
 ! R15   R(7,22)                 1.0761         estimate D2E/DX2                !
 ! R16   R(8,9)                  1.4218         estimate D2E/DX2                !
 ! R17   R(9,10)                 1.4086         estimate D2E/DX2                !
 ! R18   R(9,23)                 1.0171         estimate D2E/DX2                !
 ! R19   R(10,11)                1.3946         estimate D2E/DX2                !
 ! R20   R(10,15)                1.3951         estimate D2E/DX2                !
 ! R21   R(11,12)                1.3765         estimate D2E/DX2                !
 ! R22   R(11,24)                1.0753         estimate D2E/DX2                !
 ! R23   R(12,13)                1.3816         estimate D2E/DX2                !
 ! R24   R(12,25)                1.0778         estimate D2E/DX2                !
 ! R25   R(13,14)                1.3816         estimate D2E/DX2                !
 ! R26   R(13,26)                1.0777         estimate D2E/DX2                !
 ! R27   R(14,15)                1.3766         estimate D2E/DX2                !
 ! R28   R(14,27)                1.0778         estimate D2E/DX2                !
 ! R29   R(15,28)                1.076          estimate D2E/DX2                !
 ! A1    A(2,1,16)             109.9196         estimate D2E/DX2                !
 ! A2    A(2,1,17)             109.9233         estimate D2E/DX2                !
 ! A3    A(2,1,18)             108.5374         estimate D2E/DX2                !
 ! A4    A(16,1,17)            110.5944         estimate D2E/DX2                !
 ! A5    A(16,1,18)            108.9062         estimate D2E/DX2                !
 ! A6    A(17,1,18)            108.917          estimate D2E/DX2                !
 ! A7    A(1,2,3)              114.7817         estimate D2E/DX2                !
 ! A8    A(2,3,4)              117.4754         estimate D2E/DX2                !
 ! A9    A(2,3,6)              124.6445         estimate D2E/DX2                !
 ! A10   A(4,3,6)              117.8799         estimate D2E/DX2                !
 ! A11   A(3,4,5)              121.217          estimate D2E/DX2                !
 ! A12   A(3,4,19)             118.1317         estimate D2E/DX2                !
 ! A13   A(5,4,19)             120.6506         estimate D2E/DX2                !
 ! A14   A(4,5,8)              120.7196         estimate D2E/DX2                !
 ! A15   A(4,5,20)             120.2786         estimate D2E/DX2                !
 ! A16   A(8,5,20)             118.9818         estimate D2E/DX2                !
 ! A17   A(3,6,7)              120.8649         estimate D2E/DX2                !
 ! A18   A(3,6,21)             119.7253         estimate D2E/DX2                !
 ! A19   A(7,6,21)             119.4098         estimate D2E/DX2                !
 ! A20   A(6,7,8)              120.9956         estimate D2E/DX2                !
 ! A21   A(6,7,22)             120.3093         estimate D2E/DX2                !
 ! A22   A(8,7,22)             118.692          estimate D2E/DX2                !
 ! A23   A(5,8,7)              118.3132         estimate D2E/DX2                !
 ! A24   A(5,8,9)              121.4625         estimate D2E/DX2                !
 ! A25   A(7,8,9)              120.2019         estimate D2E/DX2                !
 ! A26   A(8,9,10)             127.4271         estimate D2E/DX2                !
 ! A27   A(8,9,23)             116.1788         estimate D2E/DX2                !
 ! A28   A(10,9,23)            116.365          estimate D2E/DX2                !
 ! A29   A(9,10,11)            121.6258         estimate D2E/DX2                !
 ! A30   A(9,10,15)            119.992          estimate D2E/DX2                !
 ! A31   A(11,10,15)           118.3624         estimate D2E/DX2                !
 ! A32   A(10,11,12)           120.7494         estimate D2E/DX2                !
 ! A33   A(10,11,24)           119.1034         estimate D2E/DX2                !
 ! A34   A(12,11,24)           120.1246         estimate D2E/DX2                !
 ! A35   A(11,12,13)           120.1252         estimate D2E/DX2                !
 ! A36   A(11,12,25)           119.9447         estimate D2E/DX2                !
 ! A37   A(13,12,25)           119.9295         estimate D2E/DX2                !
 ! A38   A(12,13,14)           119.9008         estimate D2E/DX2                !
 ! A39   A(12,13,26)           120.0484         estimate D2E/DX2                !
 ! A40   A(14,13,26)           120.0502         estimate D2E/DX2                !
 ! A41   A(13,14,15)           120.1429         estimate D2E/DX2                !
 ! A42   A(13,14,27)           119.924          estimate D2E/DX2                !
 ! A43   A(15,14,27)           119.933          estimate D2E/DX2                !
 ! A44   A(10,15,14)           120.7127         estimate D2E/DX2                !
 ! A45   A(10,15,28)           118.9466         estimate D2E/DX2                !
 ! A46   A(14,15,28)           120.339          estimate D2E/DX2                !
 ! D1    D(16,1,2,3)           -61.0252         estimate D2E/DX2                !
 ! D2    D(17,1,2,3)            60.9329         estimate D2E/DX2                !
 ! D3    D(18,1,2,3)           179.9614         estimate D2E/DX2                !
 ! D4    D(1,2,3,4)            179.8858         estimate D2E/DX2                !
 ! D5    D(1,2,3,6)              0.0267         estimate D2E/DX2                !
 ! D6    D(2,3,4,5)            179.7792         estimate D2E/DX2                !
 ! D7    D(2,3,4,19)            -0.5136         estimate D2E/DX2                !
 ! D8    D(6,3,4,5)             -0.352          estimate D2E/DX2                !
 ! D9    D(6,3,4,19)           179.3553         estimate D2E/DX2                !
 ! D10   D(2,3,6,7)           -179.8367         estimate D2E/DX2                !
 ! D11   D(2,3,6,21)             0.1767         estimate D2E/DX2                !
 ! D12   D(4,3,6,7)              0.3047         estimate D2E/DX2                !
 ! D13   D(4,3,6,21)          -179.6818         estimate D2E/DX2                !
 ! D14   D(3,4,5,8)             -0.3348         estimate D2E/DX2                !
 ! D15   D(3,4,5,20)           178.0222         estimate D2E/DX2                !
 ! D16   D(19,4,5,8)           179.9653         estimate D2E/DX2                !
 ! D17   D(19,4,5,20)           -1.6777         estimate D2E/DX2                !
 ! D18   D(4,5,8,7)              1.0514         estimate D2E/DX2                !
 ! D19   D(4,5,8,9)            179.3333         estimate D2E/DX2                !
 ! D20   D(20,5,8,7)          -177.3267         estimate D2E/DX2                !
 ! D21   D(20,5,8,9)             0.9553         estimate D2E/DX2                !
 ! D22   D(3,6,7,8)              0.4295         estimate D2E/DX2                !
 ! D23   D(3,6,7,22)           179.7852         estimate D2E/DX2                !
 ! D24   D(21,6,7,8)          -179.5839         estimate D2E/DX2                !
 ! D25   D(21,6,7,22)           -0.2282         estimate D2E/DX2                !
 ! D26   D(6,7,8,5)             -1.1004         estimate D2E/DX2                !
 ! D27   D(6,7,8,9)           -179.4048         estimate D2E/DX2                !
 ! D28   D(22,7,8,5)           179.5337         estimate D2E/DX2                !
 ! D29   D(22,7,8,9)             1.2293         estimate D2E/DX2                !
 ! D30   D(5,8,9,10)            36.9088         estimate D2E/DX2                !
 ! D31   D(5,8,9,23)          -145.1395         estimate D2E/DX2                !
 ! D32   D(7,8,9,10)          -144.8413         estimate D2E/DX2                !
 ! D33   D(7,8,9,23)            33.1104         estimate D2E/DX2                !
 ! D34   D(8,9,10,11)           16.2606         estimate D2E/DX2                !
 ! D35   D(8,9,10,15)         -165.3848         estimate D2E/DX2                !
 ! D36   D(23,9,10,11)        -161.6878         estimate D2E/DX2                !
 ! D37   D(23,9,10,15)          16.6668         estimate D2E/DX2                !
 ! D38   D(9,10,11,12)         179.2177         estimate D2E/DX2                !
 ! D39   D(9,10,11,24)           0.9436         estimate D2E/DX2                !
 ! D40   D(15,10,11,12)          0.8372         estimate D2E/DX2                !
 ! D41   D(15,10,11,24)       -177.437          estimate D2E/DX2                !
 ! D42   D(9,10,15,14)        -179.321          estimate D2E/DX2                !
 ! D43   D(9,10,15,28)           1.1532         estimate D2E/DX2                !
 ! D44   D(11,10,15,14)         -0.9132         estimate D2E/DX2                !
 ! D45   D(11,10,15,28)        179.5611         estimate D2E/DX2                !
 ! D46   D(10,11,12,13)         -0.2307         estimate D2E/DX2                !
 ! D47   D(10,11,12,25)       -179.9615         estimate D2E/DX2                !
 ! D48   D(24,11,12,13)        178.0259         estimate D2E/DX2                !
 ! D49   D(24,11,12,25)         -1.7049         estimate D2E/DX2                !
 ! D50   D(11,12,13,14)         -0.3205         estimate D2E/DX2                !
 ! D51   D(11,12,13,26)        179.9451         estimate D2E/DX2                !
 ! D52   D(25,12,13,14)        179.4103         estimate D2E/DX2                !
 ! D53   D(25,12,13,26)         -0.3241         estimate D2E/DX2                !
 ! D54   D(12,13,14,15)          0.2445         estimate D2E/DX2                !
 ! D55   D(12,13,14,27)       -179.7354         estimate D2E/DX2                !
 ! D56   D(26,13,14,15)        179.979          estimate D2E/DX2                !
 ! D57   D(26,13,14,27)         -0.001          estimate D2E/DX2                !
 ! D58   D(13,14,15,10)          0.3831         estimate D2E/DX2                !
 ! D59   D(13,14,15,28)        179.9022         estimate D2E/DX2                !
 ! D60   D(27,14,15,10)       -179.637          estimate D2E/DX2                !
 ! D61   D(27,14,15,28)         -0.1178         estimate D2E/DX2                !
 --------------------------------------------------------------------------------
 Trust Radius=3.00D-01 FncErr=1.00D-07 GrdErr=1.00D-06 EigMax=2.50D+02 EigMin=1.00D-04
 Number of steps in this run=    146 maximum allowed number of steps=    168.
 GradGradGradGradGradGradGradGradGradGradGradGradGradGradGradGradGradGrad

                          Input orientation:                          
 ---------------------------------------------------------------------
 Center     Atomic      Atomic             Coordinates (Angstroms)
 Number     Number       Type             X           Y           Z
 ---------------------------------------------------------------------
      1          6           0        5.284200    0.093290   -0.438660
      2          8           0        4.281050    0.875150    0.161930
      3          6           0        2.995530    0.307550    0.133410
      4          6           0        1.957210    1.035390    0.716460
      5          6           0        0.669930    0.555300    0.727840
      6          6           0        2.687020   -0.930490   -0.433140
      7          6           0        1.398580   -1.410660   -0.420490
      8          6           0        0.364030   -0.673060    0.149100
      9          7           0       -0.959890   -1.191380    0.164160
     10          6           0       -2.162900   -0.470840    0.030960
     11          6           0       -2.183740    0.832210   -0.465700
     12          6           0       -3.371550    1.514020   -0.603270
     13          6           0       -4.563050    0.908800   -0.252940
     14          6           0       -4.562120   -0.385610    0.230090
     15          6           0       -3.376380   -1.071270    0.367620
     16          1           0        5.371610   -0.861800    0.080520
     17          1           0        5.052390   -0.062920   -1.492820
     18          1           0        6.232430    0.626090   -0.360380
     19          1           0        2.192240    1.984960    1.163500
     20          1           0       -0.113120    1.114100    1.209270
     21          1           0        3.464760   -1.518120   -0.885550
     22          1           0        1.170190   -2.364640   -0.862870
     23          1           0       -1.045520   -2.201010    0.252570
     24          1           0       -1.259700    1.291530   -0.768000
     25          1           0       -3.372650    2.520380   -0.989080
     26          1           0       -5.492200    1.444060   -0.360320
     27          1           0       -5.491830   -0.859620    0.499480
     28          1           0       -3.371840   -2.078950    0.744970
 ---------------------------------------------------------------------
                    Distance matrix (angstroms):
                    1          2          3          4          5
     1  C    0.000000
     2  O    1.406529   0.000000
     3  C    2.368793   1.405541   0.000000
     4  C    3.645644   2.394455   1.395638   0.000000
     5  C    4.781805   3.669161   2.413119   1.373938   0.000000
     6  C    2.791684   2.481003   1.396030   2.391419   2.761177
     7  C    4.166562   3.724617   2.410249   2.754611   2.390521
     8  C    5.014063   4.211907   2.808315   2.403939   1.391899
     9  N    6.403314   5.633649   4.230022   3.711201   2.454575
    10  C    7.483187   6.584325   5.217834   4.440039   3.092496
    11  C    7.504456   6.495327   5.240137   4.311177   3.105584
    12  C    8.773117   7.717252   6.522114   5.510577   4.361715
    13  C    9.882706   8.853889   7.592292   6.593144   5.335820
    14  C    9.880617   8.932850   7.589986   6.690102   5.339233
    15  C    8.775644   7.903613   6.523591   5.745162   4.375856
    16  H    1.090589   2.052546   2.648761   3.957509   4.953079
    17  H    1.090592   2.052593   2.648121   3.958199   4.951715
    18  H    1.090479   2.035368   3.289805   4.427710   5.668390
    19  H    3.963023   2.568647   2.126044   1.075531   2.133344
    20  H    5.734875   4.523577   3.386990   2.129630   1.075732
    21  H    2.471177   2.737021   2.142785   3.370394   3.835775
    22  H    4.811076   4.606941   3.386006   3.830651   3.362539
    23  H    6.768084   6.151693   4.757852   4.439129   3.281142
    24  H    6.660846   5.633654   4.459567   3.552146   2.550107
    25  H    9.007485   7.912694   6.834495   5.789773   4.811632
    26  H   10.861009   9.803715   8.577703   7.537916   6.320272
    27  H   10.858682   9.931392   8.575055   7.689365   6.326250
    28  H    9.002590   8.223951   6.827356   6.172414   4.824466
                    6          7          8          9         10
     6  C    0.000000
     7  C    1.375064   0.000000
     8  C    2.408642   1.392401   0.000000
     9  N    3.704697   2.439730   1.421846   0.000000
    10  C    4.893709   3.710958   2.537760   1.408600   0.000000
    11  C    5.180007   4.226763   3.022408   2.447335   1.394649
    12  C    6.535353   5.598330   4.393625   3.704624   2.408890
    13  C    7.481910   6.399141   5.190379   4.191359   2.782935
    14  C    7.299781   6.083085   4.935194   3.691839   2.408978
    15  C    6.117667   4.851448   3.767889   2.428013   1.395131
    16  H    2.734152   4.041933   5.011605   6.340624   7.544809
    17  H    2.733235   4.039384   5.004887   6.337706   7.385710
    18  H    3.872747   5.245767   6.032038   7.436922   8.475728
    19  H    3.360642   3.830033   3.381779   4.585165   5.126485
    20  H    3.836488   3.363892   2.132035   2.669178   2.846410
    21  H    1.074646   2.120596   3.376263   4.559186   5.797184
    22  H    2.131250   1.076076   2.129653   2.639805   3.936356
    23  H    4.002034   2.655426   2.081386   1.017104   2.071506
    24  H    4.541597   3.806448   2.708724   2.669017   2.135429
    25  H    6.995511   6.208140   5.045423   4.574772   3.383988
    26  H    8.517243   7.458947   6.247971   5.269009   3.860593
    27  H    8.232156   6.973359   5.869299   4.556422   3.384145
    28  H    6.278271   4.955988   4.035878   2.634886   2.134798
                   11         12         13         14         15
    11  C    0.000000
    12  C    1.376475   0.000000
    13  C    2.390031   1.381555   0.000000
    14  C    2.761141   2.391765   1.381599   0.000000
    15  C    2.395840   2.761589   2.390389   1.376599   0.000000
    16  H    7.762174   9.085975  10.096717   9.946262   8.755206
    17  H    7.363274   8.616310   9.743625   9.772991   8.690349
    18  H    8.419352   9.647997  10.799716  10.857923   9.784694
    19  H    4.809608   5.856537   6.985583   7.218880   6.401835
    20  H    2.678144   3.750014   4.688505   4.795990   4.016601
    21  H    6.132363   7.483895   8.410462   8.182789   6.969312
    22  H    4.650424   5.978194   6.630043   6.162021   4.884487
    23  H    3.318415   4.465907   4.722232   3.957608   2.592770
    24  H    1.075272   2.129917   3.365099   3.836008   3.369390
    25  H    2.130106   1.077781   2.134513   3.368381   3.839349
    26  H    3.366210   2.135667   1.077661   2.135726   3.366523
    27  H    3.838922   3.368354   2.134497   1.077783   2.130097
    28  H    3.369296   3.837601   3.367708   2.132901   1.076026
                   16         17         18         19         20
    16  H    0.000000
    17  H    1.793184   0.000000
    18  H    1.774604   1.774725   0.000000
    19  H    4.402872   4.407982   4.526795   0.000000
    20  H    5.938057   5.947198   6.554995   2.464787   0.000000
    21  H    2.236096   2.237622   3.540259   4.253173   4.911016
    22  H    4.560750   4.556998   5.901122   4.906096   4.247621
    23  H    6.557640   6.693454   7.831779   5.369844   3.574157
    24  H    7.023609   6.496336   7.532661   4.015897   2.292537
    25  H    9.436380   8.826579   9.810258   5.990682   4.175512
    26  H   11.114571  10.711766  11.753128   7.852720   5.613109
    27  H   10.871516  10.760324  11.849260   8.220553   5.773205
    28  H    8.852732   8.946493  10.038976   6.902863   4.585891
                   21         22         23         24         25
    21  H    0.000000
    22  H    2.445846   0.000000
    23  H    4.701519   2.486031   0.000000
    24  H    5.498043   4.391007   3.644897   0.000000
    25  H    7.941686   6.672087   5.408212   2.454283   0.000000
    26  H    9.448678   7.690656   5.782312   4.254824   2.458922
    27  H    9.086938   6.964452   4.650803   4.913744   4.258067
    28  H    7.050690   4.826676   2.380992   4.255626   4.915360
                   26         27         28
    26  H    0.000000
    27  H    2.458902   0.000000
    28  H    4.257839   2.457924   0.000000
 Stoichiometry    C13H13NO
 Framework group  C1[X(C13H13NO)]
 Deg. of freedom    78
 Full point group                 C1      NOp   1
 Largest Abelian subgroup         C1      NOp   1
 Largest concise Abelian subgroup C1      NOp   1
                         Standard orientation:                         
 ---------------------------------------------------------------------
 Center     Atomic      Atomic             Coordinates (Angstroms)
 Number     Number       Type             X           Y           Z
 ---------------------------------------------------------------------
      1          6           0        5.269783   -0.120555    0.405619
      2          8           0        4.260346   -0.898812   -0.189086
      3          6           0        2.977503   -0.325471   -0.155312
      4          6           0        1.933219   -1.049528   -0.732390
      5          6           0        0.648040   -0.563746   -0.738380
      6          6           0        2.677169    0.914735    0.410894
      7          6           0        1.390824    1.400600    0.403639
      8          6           0        0.350330    0.666786   -0.159982
      9          7           0       -0.971336    1.190956   -0.169535
     10          6           0       -2.176883    0.475954   -0.029603
     11          6           0       -2.201147   -0.826280    0.469040
     12          6           0       -3.391302   -1.502613    0.613213
     13          6           0       -4.581753   -0.892612    0.267643
     14          6           0       -4.577373    0.401089   -0.217263
     15          6           0       -3.389271    1.081282   -0.361393
     16          1           0        5.358966    0.833395   -0.115353
     17          1           0        5.043661    0.038190    1.460636
     18          1           0        6.215261   -0.657670    0.323630
     19          1           0        2.161919   -2.000770   -1.179158
     20          1           0       -0.139749   -1.119752   -1.215291
     21          1           0        3.459639    1.499553    0.858769
     22          1           0        1.168761    2.356216    0.845710
     23          1           0       -1.052908    2.200828   -0.259003
     24          1           0       -1.277730   -1.289264    0.767633
     25          1           0       -3.395036   -2.508406    1.000483
     26          1           0       -5.512748   -1.423588    0.380191
     27          1           0       -5.506238    0.878836   -0.482942
     28          1           0       -3.382051    2.088392   -0.740221
 ---------------------------------------------------------------------
 Rotational constants (GHZ):           2.2174865           0.2481512           0.2313136
 Standard basis: def2SVP (5D, 7F)
 There are   290 symmetry adapted cartesian basis functions of A   symmetry.
 There are   275 symmetry adapted basis functions of A   symmetry.
   275 basis functions,   466 primitive gaussians,   290 cartesian basis functions
    53 alpha electrons       53 beta electrons
       nuclear repulsion energy       891.0363610771 Hartrees.
 NAtoms=   28 NActive=   28 NUniq=   28 SFac= 1.00D+00 NAtFMM=   60 NAOKFM=F Big=F
 Integral buffers will be    131072 words long.
 Raffenetti 2 integral format.
 Two-electron integral symmetry is turned on.
 Nuclear repulsion after empirical dispersion term =      891.0199556515 Hartrees.
 One-electron integrals computed using PRISM.
   1 Symmetry operations used in ECPInt.
 ECPInt:  NShTT=    8385 NPrTT=   30369 LenC2=    7630 LenP2D=   20093.
 LDataN:  DoStor=T MaxTD1= 4 Len=   56
 NBasis=   275 RedAO= T EigKep=  2.18D-04  NBF=   275
 NBsUse=   275 1.00D-06 EigRej= -1.00D+00 NBFU=   275
 ExpMin= 1.22D-01 ExpMax= 2.27D+03 ExpMxC= 3.41D+02 IAcc=3 IRadAn=         5 AccDes= 0.00D+00
 Harris functional with IExCor= 4639 and IRadAn=       5 diagonalized for initial guess.
 HarFok:  IExCor= 4639 AccDes= 0.00D+00 IRadAn=         5 IDoV= 1 UseB2=F ITyADJ=14
 ICtDFT=  3500011 ScaDFX=  1.000000  1.000000  1.000000  1.000000
 FoFCou: FMM=F IPFlag=           0 FMFlag=      100000 FMFlg1=           0
         NFxFlg=           0 DoJE=T BraDBF=F KetDBF=T FulRan=T
         wScrn=  0.000000 ICntrl=       500 IOpCl=  0 I1Cent=   200000004 NGrid=           0
         NMat0=    1 NMatS0=      1 NMatT0=    0 NMatD0=    1 NMtDS0=    0 NMtDT0=    0
 Petite list used in FoFCou.
 Requested convergence on RMS density matrix=1.00D-08 within 128 cycles.
 Requested convergence on MAX density matrix=1.00D-06.
 Requested convergence on             energy=1.00D-06.
 No special actions if energy rises.
 Integral accuracy reduced to 1.0D-05 until final iterations.
 Initial convergence to 1.0D-05 achieved.  Increase integral accuracy.
 SCF Done:  E(RwB97XD) =  -632.506647654     A.U. after   15 cycles
            NFock= 15  Conv=0.63D-08     -V/T= 2.0103

 **********************************************************************

            Population analysis using the SCF Density.

 **********************************************************************

 Orbital symmetries:
       Occupied  (A) (A) (A) (A) (A) (A) (A) (A) (A) (A) (A) (A)
                 (A) (A) (A) (A) (A) (A) (A) (A) (A) (A) (A) (A)
                 (A) (A) (A) (A) (A) (A) (A) (A) (A) (A) (A) (A)
                 (A) (A) (A) (A) (A) (A) (A) (A) (A) (A) (A) (A)
                 (A) (A) (A) (A) (A)
       Virtual   (A) (A) (A) (A) (A) (A) (A) (A) (A) (A) (A) (A)
                 (A) (A) (A) (A) (A) (A) (A) (A) (A) (A) (A) (A)
                 (A) (A) (A) (A) (A) (A) (A) (A) (A) (A) (A) (A)
                 (A) (A) (A) (A) (A) (A) (A) (A) (A) (A) (A) (A)
                 (A) (A) (A) (A) (A) (A) (A) (A) (A) (A) (A) (A)
                 (A) (A) (A) (A) (A) (A) (A) (A) (A) (A) (A) (A)
                 (A) (A) (A) (A) (A) (A) (A) (A) (A) (A) (A) (A)
                 (A) (A) (A) (A) (A) (A) (A) (A) (A) (A) (A) (A)
                 (A) (A) (A) (A) (A) (A) (A) (A) (A) (A) (A) (A)
                 (A) (A) (A) (A) (A) (A) (A) (A) (A) (A) (A) (A)
                 (A) (A) (A) (A) (A) (A) (A) (A) (A) (A) (A) (A)
                 (A) (A) (A) (A) (A) (A) (A) (A) (A) (A) (A) (A)
                 (A) (A) (A) (A) (A) (A) (A) (A) (A) (A) (A) (A)
                 (A) (A) (A) (A) (A) (A) (A) (A) (A) (A) (A) (A)
                 (A) (A) (A) (A) (A) (A) (A) (A) (A) (A) (A) (A)
                 (A) (A) (A) (A) (A) (A) (A) (A) (A) (A) (A) (A)
                 (A) (A) (A) (A) (A) (A) (A) (A) (A) (A) (A) (A)
                 (A) (A) (A) (A) (A) (A) (A) (A) (A) (A) (A) (A)
                 (A) (A) (A) (A) (A) (A)
 The electronic state is 1-A.
 Alpha  occ. eigenvalues --  -19.28221 -14.46465 -10.35670 -10.34792 -10.34191
 Alpha  occ. eigenvalues --  -10.33969 -10.30223 -10.30167 -10.29884 -10.29763
 Alpha  occ. eigenvalues --  -10.29517 -10.29407 -10.29156 -10.28779 -10.28430
 Alpha  occ. eigenvalues --   -1.14514  -1.03505  -0.95743  -0.93538  -0.85535
 Alpha  occ. eigenvalues --   -0.84852  -0.83802  -0.81745  -0.77847  -0.71923
 Alpha  occ. eigenvalues --   -0.70285  -0.69449  -0.67165  -0.63186  -0.62227
 Alpha  occ. eigenvalues --   -0.60096  -0.57719  -0.56242  -0.55879  -0.54022
 Alpha  occ. eigenvalues --   -0.52882  -0.52054  -0.51553  -0.50757  -0.50558
 Alpha  occ. eigenvalues --   -0.48439  -0.48124  -0.46764  -0.44720  -0.43685
 Alpha  occ. eigenvalues --   -0.42284  -0.42138  -0.40991  -0.38430  -0.34006
 Alpha  occ. eigenvalues --   -0.33116  -0.31569  -0.25874
 Alpha virt. eigenvalues --    0.05797   0.06008   0.06870   0.09937   0.14062
 Alpha virt. eigenvalues --    0.14900   0.15469   0.16294   0.18950   0.19446
 Alpha virt. eigenvalues --    0.20486   0.20832   0.21234   0.21764   0.23101
 Alpha virt. eigenvalues --    0.23633   0.23850   0.24883   0.25736   0.26689
 Alpha virt. eigenvalues --    0.30157   0.31131   0.34142   0.35617   0.37892
 Alpha virt. eigenvalues --    0.38191   0.38303   0.39352   0.39731   0.41183
 Alpha virt. eigenvalues --    0.41404   0.44105   0.45076   0.47086   0.49110
 Alpha virt. eigenvalues --    0.49306   0.50307   0.51068   0.53189   0.53897
 Alpha virt. eigenvalues --    0.54348   0.55907   0.56418   0.56996   0.57109
 Alpha virt. eigenvalues --    0.58595   0.58781   0.59231   0.60587   0.60998
 Alpha virt. eigenvalues --    0.62009   0.62883   0.64053   0.65491   0.66214
 Alpha virt. eigenvalues --    0.67747   0.69097   0.69457   0.71384   0.71723
 Alpha virt. eigenvalues --    0.72755   0.73710   0.74109   0.74476   0.75473
 Alpha virt. eigenvalues --    0.75796   0.76524   0.76950   0.77115   0.78795
 Alpha virt. eigenvalues --    0.79270   0.79510   0.81187   0.81457   0.82027
 Alpha virt. eigenvalues --    0.82619   0.83836   0.85018   0.85262   0.85833
 Alpha virt. eigenvalues --    0.88051   0.90183   0.91981   0.92642   0.92875
 Alpha virt. eigenvalues --    0.94303   0.96482   1.00338   1.01530   1.03549
 Alpha virt. eigenvalues --    1.05262   1.09719   1.09929   1.13282   1.15978
 Alpha virt. eigenvalues --    1.18573   1.19296   1.20932   1.24116   1.26843
 Alpha virt. eigenvalues --    1.29561   1.30620   1.31866   1.32853   1.34043
 Alpha virt. eigenvalues --    1.34113   1.34940   1.35509   1.36906   1.38170
 Alpha virt. eigenvalues --    1.38987   1.40043   1.40876   1.42162   1.44737
 Alpha virt. eigenvalues --    1.52165   1.54875   1.56291   1.60135   1.60719
 Alpha virt. eigenvalues --    1.61349   1.69970   1.73018   1.75315   1.75920
 Alpha virt. eigenvalues --    1.77302   1.77854   1.78353   1.78608   1.81274
 Alpha virt. eigenvalues --    1.82383   1.83143   1.83624   1.84223   1.84702
 Alpha virt. eigenvalues --    1.85600   1.86684   1.87087   1.87621   1.88380
 Alpha virt. eigenvalues --    1.89308   1.89527   1.92163   1.92745   1.93374
 Alpha virt. eigenvalues --    1.95125   1.95852   1.98354   1.98504   1.99910
 Alpha virt. eigenvalues --    2.01638   2.04869   2.05217   2.05762   2.08039
 Alpha virt. eigenvalues --    2.09012   2.10797   2.13081   2.16443   2.17563
 Alpha virt. eigenvalues --    2.18952   2.20702   2.22110   2.23872   2.24245
 Alpha virt. eigenvalues --    2.24588   2.25227   2.26878   2.28470   2.30288
 Alpha virt. eigenvalues --    2.31473   2.33450   2.35462   2.37636   2.40100
 Alpha virt. eigenvalues --    2.41259   2.41526   2.41798   2.43699   2.45085
 Alpha virt. eigenvalues --    2.45978   2.46394   2.49836   2.50022   2.53192
 Alpha virt. eigenvalues --    2.59962   2.66167   2.68901   2.70806   2.71964
 Alpha virt. eigenvalues --    2.72997   2.73393   2.75217   2.77702   2.78516
 Alpha virt. eigenvalues --    2.82026   2.85013   2.85526   2.86231   2.87106
 Alpha virt. eigenvalues --    2.90073   2.92748   2.96992   2.97766   2.98049
 Alpha virt. eigenvalues --    3.01104   3.01793   3.02768   3.02978   3.12745
 Alpha virt. eigenvalues --    3.14533   3.15750   3.22184   3.23729   3.28317
 Alpha virt. eigenvalues --    3.30631   3.38109   3.46209   3.54203   3.59398
 Alpha virt. eigenvalues --    3.80693   3.82534
          Condensed to atoms (all electrons):
               1          2          3          4          5          6
     1  C    4.393230   0.302979  -0.058425   0.006195  -0.000231   0.000599
     2  O    0.302979   7.918612   0.381974  -0.067376   0.003464  -0.080748
     3  C   -0.058425   0.381974   5.059714   0.286876   0.110097   0.179009
     4  C    0.006195  -0.067376   0.286876   5.097885   0.287106   0.050478
     5  C   -0.000231   0.003464   0.110097   0.287106   5.163495  -0.139025
     6  C    0.000599  -0.080748   0.179009   0.050478  -0.139025   5.318287
     7  C    0.001198   0.004531   0.111614  -0.127958   0.061281   0.236039
     8  C    0.000032  -0.000002  -0.177185   0.121402   0.227833   0.111444
     9  N   -0.000000   0.000000   0.000023   0.006884  -0.071233   0.008513
    10  C   -0.000000  -0.000000   0.000042   0.000373  -0.011893  -0.000287
    11  C    0.000000   0.000000  -0.000025  -0.000948  -0.003767   0.000061
    12  C    0.000000   0.000000   0.000001  -0.000015  -0.000120   0.000000
    13  C   -0.000000   0.000000  -0.000000   0.000000  -0.000040  -0.000000
    14  C    0.000000  -0.000000  -0.000000   0.000001   0.000055   0.000000
    15  C   -0.000000   0.000000   0.000000   0.000003  -0.000238  -0.000007
    16  H    0.402257  -0.031363  -0.009893  -0.000212  -0.000002   0.006424
    17  H    0.402816  -0.031333  -0.008818  -0.000131   0.000055   0.005768
    18  H    0.397861  -0.020734   0.005221  -0.000079   0.000008   0.000218
    19  H   -0.000206   0.001587  -0.070693   0.447229  -0.071706   0.019848
    20  H    0.000007  -0.000055   0.015717  -0.068266   0.467277  -0.002939
    21  H    0.008795  -0.008081  -0.091929   0.012793  -0.002087   0.459090
    22  H   -0.000023  -0.000059   0.015772  -0.003057   0.017762  -0.059936
    23  H    0.000000  -0.000000  -0.000055  -0.000141   0.007338   0.000534
    24  H   -0.000000   0.000000  -0.000127   0.000631   0.002815   0.000020
    25  H    0.000000   0.000000   0.000000  -0.000002   0.000033  -0.000000
    26  H    0.000000   0.000000   0.000000  -0.000000   0.000000  -0.000000
    27  H    0.000000   0.000000   0.000000  -0.000000  -0.000000   0.000000
    28  H   -0.000000   0.000000   0.000000  -0.000000  -0.000014  -0.000001
               7          8          9         10         11         12
     1  C    0.001198   0.000032  -0.000000  -0.000000   0.000000   0.000000
     2  O    0.004531  -0.000002   0.000000  -0.000000   0.000000   0.000000
     3  C    0.111614  -0.177185   0.000023   0.000042  -0.000025   0.000001
     4  C   -0.127958   0.121402   0.006884   0.000373  -0.000948  -0.000015
     5  C    0.061281   0.227833  -0.071233  -0.011893  -0.003767  -0.000120
     6  C    0.236039   0.111444   0.008513  -0.000287   0.000061   0.000000
     7  C    5.151398   0.272130  -0.074630   0.006643   0.000341  -0.000003
     8  C    0.272130   5.162796   0.321703  -0.038374  -0.008081   0.000176
     9  N   -0.074630   0.321703   6.470734   0.370757  -0.084088   0.007344
    10  C    0.006643  -0.038374   0.370757   5.060679   0.247198   0.118172
    11  C    0.000341  -0.008081  -0.084088   0.247198   5.215661   0.294922
    12  C   -0.000003   0.000176   0.007344   0.118172   0.294922   5.018101
    13  C    0.000000   0.000046  -0.000336  -0.161015   0.078939   0.287958
    14  C   -0.000007  -0.000304   0.007320   0.116371  -0.144490   0.094684
    15  C   -0.000126   0.008041  -0.089296   0.267900   0.054585  -0.146319
    16  H    0.000770  -0.000071   0.000000  -0.000000   0.000000   0.000000
    17  H    0.000442  -0.000110   0.000000   0.000000  -0.000000  -0.000000
    18  H   -0.000033   0.000004  -0.000000   0.000000  -0.000000  -0.000000
    19  H   -0.003044   0.015794  -0.000102  -0.000017   0.000031  -0.000001
    20  H    0.015961  -0.076517  -0.010298   0.003203   0.002683   0.000728
    21  H   -0.057145   0.016746  -0.000147   0.000004  -0.000000  -0.000000
    22  H    0.452565  -0.082846  -0.007678  -0.000072  -0.000008   0.000001
    23  H   -0.013609  -0.024562   0.362986  -0.016651   0.009411  -0.000142
    24  H   -0.000700   0.005096  -0.012455  -0.072847   0.459897  -0.065180
    25  H    0.000001  -0.000015  -0.000108   0.015248  -0.068547   0.453715
    26  H    0.000000  -0.000000   0.000010  -0.001593   0.015045  -0.069911
    27  H   -0.000000   0.000005  -0.000110   0.015220  -0.001874   0.014029
    28  H    0.000003  -0.000046  -0.011100  -0.079612   0.017179  -0.002497
              13         14         15         16         17         18
     1  C   -0.000000   0.000000  -0.000000   0.402257   0.402816   0.397861
     2  O    0.000000  -0.000000   0.000000  -0.031363  -0.031333  -0.020734
     3  C   -0.000000  -0.000000   0.000000  -0.009893  -0.008818   0.005221
     4  C    0.000000   0.000001   0.000003  -0.000212  -0.000131  -0.000079
     5  C   -0.000040   0.000055  -0.000238  -0.000002   0.000055   0.000008
     6  C   -0.000000   0.000000  -0.000007   0.006424   0.005768   0.000218
     7  C    0.000000  -0.000007  -0.000126   0.000770   0.000442  -0.000033
     8  C    0.000046  -0.000304   0.008041  -0.000071  -0.000110   0.000004
     9  N   -0.000336   0.007320  -0.089296   0.000000   0.000000  -0.000000
    10  C   -0.161015   0.116371   0.267900  -0.000000   0.000000   0.000000
    11  C    0.078939  -0.144490   0.054585   0.000000  -0.000000  -0.000000
    12  C    0.287958   0.094684  -0.146319   0.000000  -0.000000  -0.000000
    13  C    5.105043   0.289874   0.079870  -0.000000   0.000000   0.000000
    14  C    0.289874   5.008539   0.302839   0.000000  -0.000000   0.000000
    15  C    0.079870   0.302839   5.192342   0.000000  -0.000000  -0.000000
    16  H   -0.000000   0.000000   0.000000   0.665667  -0.044576  -0.023496
    17  H    0.000000  -0.000000  -0.000000  -0.044576   0.665037  -0.023473
    18  H    0.000000   0.000000  -0.000000  -0.023496  -0.023473   0.611739
    19  H    0.000000  -0.000000  -0.000000   0.000072   0.000092  -0.000097
    20  H   -0.000089   0.000024  -0.000621  -0.000000   0.000000  -0.000000
    21  H   -0.000000   0.000000  -0.000000   0.000896   0.000003  -0.000328
    22  H    0.000000  -0.000001  -0.000052   0.000013   0.000046  -0.000001
    23  H   -0.000051   0.000412  -0.019072   0.000000  -0.000000  -0.000000
    24  H    0.014785  -0.002360   0.015321   0.000000  -0.000000  -0.000000
    25  H   -0.071710   0.014251  -0.001935   0.000000  -0.000000   0.000000
    26  H    0.452856  -0.070796   0.014706   0.000000  -0.000000   0.000000
    27  H   -0.069594   0.451321  -0.068052  -0.000000   0.000000  -0.000000
    28  H    0.015208  -0.062102   0.450051   0.000000  -0.000000   0.000000
              19         20         21         22         23         24
     1  C   -0.000206   0.000007   0.008795  -0.000023   0.000000  -0.000000
     2  O    0.001587  -0.000055  -0.008081  -0.000059  -0.000000   0.000000
     3  C   -0.070693   0.015717  -0.091929   0.015772  -0.000055  -0.000127
     4  C    0.447229  -0.068266   0.012793  -0.003057  -0.000141   0.000631
     5  C   -0.071706   0.467277  -0.002087   0.017762   0.007338   0.002815
     6  C    0.019848  -0.002939   0.459090  -0.059936   0.000534   0.000020
     7  C   -0.003044   0.015961  -0.057145   0.452565  -0.013609  -0.000700
     8  C    0.015794  -0.076517   0.016746  -0.082846  -0.024562   0.005096
     9  N   -0.000102  -0.010298  -0.000147  -0.007678   0.362986  -0.012455
    10  C   -0.000017   0.003203   0.000004  -0.000072  -0.016651  -0.072847
    11  C    0.000031   0.002683  -0.000000  -0.000008   0.009411   0.459897
    12  C   -0.000001   0.000728  -0.000000   0.000001  -0.000142  -0.065180
    13  C    0.000000  -0.000089  -0.000000   0.000000  -0.000051   0.014785
    14  C   -0.000000   0.000024   0.000000  -0.000001   0.000412  -0.002360
    15  C   -0.000000  -0.000621  -0.000000  -0.000052  -0.019072   0.015321
    16  H    0.000072  -0.000000   0.000896   0.000013   0.000000   0.000000
    17  H    0.000092   0.000000   0.000003   0.000046  -0.000000  -0.000000
    18  H   -0.000097  -0.000000  -0.000328  -0.000001  -0.000000  -0.000000
    19  H    0.662106  -0.013234  -0.000222   0.000026   0.000010   0.000063
    20  H   -0.013234   0.652008   0.000012  -0.000237  -0.000152  -0.003637
    21  H   -0.000222   0.000012   0.679169  -0.014754  -0.000011  -0.000002
    22  H    0.000026  -0.000237  -0.014754   0.688024   0.004288  -0.000034
    23  H    0.000010  -0.000152  -0.000011   0.004288   0.548106  -0.000185
    24  H    0.000063  -0.003637  -0.000002  -0.000034  -0.000185   0.661197
    25  H   -0.000000   0.000045   0.000000  -0.000000   0.000011  -0.013093
    26  H    0.000000  -0.000000   0.000000   0.000000  -0.000001  -0.000238
    27  H    0.000000  -0.000001  -0.000000   0.000000  -0.000017   0.000021
    28  H   -0.000000  -0.000005   0.000000  -0.000015   0.006022  -0.000200
              25         26         27         28
     1  C    0.000000   0.000000   0.000000  -0.000000
     2  O    0.000000   0.000000   0.000000   0.000000
     3  C    0.000000   0.000000   0.000000   0.000000
     4  C   -0.000002  -0.000000  -0.000000  -0.000000
     5  C    0.000033   0.000000  -0.000000  -0.000014
     6  C   -0.000000  -0.000000   0.000000  -0.000001
     7  C    0.000001   0.000000  -0.000000   0.000003
     8  C   -0.000015  -0.000000   0.000005  -0.000046
     9  N   -0.000108   0.000010  -0.000110  -0.011100
    10  C    0.015248  -0.001593   0.015220  -0.079612
    11  C   -0.068547   0.015045  -0.001874   0.017179
    12  C    0.453715  -0.069911   0.014029  -0.002497
    13  C   -0.071710   0.452856  -0.069594   0.015208
    14  C    0.014251  -0.070796   0.451321  -0.062102
    15  C   -0.001935   0.014706  -0.068052   0.450051
    16  H    0.000000   0.000000  -0.000000   0.000000
    17  H   -0.000000  -0.000000   0.000000  -0.000000
    18  H    0.000000   0.000000  -0.000000   0.000000
    19  H   -0.000000   0.000000   0.000000  -0.000000
    20  H    0.000045  -0.000000  -0.000001  -0.000005
    21  H    0.000000   0.000000  -0.000000   0.000000
    22  H   -0.000000   0.000000   0.000000  -0.000015
    23  H    0.000011  -0.000001  -0.000017   0.006022
    24  H   -0.013093  -0.000238   0.000021  -0.000200
    25  H    0.674606  -0.012445  -0.000267   0.000025
    26  H   -0.012445   0.680088  -0.012510  -0.000247
    27  H   -0.000267  -0.012510   0.675088  -0.013309
    28  H    0.000025  -0.000247  -0.013309   0.697162
 Mulliken charges:
               1
     1  C    0.142918
     2  O   -0.373396
     3  C    0.251090
     4  C   -0.049669
     5  C   -0.048262
     6  C   -0.113386
     7  C   -0.037661
     8  C    0.144867
     9  N   -0.194693
    10  C    0.160551
    11  C   -0.084124
    12  C   -0.005642
    13  C   -0.021744
    14  C   -0.005630
    15  C   -0.059942
    16  H    0.033516
    17  H    0.034181
    18  H    0.053190
    19  H    0.012466
    20  H    0.018385
    21  H   -0.002802
    22  H   -0.009724
    23  H    0.135534
    24  H    0.011210
    25  H    0.010187
    26  H    0.005036
    27  H    0.010048
    28  H   -0.016502
 Sum of Mulliken charges =  -0.00000
 Mulliken charges with hydrogens summed into heavy atoms:
               1
     1  C    0.263805
     2  O   -0.373396
     3  C    0.251090
     4  C   -0.037203
     5  C   -0.029877
     6  C   -0.116188
     7  C   -0.047384
     8  C    0.144867
     9  N   -0.059159
    10  C    0.160551
    11  C   -0.072914
    12  C    0.004544
    13  C   -0.016709
    14  C    0.004418
    15  C   -0.076444
 Electronic spatial extent (au):  <R**2>=           4583.8175
 Charge=              0.0000 electrons
 Dipole moment (field-independent basis, Debye):
    X=              1.0210    Y=              1.8035    Z=              0.5016  Tot=              2.1323
 Quadrupole moment (field-independent basis, Debye-Ang):
   XX=            -77.2229   YY=            -80.4517   ZZ=            -91.4780
   XY=              3.2385   XZ=              4.9604   YZ=             -0.3435
 Traceless Quadrupole moment (field-independent basis, Debye-Ang):
   XX=              5.8280   YY=              2.5992   ZZ=             -8.4271
   XY=              3.2385   XZ=              4.9604   YZ=             -0.3435
 Octapole moment (field-independent basis, Debye-Ang**2):
  XXX=             69.8396  YYY=              9.7193  ZZZ=             -0.3933  XYY=             -7.0950
  XXY=             19.0527  XXZ=             15.4000  XZZ=             15.3828  YZZ=             -2.4080
  YYZ=              0.8265  XYZ=             10.4828
 Hexadecapole moment (field-independent basis, Debye-Ang**3):
 XXXX=          -4705.9320 YYYY=           -559.3058 ZZZZ=           -221.1216 XXXY=             49.9626
 XXXZ=            119.7084 YYYX=            -16.0062 YYYZ=             -2.7173 ZZZX=              7.9987
 ZZZY=              3.3274 XXYY=           -977.8900 XXZZ=           -973.5055 YYZZ=           -133.2127
 XXYZ=            -31.3612 YYXZ=             -0.9176 ZZXY=             -6.9257
 N-N= 8.910199556515D+02 E-N=-3.249425153232D+03  KE= 6.260630286896D+02
   1 Symmetry operations used in ECPInt.
 ECPInt:  NShTT=    8385 NPrTT=   30369 LenC2=    7630 LenP2D=   20093.
 LDataN:  DoStor=T MaxTD1= 5 Len=  102
 Calling FoFJK, ICntrl=      2127 FMM=F ISym2X=0 I1Cent= 0 IOpClX= 0 NMat=1 NMatS=1 NMatT=0.
 ***** Axes restored to original set *****
 -------------------------------------------------------------------
 Center     Atomic                   Forces (Hartrees/Bohr)
 Number     Number              X              Y              Z
 -------------------------------------------------------------------
      1        6          -0.007345836    0.009514389    0.006263984
      2        8          -0.031019461   -0.016024680   -0.001932340
      3        6           0.023553419    0.012306442    0.000776386
      4        6           0.012542997    0.001932658   -0.002773410
      5        6          -0.001671989   -0.003597622    0.000552560
      6        6           0.016142413    0.008942999    0.003860023
      7        6          -0.014048554    0.002740495    0.002727462
      8        6          -0.021084839   -0.010209175   -0.001443977
      9        7           0.000865568    0.003545414    0.000131958
     10        6           0.020107053   -0.008964654    0.000847781
     11        6           0.006152759   -0.002117710   -0.001157132
     12        6          -0.002835086   -0.000744975    0.001236828
     13        6          -0.007431580    0.004603923   -0.000485684
     14        6          -0.001050324    0.001120638   -0.001613957
     15        6           0.006893402   -0.002978651    0.001535264
     16        1           0.003616277   -0.009243177    0.000939173
     17        1           0.001692991   -0.004223357   -0.008827930
     18        1           0.002457367    0.004471079    0.001761858
     19        1           0.002376892    0.010398763    0.005313073
     20        1          -0.006525331    0.007084622    0.005303209
     21        1           0.006187705   -0.007969157   -0.005122171
     22        1          -0.001008851   -0.010474801   -0.005966541
     23        1           0.000208812    0.006363048   -0.001033125
     24        1           0.008628378    0.005831136   -0.003532075
     25        1           0.000808114    0.009547073   -0.004073611
     26        1          -0.009032785    0.005151760   -0.000838928
     27        1          -0.008595023   -0.005241901    0.002711154
     28        1          -0.000584489   -0.011764580    0.004840168
 -------------------------------------------------------------------
 Cartesian Forces:  Max     0.031019461 RMS     0.008109870

 GradGradGradGradGradGradGradGradGradGradGradGradGradGradGradGradGradGrad
 Berny optimization.
 FormGI is forming the generalized inverse of G from B-inverse, IUseBI=4.
 Internal  Forces:  Max     0.034283991 RMS     0.006383631
 Search for a local minimum.
 Step number   1 out of a maximum of  146
 All quantities printed in internal units (Hartrees-Bohrs-Radians)
 Mixed Optimization -- RFO/linear search
 Second derivative matrix not updated -- first step.
 ITU=  0
     Eigenvalues ---    0.01403   0.01493   0.01578   0.01605   0.01618
     Eigenvalues ---    0.01945   0.01987   0.02060   0.02165   0.02185
     Eigenvalues ---    0.02240   0.02253   0.02266   0.02287   0.02298
     Eigenvalues ---    0.02301   0.02332   0.02334   0.02336   0.02345
     Eigenvalues ---    0.02352   0.02367   0.02372   0.10349   0.10575
     Eigenvalues ---    0.15993   0.15994   0.15995   0.15999   0.15999
     Eigenvalues ---    0.16000   0.16000   0.16000   0.16000   0.16000
     Eigenvalues ---    0.16000   0.16000   0.16000   0.21999   0.22000
     Eigenvalues ---    0.22000   0.22002   0.22953   0.23466   0.23998
     Eigenvalues ---    0.24988   0.24989   0.25000   0.25000   0.34744
     Eigenvalues ---    0.34745   0.34757   0.36263   0.36264   0.36278
     Eigenvalues ---    0.36473   0.36479   0.36515   0.36540   0.36572
     Eigenvalues ---    0.36649   0.42184   0.42676   0.43038   0.43442
     Eigenvalues ---    0.43762   0.44225   0.44555   0.44714   0.44803
     Eigenvalues ---    0.46630   0.46655   0.47320   0.47882   0.48369
     Eigenvalues ---    0.49046   0.49741   0.50126
 RFO step:  Lambda=-1.46400044D-02 EMin= 1.40279716D-02
 Linear search not attempted -- first point.
 Iteration  1 RMS(Cart)=  0.07701899 RMS(Int)=  0.00177080
 Iteration  2 RMS(Cart)=  0.00358274 RMS(Int)=  0.00015434
 Iteration  3 RMS(Cart)=  0.00001092 RMS(Int)=  0.00015424
 Iteration  4 RMS(Cart)=  0.00000000 RMS(Int)=  0.00015424
 Variable       Old X    -DE/DX   Delta X   Delta X   Delta X     New X
                                 (Linear)    (Quad)   (Total)
    R1        2.65795  -0.00005   0.00000  -0.00010  -0.00010   2.65785
    R2        2.06092   0.00883   0.00000   0.02439   0.02439   2.08531
    R3        2.06092   0.00878   0.00000   0.02424   0.02424   2.08516
    R4        2.06071   0.00445   0.00000   0.01228   0.01228   2.07299
    R5        2.65609  -0.03428   0.00000  -0.07424  -0.07424   2.58184
    R6        2.63737   0.00209   0.00000   0.00382   0.00384   2.64121
    R7        2.63811   0.00225   0.00000   0.00430   0.00432   2.64243
    R8        2.59637   0.01347   0.00000   0.02593   0.02593   2.62230
    R9        2.03246   0.01191   0.00000   0.03134   0.03134   2.06380
   R10        2.63031   0.01188   0.00000   0.02492   0.02491   2.65522
   R11        2.03284   0.01080   0.00000   0.02845   0.02845   2.06129
   R12        2.59849   0.01836   0.00000   0.03579   0.03579   2.63429
   R13        2.03079   0.01099   0.00000   0.02884   0.02884   2.05963
   R14        2.63126   0.00558   0.00000   0.01208   0.01206   2.64332
   R15        2.03349   0.01195   0.00000   0.03151   0.03151   2.06500
   R16        2.68690  -0.01476   0.00000  -0.03382  -0.03382   2.65308
   R17        2.66187  -0.01395   0.00000  -0.03053  -0.03053   2.63134
   R18        1.92205  -0.00642   0.00000  -0.01388  -0.01388   1.90817
   R19        2.63550   0.01110   0.00000   0.02286   0.02285   2.65836
   R20        2.63642   0.00933   0.00000   0.01905   0.01904   2.65545
   R21        2.60116   0.01637   0.00000   0.03211   0.03211   2.63327
   R22        2.03197   0.01090   0.00000   0.02865   0.02865   2.06062
   R23        2.61076   0.01325   0.00000   0.02675   0.02676   2.63752
   R24        2.03671   0.01037   0.00000   0.02749   0.02749   2.06420
   R25        2.61084   0.01288   0.00000   0.02588   0.02589   2.63673
   R26        2.03648   0.01043   0.00000   0.02764   0.02764   2.06412
   R27        2.60139   0.01537   0.00000   0.02988   0.02987   2.63127
   R28        2.03672   0.01040   0.00000   0.02756   0.02756   2.06427
   R29        2.03340   0.01271   0.00000   0.03350   0.03350   2.06690
    A1        1.91846   0.00667   0.00000   0.03967   0.03928   1.95773
    A2        1.91852   0.00671   0.00000   0.03985   0.03945   1.95798
    A3        1.89433  -0.00724   0.00000  -0.04433  -0.04407   1.85026
    A4        1.93024  -0.00444   0.00000  -0.01997  -0.02086   1.90938
    A5        1.90077  -0.00093   0.00000  -0.00818  -0.00792   1.89285
    A6        1.90096  -0.00098   0.00000  -0.00851  -0.00825   1.89271
    A7        2.00332   0.01655   0.00000   0.06253   0.06253   2.06585
    A8        2.05033  -0.00862   0.00000  -0.03189  -0.03190   2.01844
    A9        2.17546   0.00227   0.00000   0.00927   0.00926   2.18472
   A10        2.05739   0.00634   0.00000   0.02262   0.02262   2.08002
   A11        2.11564  -0.00191   0.00000  -0.00908  -0.00911   2.10653
   A12        2.06179   0.00125   0.00000   0.00622   0.00620   2.06799
   A13        2.10575   0.00065   0.00000   0.00280   0.00278   2.10853
   A14        2.10695  -0.00050   0.00000  -0.00107  -0.00110   2.10585
   A15        2.09926  -0.00183   0.00000  -0.01135  -0.01134   2.08792
   A16        2.07662   0.00233   0.00000   0.01252   0.01253   2.08915
   A17        2.10949  -0.00381   0.00000  -0.01630  -0.01633   2.09316
   A18        2.08960   0.00463   0.00000   0.02374   0.02372   2.11332
   A19        2.08409  -0.00082   0.00000  -0.00744  -0.00746   2.07664
   A20        2.11177   0.00065   0.00000   0.00471   0.00467   2.11644
   A21        2.09979  -0.00207   0.00000  -0.01230  -0.01229   2.08750
   A22        2.07157   0.00142   0.00000   0.00766   0.00767   2.07924
   A23        2.06495  -0.00078   0.00000  -0.00089  -0.00098   2.06397
   A24        2.11992   0.00473   0.00000   0.01664   0.01659   2.13651
   A25        2.09792  -0.00397   0.00000  -0.01626  -0.01629   2.08163
   A26        2.22402   0.00478   0.00000   0.02033   0.02033   2.24435
   A27        2.02770  -0.00202   0.00000  -0.00811  -0.00812   2.01958
   A28        2.03095  -0.00277   0.00000  -0.01242  -0.01243   2.01852
   A29        2.12277   0.00602   0.00000   0.02331   0.02330   2.14607
   A30        2.09425  -0.00706   0.00000  -0.02616  -0.02615   2.06810
   A31        2.06581   0.00103   0.00000   0.00263   0.00259   2.06840
   A32        2.10747  -0.00185   0.00000  -0.00806  -0.00806   2.09941
   A33        2.07875   0.00241   0.00000   0.01256   0.01256   2.09131
   A34        2.09657  -0.00056   0.00000  -0.00447  -0.00447   2.09210
   A35        2.09658   0.00298   0.00000   0.01394   0.01395   2.11053
   A36        2.09343  -0.00236   0.00000  -0.01195  -0.01196   2.08147
   A37        2.09316  -0.00062   0.00000  -0.00202  -0.00204   2.09113
   A38        2.09266  -0.00422   0.00000  -0.01651  -0.01650   2.07617
   A39        2.09524   0.00222   0.00000   0.00890   0.00889   2.10414
   A40        2.09527   0.00200   0.00000   0.00759   0.00758   2.10286
   A41        2.09689   0.00192   0.00000   0.00850   0.00848   2.10537
   A42        2.09307  -0.00018   0.00000   0.00024   0.00023   2.09330
   A43        2.09323  -0.00174   0.00000  -0.00873  -0.00874   2.08449
   A44        2.10683   0.00013   0.00000  -0.00054  -0.00056   2.10627
   A45        2.07601   0.00062   0.00000   0.00419   0.00420   2.08021
   A46        2.10031  -0.00075   0.00000  -0.00364  -0.00363   2.09669
    D1       -1.06509  -0.00156   0.00000  -0.01241  -0.01329  -1.07838
    D2        1.06348   0.00163   0.00000   0.01461   0.01549   1.07897
    D3        3.14092   0.00002   0.00000   0.00095   0.00094  -3.14132
    D4        3.13960  -0.00002   0.00000  -0.00031  -0.00028   3.13932
    D5        0.00047   0.00013   0.00000   0.00406   0.00402   0.00449
    D6        3.13774   0.00026   0.00000   0.00660   0.00650  -3.13895
    D7       -0.00896  -0.00022   0.00000  -0.00577  -0.00588  -0.01484
    D8       -0.00614   0.00012   0.00000   0.00253   0.00246  -0.00368
    D9        3.13034  -0.00036   0.00000  -0.00985  -0.00992   3.12042
   D10       -3.13874   0.00039   0.00000   0.01026   0.01020  -3.12855
   D11        0.00308  -0.00011   0.00000  -0.00282  -0.00298   0.00010
   D12        0.00532   0.00056   0.00000   0.01471   0.01471   0.02003
   D13       -3.13604   0.00006   0.00000   0.00163   0.00153  -3.13451
   D14       -0.00584  -0.00056   0.00000  -0.01436  -0.01442  -0.02026
   D15        3.10707  -0.00039   0.00000  -0.01026  -0.01033   3.09674
   D16        3.14099  -0.00008   0.00000  -0.00168  -0.00176   3.13923
   D17       -0.02928   0.00010   0.00000   0.00241   0.00232  -0.02696
   D18        0.01835   0.00030   0.00000   0.00877   0.00882   0.02717
   D19        3.12996  -0.00043   0.00000  -0.01112  -0.01124   3.11872
   D20       -3.09493   0.00020   0.00000   0.00511   0.00512  -3.08981
   D21        0.01667  -0.00053   0.00000  -0.01477  -0.01494   0.00173
   D22        0.00750  -0.00078   0.00000  -0.02033  -0.02030  -0.01281
   D23        3.13784  -0.00049   0.00000  -0.01280  -0.01281   3.12503
   D24       -3.13433  -0.00028   0.00000  -0.00728  -0.00740   3.14145
   D25       -0.00398   0.00000   0.00000   0.00024   0.00009  -0.00389
   D26       -0.01921   0.00036   0.00000   0.00842   0.00850  -0.01071
   D27       -3.13120   0.00093   0.00000   0.02746   0.02733  -3.10387
   D28        3.13345   0.00011   0.00000   0.00114   0.00117   3.13462
   D29        0.02146   0.00068   0.00000   0.02018   0.02000   0.04146
   D30        0.64418   0.00146   0.00000   0.04896   0.04897   0.69314
   D31       -2.53316   0.00125   0.00000   0.04152   0.04152  -2.49164
   D32       -2.52796   0.00077   0.00000   0.02898   0.02898  -2.49898
   D33        0.57789   0.00056   0.00000   0.02154   0.02153   0.59942
   D34        0.28380   0.00122   0.00000   0.03923   0.03924   0.32304
   D35       -2.88651   0.00090   0.00000   0.02970   0.02970  -2.85681
   D36       -2.82198   0.00142   0.00000   0.04660   0.04660  -2.77538
   D37        0.29089   0.00110   0.00000   0.03707   0.03707   0.32796
   D38        3.12794  -0.00021   0.00000  -0.00346  -0.00363   3.12431
   D39        0.01647  -0.00021   0.00000  -0.00464  -0.00476   0.01171
   D40        0.01461   0.00024   0.00000   0.00639   0.00637   0.02098
   D41       -3.09686   0.00024   0.00000   0.00521   0.00523  -3.09163
   D42       -3.12974   0.00032   0.00000   0.01103   0.01086  -3.11888
   D43        0.02013   0.00024   0.00000   0.00863   0.00848   0.02861
   D44       -0.01594   0.00010   0.00000   0.00217   0.00213  -0.01381
   D45        3.13393   0.00002   0.00000  -0.00023  -0.00025   3.13368
   D46       -0.00403  -0.00027   0.00000  -0.00690  -0.00690  -0.01093
   D47       -3.14092   0.00000   0.00000  -0.00003  -0.00002  -3.14094
   D48        3.10714  -0.00021   0.00000  -0.00542  -0.00547   3.10166
   D49       -0.02976   0.00006   0.00000   0.00145   0.00141  -0.02835
   D50       -0.00559  -0.00002   0.00000  -0.00114  -0.00111  -0.00670
   D51        3.14063   0.00009   0.00000   0.00218   0.00219  -3.14036
   D52        3.13130  -0.00030   0.00000  -0.00804  -0.00805   3.12325
   D53       -0.00566  -0.00018   0.00000  -0.00472  -0.00475  -0.01041
   D54        0.00427   0.00037   0.00000   0.00970   0.00970   0.01397
   D55       -3.13697   0.00007   0.00000   0.00223   0.00216  -3.13481
   D56        3.14123   0.00026   0.00000   0.00638   0.00641  -3.13555
   D57       -0.00002  -0.00005   0.00000  -0.00109  -0.00113  -0.00115
   D58        0.00669  -0.00042   0.00000  -0.01027  -0.01033  -0.00365
   D59        3.13989  -0.00033   0.00000  -0.00780  -0.00789   3.13199
   D60       -3.13526  -0.00012   0.00000  -0.00280  -0.00283  -3.13809
   D61       -0.00206  -0.00003   0.00000  -0.00032  -0.00039  -0.00245
         Item               Value     Threshold  Converged?
 Maximum Force            0.034284     0.000450     NO 
 RMS     Force            0.006384     0.000300     NO 
 Maximum Displacement     0.250139     0.001800     NO 
 RMS     Displacement     0.079327     0.001200     NO 
 Predicted change in Energy=-7.732660D-03
 GradGradGradGradGradGradGradGradGradGradGradGradGradGradGradGradGradGrad

                          Input orientation:                          
 ---------------------------------------------------------------------
 Center     Atomic      Atomic             Coordinates (Angstroms)
 Number     Number       Type             X           Y           Z
 ---------------------------------------------------------------------
      1          6           0        5.332445    0.074609   -0.409765
      2          8           0        4.279688    0.791650    0.186665
      3          6           0        3.022106    0.260012    0.136680
      4          6           0        2.020117    1.017928    0.749100
      5          6           0        0.705182    0.574804    0.762741
      6          6           0        2.685741   -0.958196   -0.461744
      7          6           0        1.360322   -1.390063   -0.462772
      8          6           0        0.349858   -0.633527    0.139897
      9          7           0       -0.963344   -1.129880    0.154316
     10          6           0       -2.158565   -0.428359    0.019336
     11          6           0       -2.228848    0.865828   -0.527533
     12          6           0       -3.458413    1.508922   -0.655408
     13          6           0       -4.640496    0.881979   -0.258358
     14          6           0       -4.577129   -0.409911    0.264963
     15          6           0       -3.353382   -1.059127    0.405531
     16          1           0        5.483783   -0.911771    0.061251
     17          1           0        5.184758   -0.056436   -1.495377
     18          1           0        6.235844    0.676707   -0.252589
     19          1           0        2.298693    1.957795    1.230512
     20          1           0       -0.055495    1.159316    1.281901
     21          1           0        3.443252   -1.577234   -0.942231
     22          1           0        1.100964   -2.335447   -0.945559
     23          1           0       -1.051981   -2.132079    0.240056
     24          1           0       -1.320258    1.356707   -0.877606
     25          1           0       -3.493590    2.513503   -1.082913
     26          1           0       -5.601202    1.391208   -0.362358
     27          1           0       -5.493091   -0.918096    0.574843
     28          1           0       -3.312279   -2.068379    0.825081
 ---------------------------------------------------------------------
                    Distance matrix (angstroms):
                    1          2          3          4          5
     1  C    0.000000
     2  O    1.406475   0.000000
     3  C    2.381310   1.366253   0.000000
     4  C    3.633776   2.339486   1.397669   0.000000
     5  C    4.799638   3.627117   2.420575   1.387660   0.000000
     6  C    2.841553   2.454192   1.398314   2.411279   2.787843
     7  C    4.233891   3.701937   2.417357   2.775317   2.406614
     8  C    5.062584   4.180536   2.817682   2.426561   1.405081
     9  N    6.434744   5.584148   4.220891   3.723961   2.461728
    10  C    7.520128   6.554961   5.227521   4.481706   3.124105
    11  C    7.603489   6.548024   5.327355   4.439215   3.218390
    12  C    8.910487   7.816762   6.647128   5.676972   4.496582
    13  C   10.006714   8.931735   7.697946   6.737746   5.450989
    14  C    9.944328   8.938293   7.629785   6.767331   5.396318
    15  C    8.797366   7.857292   6.516077   5.771195   4.389678
    16  H    1.103497   2.089789   2.727383   4.024159   5.053417
    17  H    1.103421   2.089896   2.727785   4.025777   5.056101
    18  H    1.096977   2.008159   3.263936   4.346512   5.624011
    19  H    3.929446   2.524649   2.145288   1.092113   2.161192
    20  H    5.750497   4.486483   3.404690   2.147565   1.090785
    21  H    2.565376   2.754204   2.171839   3.408926   3.877528
    22  H    4.899069   4.600538   3.405648   3.868054   3.397719
    23  H    6.786208   6.080931   4.725565   4.429385   3.269255
    24  H    6.791252   5.728119   4.592128   3.730824   2.721124
    25  H    9.181515   8.062286   7.001424   5.999499   4.979426
    26  H   11.012734   9.914277   8.711492   7.710978   6.457774
    27  H   10.915454   9.928803   8.607469   7.760596   6.378295
    28  H    8.991579   8.137893   6.783785   6.161617   4.809397
                    6          7          8          9         10
     6  C    0.000000
     7  C    1.394004   0.000000
     8  C    2.433872   1.398784   0.000000
     9  N    3.704704   2.418247   1.403949   0.000000
    10  C    4.896883   3.679656   2.519685   1.392445   0.000000
    11  C    5.242573   4.239738   3.056673   2.459526   1.406743
    12  C    6.623806   5.626849   4.441342   3.720793   2.428568
    13  C    7.556545   6.419796   5.230583   4.211808   2.820299
    14  C    7.319700   6.061652   4.933644   3.686467   2.431075
    15  C    6.101915   4.804423   3.737069   2.404246   1.405206
    16  H    2.846879   4.184052   5.142061   6.451487   7.657736
    17  H    2.850728   4.179850   5.136479   6.455457   7.507134
    18  H    3.914062   5.299663   6.042813   7.433548   8.471199
    19  H    3.393603   3.867286   3.420869   4.618746   5.198829
    20  H    3.877955   3.398199   2.163971   2.708516   2.921932
    21  H    1.089907   2.145579   3.410377   4.562963   5.798696
    22  H    2.154627   1.092750   2.153813   2.631442   3.897760
    23  H    3.980087   2.619878   2.054468   1.009757   2.043503
    24  H    4.645400   3.860355   2.790274   2.715762   2.166500
    25  H    7.114962   6.259622   5.115775   4.605119   3.413473
    26  H    8.614117   7.497225   6.306102   5.304014   3.912578
    27  H    8.244357   6.947566   5.866022   4.554152   3.415772
    28  H    6.234154   4.894066   3.992434   2.616907   2.161006
                   11         12         13         14         15
    11  C    0.000000
    12  C    1.393468   0.000000
    13  C    2.426678   1.395717   0.000000
    14  C    2.787469   2.404273   1.395299   0.000000
    15  C    2.416741   2.780557   2.421839   1.392407   0.000000
    16  H    7.936700   9.291729  10.286920  10.075481   8.845097
    17  H    7.533183   8.823848   9.947183   9.925632   8.804469
    18  H    8.471267   9.738248  10.878279  10.879751   9.767267
    19  H    4.978126   6.074739   7.178194   7.335887   6.459750
    20  H    2.843176   3.931316   4.844745   4.893037   4.070083
    21  H    6.189769   7.565686   8.477169   8.194295   6.948319
    22  H    4.637947   5.970869   6.617283   6.116681   4.826555
    23  H    3.310839   4.455295   4.712791   3.923411   2.544613
    24  H    1.090435   2.155052   3.410692   3.877320   3.408268
    25  H    2.150082   1.092328   2.158044   3.396641   3.872830
    26  H    3.417028   2.165937   1.092285   2.164783   3.412696
    27  H    3.879807   3.397624   2.159031   1.092367   2.151026
    28  H    3.407779   3.874311   3.412128   2.159652   1.093756
                   16         17         18         19         20
    16  H    0.000000
    17  H    1.801140   0.000000
    18  H    1.785317   1.785162   0.000000
    19  H    4.443690   4.451625   4.397946   0.000000
    20  H    6.038460   6.054055   6.493729   2.486446   0.000000
    21  H    2.369300   2.377318   3.654371   4.304330   4.967565
    22  H    4.716951   4.708882   5.993353   4.960017   4.302598
    23  H    6.651115   6.798303   7.825878   5.379134   3.593286
    24  H    7.233424   6.685345   7.612340   4.231108   2.510390
    25  H    9.676510   9.060267   9.936053   6.261892   4.387102
    26  H   11.329610  10.941496  11.859099   8.078775   5.788975
    27  H   10.988885  10.910762  11.865748   8.331420   5.863704
    28  H    8.904599   9.035048   9.993174   6.917909   4.607966
                   21         22         23         24         25
    21  H    0.000000
    22  H    2.461953   0.000000
    23  H    4.681108   2.466214   0.000000
    24  H    5.594927   4.415759   3.673250   0.000000
    25  H    8.054421   6.681400   5.412313   2.470567   0.000000
    26  H    9.536774   7.690716   5.785488   4.311978   2.494148
    27  H    9.088136   6.913904   4.616200   4.969595   4.303723
    28  H    7.000130   4.762689   2.335650   4.312599   4.966584
                   26         27         28
    26  H    0.000000
    27  H    2.494578   0.000000
    28  H    4.314850   2.478248   0.000000
 Stoichiometry    C13H13NO
 Framework group  C1[X(C13H13NO)]
 Deg. of freedom    78
 Full point group                 C1      NOp   1
 Largest Abelian subgroup         C1      NOp   1
 Largest concise Abelian subgroup C1      NOp   1
                         Standard orientation:                         
 ---------------------------------------------------------------------
 Center     Atomic      Atomic             Coordinates (Angstroms)
 Number     Number       Type             X           Y           Z
 ---------------------------------------------------------------------
      1          6           0        5.319979   -0.131825    0.394013
      2          8           0        4.259578   -0.839600   -0.199937
      3          6           0        3.007249   -0.295779   -0.149161
      4          6           0        1.997198   -1.044942   -0.759102
      5          6           0        0.686582   -0.589176   -0.771739
      6          6           0        2.683430    0.926542    0.447794
      7          6           0        1.362240    1.371176    0.449857
      8          6           0        0.343741    0.623489   -0.150326
      9          7           0       -0.964631    1.132465   -0.163826
     10          6           0       -2.166384    0.442716   -0.026208
     11          6           0       -2.248432   -0.849884    0.522772
     12          6           0       -3.483975   -1.480888    0.653237
     13          6           0       -4.660474   -0.843187    0.256733
     14          6           0       -4.585332    0.447219   -0.268686
     15          6           0       -3.355566    1.084382   -0.411846
     16          1           0        5.480209    0.852318   -0.078737
     17          1           0        5.174980    0.002320    1.479609
     18          1           0        6.217324   -0.742853    0.236612
     19          1           0        2.266069   -1.988197   -1.239405
     20          1           0       -0.080375   -1.167127   -1.289005
     21          1           0        3.447502    1.538988    0.926336
     22          1           0        1.112642    2.319765    0.931501
     23          1           0       -1.043709    2.135338   -0.251017
     24          1           0       -1.344163   -1.348962    0.872438
     25          1           0       -3.528281   -2.484419    1.082355
     26          1           0       -5.625910   -1.342964    0.362767
     27          1           0       -5.496755    0.963736   -0.578177
     28          1           0       -3.305279    2.092539   -0.833025
 ---------------------------------------------------------------------
 Rotational constants (GHZ):           2.2295220           0.2436801           0.2285661
 Standard basis: def2SVP (5D, 7F)
 There are   290 symmetry adapted cartesian basis functions of A   symmetry.
 There are   275 symmetry adapted basis functions of A   symmetry.
   275 basis functions,   466 primitive gaussians,   290 cartesian basis functions
    53 alpha electrons       53 beta electrons
       nuclear repulsion energy       886.2792972362 Hartrees.
 NAtoms=   28 NActive=   28 NUniq=   28 SFac= 1.00D+00 NAtFMM=   60 NAOKFM=F Big=F
 Integral buffers will be    131072 words long.
 Raffenetti 2 integral format.
 Two-electron integral symmetry is turned on.
 Nuclear repulsion after empirical dispersion term =      886.2629495328 Hartrees.
 One-electron integrals computed using PRISM.
   1 Symmetry operations used in ECPInt.
 ECPInt:  NShTT=    8385 NPrTT=   30369 LenC2=    7608 LenP2D=   20008.
 LDataN:  DoStor=T MaxTD1= 4 Len=   56
 NBasis=   275 RedAO= T EigKep=  2.36D-04  NBF=   275
 NBsUse=   275 1.00D-06 EigRej= -1.00D+00 NBFU=   275
 Initial guess from the checkpoint file:  "prod_3e_1.chk"
 B after Tr=    -0.000000    0.000000   -0.000000
         Rot=    0.999998   -0.000176    0.001319    0.001113 Ang=  -0.20 deg.
 ExpMin= 1.22D-01 ExpMax= 2.27D+03 ExpMxC= 3.41D+02 IAcc=3 IRadAn=         5 AccDes= 0.00D+00
 Harris functional with IExCor= 4639 and IRadAn=       5 diagonalized for initial guess.
 HarFok:  IExCor= 4639 AccDes= 0.00D+00 IRadAn=         5 IDoV= 1 UseB2=F ITyADJ=14
 ICtDFT=  3500011 ScaDFX=  1.000000  1.000000  1.000000  1.000000
 FoFCou: FMM=F IPFlag=           0 FMFlag=      100000 FMFlg1=           0
         NFxFlg=           0 DoJE=T BraDBF=F KetDBF=T FulRan=T
         wScrn=  0.000000 ICntrl=       500 IOpCl=  0 I1Cent=   200000004 NGrid=           0
         NMat0=    1 NMatS0=      1 NMatT0=    0 NMatD0=    1 NMtDS0=    0 NMtDT0=    0
 Petite list used in FoFCou.
 Requested convergence on RMS density matrix=1.00D-08 within 128 cycles.
 Requested convergence on MAX density matrix=1.00D-06.
 Requested convergence on             energy=1.00D-06.
 No special actions if energy rises.
 Integral accuracy reduced to 1.0D-05 until final iterations.
 Initial convergence to 1.0D-05 achieved.  Increase integral accuracy.
 SCF Done:  E(RwB97XD) =  -632.513922744     A.U. after   14 cycles
            NFock= 14  Conv=0.54D-08     -V/T= 2.0110
   1 Symmetry operations used in ECPInt.
 ECPInt:  NShTT=    8385 NPrTT=   30369 LenC2=    7608 LenP2D=   20008.
 LDataN:  DoStor=T MaxTD1= 5 Len=  102
 Calling FoFJK, ICntrl=      2127 FMM=F ISym2X=0 I1Cent= 0 IOpClX= 0 NMat=1 NMatS=1 NMatT=0.
 ***** Axes restored to original set *****
 -------------------------------------------------------------------
 Center     Atomic                   Forces (Hartrees/Bohr)
 Number     Number              X              Y              Z
 -------------------------------------------------------------------
      1        6          -0.001321623    0.005106535    0.003065070
      2        8          -0.005519480   -0.008833959   -0.003810843
      3        6           0.009199539    0.003660825    0.000161167
      4        6          -0.003473999    0.000767255    0.000616386
      5        6           0.000405525   -0.000536703   -0.000101171
      6        6           0.003084630    0.001244076    0.000854285
      7        6          -0.001800484    0.001955212    0.000626615
      8        6          -0.001422841   -0.001635451   -0.000943737
[...]
    22  H   -0.000095  -0.000059   0.006700   0.000134   0.002935  -0.013117
    23  H    0.000002  -0.000001   0.000319  -0.000691   0.005805   0.001758
    24  H   -0.000000  -0.000001  -0.000438   0.000571  -0.006801   0.000407
    25  H    0.000000   0.000000   0.000002  -0.000009   0.000082  -0.000002
    26  H    0.000000  -0.000000  -0.000000  -0.000000  -0.000002   0.000000
    27  H    0.000000  -0.000000  -0.000000   0.000000  -0.000007   0.000000
    28  H   -0.000000   0.000000  -0.000001   0.000009   0.000179  -0.000003
               7          8          9         10         11         12
     1  C   -0.007810   0.002136   0.000009  -0.000001   0.000001   0.000000
     2  O    0.010856  -0.001732  -0.000010   0.000000   0.000000   0.000000
     3  C    0.107574  -0.135903   0.001195  -0.000435  -0.000251   0.000036
     4  C   -0.101165   0.017931   0.003605   0.001722   0.001607  -0.000060
     5  C    0.031062   0.342822  -0.030673  -0.003624  -0.018634   0.003086
     6  C    0.223456   0.009332   0.024488   0.001466   0.001228  -0.000071
     7  C    5.276444   0.365662  -0.009219   0.007129   0.013121   0.000189
     8  C    0.365662   5.092074   0.177641  -0.096227  -0.002012   0.000108
     9  N   -0.009219   0.177641   6.548248   0.296348  -0.044242  -0.001166
    10  C    0.007129  -0.096227   0.296348   4.914560   0.407697  -0.019910
    11  C    0.013121  -0.002012  -0.044242   0.407697   5.180388   0.457089
    12  C    0.000189   0.000108  -0.001166  -0.019910   0.457089   4.875640
    13  C    0.000071  -0.000419   0.002764  -0.070576   0.008953   0.469443
    14  C   -0.000278   0.000850   0.004109  -0.029404  -0.067250  -0.004918
    15  C   -0.009658   0.017441  -0.031673   0.369299   0.005999  -0.063114
    16  H    0.000357   0.000093  -0.000002  -0.000001   0.000000   0.000000
    17  H   -0.002037   0.000235   0.000003   0.000001  -0.000000  -0.000000
    18  H    0.000270  -0.000059   0.000000  -0.000000   0.000000   0.000000
    19  H   -0.007811   0.018874  -0.000164   0.000028   0.000020  -0.000011
    20  H    0.009271  -0.061005   0.003126   0.000797  -0.007097   0.000707
    21  H   -0.015500   0.010370  -0.000465   0.000008  -0.000017  -0.000000
    22  H    0.418816  -0.066812   0.004839   0.000428   0.000331   0.000011
    23  H    0.005418  -0.064400   0.401083  -0.060824   0.010809  -0.000186
    24  H   -0.000519   0.004066  -0.000694  -0.040459   0.421273  -0.026683
    25  H    0.000002   0.000031  -0.000209   0.012647  -0.056134   0.437999
    26  H    0.000000  -0.000004   0.000012  -0.003985   0.013011  -0.059459
    27  H    0.000004   0.000006  -0.000248   0.015818  -0.003648   0.011125
    28  H   -0.000461   0.001402   0.004628  -0.084694   0.005517  -0.002019
              13         14         15         16         17         18
     1  C    0.000000  -0.000000  -0.000000   0.411841   0.413423   0.401519
     2  O   -0.000000  -0.000000   0.000000  -0.041770  -0.042901  -0.030606
     3  C   -0.000003   0.000005   0.000069  -0.018375  -0.015283   0.007057
     4  C    0.000010  -0.000016  -0.000236  -0.000642   0.001853  -0.000345
     5  C   -0.000366   0.000684   0.010705   0.000073  -0.000455   0.000114
     6  C    0.000012  -0.000028  -0.000605   0.013498   0.011882  -0.002697
     7  C    0.000071  -0.000278  -0.009658   0.000357  -0.002037   0.000270
     8  C   -0.000419   0.000850   0.017441   0.000093   0.000235  -0.000059
     9  N    0.002764   0.004109  -0.031673  -0.000002   0.000003   0.000000
    10  C   -0.070576  -0.029404   0.369299  -0.000001   0.000001  -0.000000
    11  C    0.008953  -0.067250   0.005999   0.000000  -0.000000   0.000000
    12  C    0.469443  -0.004918  -0.063114   0.000000  -0.000000   0.000000
    13  C    4.950104   0.467863   0.005039  -0.000000   0.000000  -0.000000
    14  C    0.467863   4.851659   0.479154   0.000000  -0.000000  -0.000000
    15  C    0.005039   0.479154   5.145482   0.000000  -0.000000  -0.000000
    16  H   -0.000000   0.000000   0.000000   0.592567  -0.057654  -0.020234
    17  H    0.000000  -0.000000  -0.000000  -0.057654   0.589825  -0.019587
    18  H   -0.000000  -0.000000  -0.000000  -0.020234  -0.019587   0.524872
    19  H    0.000001  -0.000001  -0.000002   0.000067   0.000161  -0.000193
    20  H   -0.000093   0.000191   0.000195   0.000000  -0.000002   0.000000
    21  H   -0.000000   0.000000   0.000005   0.001352   0.000273  -0.000371
    22  H    0.000000  -0.000001  -0.000417  -0.000047  -0.000008   0.000003
    23  H    0.000044   0.001047  -0.003474   0.000001  -0.000001   0.000000
    24  H    0.004960  -0.000732   0.003499  -0.000000   0.000000  -0.000000
    25  H   -0.054974   0.009814  -0.002461   0.000000  -0.000000   0.000000
    26  H    0.445637  -0.058194   0.012516  -0.000000   0.000000  -0.000000
    27  H   -0.058397   0.441476  -0.059649  -0.000000   0.000000   0.000000
    28  H    0.008422  -0.024976   0.439931   0.000000  -0.000000  -0.000000
              19         20         21         22         23         24
     1  C   -0.000126   0.000009   0.009528  -0.000095   0.000002  -0.000000
     2  O    0.008500  -0.000088  -0.005839  -0.000059  -0.000001  -0.000001
     3  C   -0.079933   0.013567  -0.068386   0.006700   0.000319  -0.000438
     4  C    0.455228  -0.047542   0.001891   0.000134  -0.000691   0.000571
     5  C   -0.065393   0.452327   0.000511   0.002935   0.005805  -0.006801
     6  C    0.021042  -0.005841   0.424705  -0.013117   0.001758   0.000407
     7  C   -0.007811   0.009271  -0.015500   0.418816   0.005418  -0.000519
     8  C    0.018874  -0.061005   0.010370  -0.066812  -0.064400   0.004066
     9  N   -0.000164   0.003126  -0.000465   0.004839   0.401083  -0.000694
    10  C    0.000028   0.000797   0.000008   0.000428  -0.060824  -0.040459
    11  C    0.000020  -0.007097  -0.000017   0.000331   0.010809   0.421273
    12  C   -0.000011   0.000707  -0.000000   0.000011  -0.000186  -0.026683
    13  C    0.000001  -0.000093  -0.000000   0.000000   0.000044   0.004960
    14  C   -0.000001   0.000191   0.000000  -0.000001   0.001047  -0.000732
    15  C   -0.000002   0.000195   0.000005  -0.000417  -0.003474   0.003499
    16  H    0.000067   0.000000   0.001352  -0.000047   0.000001  -0.000000
    17  H    0.000161  -0.000002   0.000273  -0.000008  -0.000001   0.000000
    18  H   -0.000193   0.000000  -0.000371   0.000003   0.000000  -0.000000
    19  H    0.533892  -0.008467  -0.000043   0.000030   0.000011   0.000084
    20  H   -0.008467   0.493672   0.000021  -0.000234  -0.000112  -0.004546
    21  H   -0.000043   0.000021   0.516210  -0.006180  -0.000045   0.000000
    22  H    0.000030  -0.000234  -0.006180   0.531257   0.003169  -0.000014
    23  H    0.000011  -0.000112  -0.000045   0.003169   0.467841  -0.000272
    24  H    0.000084  -0.004546   0.000000  -0.000014  -0.000272   0.489571
    25  H   -0.000001   0.000058   0.000000  -0.000000   0.000017  -0.006163
    26  H    0.000000  -0.000000  -0.000000   0.000000  -0.000002  -0.000094
    27  H    0.000000  -0.000002  -0.000000   0.000000  -0.000044   0.000031
    28  H   -0.000000   0.000016   0.000000  -0.000026   0.004166  -0.000189
              25         26         27         28
     1  C    0.000000   0.000000   0.000000  -0.000000
     2  O    0.000000  -0.000000  -0.000000   0.000000
     3  C    0.000002  -0.000000  -0.000000  -0.000001
     4  C   -0.000009  -0.000000   0.000000   0.000009
     5  C    0.000082  -0.000002  -0.000007   0.000179
     6  C   -0.000002   0.000000   0.000000  -0.000003
     7  C    0.000002   0.000000   0.000004  -0.000461
     8  C    0.000031  -0.000004   0.000006   0.001402
     9  N   -0.000209   0.000012  -0.000248   0.004628
    10  C    0.012647  -0.003985   0.015818  -0.084694
    11  C   -0.056134   0.013011  -0.003648   0.005517
    12  C    0.437999  -0.059459   0.011125  -0.002019
    13  C   -0.054974   0.445637  -0.058397   0.008422
    14  C    0.009814  -0.058194   0.441476  -0.024976
    15  C   -0.002461   0.012516  -0.059649   0.439931
    16  H    0.000000  -0.000000  -0.000000   0.000000
    17  H   -0.000000   0.000000   0.000000  -0.000000
    18  H    0.000000  -0.000000   0.000000  -0.000000
    19  H   -0.000001   0.000000   0.000000  -0.000000
    20  H    0.000058  -0.000000  -0.000002   0.000016
    21  H    0.000000  -0.000000  -0.000000   0.000000
    22  H   -0.000000   0.000000   0.000000  -0.000026
    23  H    0.000017  -0.000002  -0.000044   0.004166
    24  H   -0.006163  -0.000094   0.000031  -0.000189
    25  H    0.549194  -0.007014  -0.000178   0.000044
    26  H   -0.007014   0.550237  -0.006854  -0.000138
    27  H   -0.000178  -0.006854   0.553412  -0.008429
    28  H    0.000044  -0.000138  -0.008429   0.549219
 Mulliken charges:
               1
     1  C   -0.207362
     2  O   -0.287966
     3  C    0.332426
     4  C   -0.170295
     5  C   -0.299372
     6  C   -0.236654
     7  C   -0.315243
     8  C    0.367499
     9  N   -0.353331
    10  C    0.382195
    11  C   -0.327758
    12  C   -0.077836
    13  C   -0.178494
    14  C   -0.071053
    15  C   -0.318044
    16  H    0.118877
    17  H    0.120272
    18  H    0.140256
    19  H    0.124208
    20  H    0.161072
    21  H    0.131970
    22  H    0.118358
    23  H    0.228559
    24  H    0.163144
    25  H    0.117255
    26  H    0.114334
    27  H    0.115583
    28  H    0.107401
 Sum of Mulliken charges =  -0.00000
 Mulliken charges with hydrogens summed into heavy atoms:
               1
     1  C    0.172044
     2  O   -0.287966
     3  C    0.332426
     4  C   -0.046087
     5  C   -0.138300
     6  C   -0.104685
     7  C   -0.196885
     8  C    0.367499
     9  N   -0.124772
    10  C    0.382195
    11  C   -0.164614
    12  C    0.039419
    13  C   -0.064160
    14  C    0.044530
    15  C   -0.210642
 Electronic spatial extent (au):  <R**2>=           4619.1704
 Charge=              0.0000 electrons
 Dipole moment (field-independent basis, Debye):
    X=              1.4802    Y=              1.5817    Z=              0.4899  Tot=              2.2210
 Quadrupole moment (field-independent basis, Debye-Ang):
   XX=            -76.8602   YY=            -80.7396   ZZ=            -92.1053
   XY=              1.9492   XZ=              4.7899   YZ=             -0.1657
 Traceless Quadrupole moment (field-independent basis, Debye-Ang):
   XX=              6.3748   YY=              2.4954   ZZ=             -8.8702
   XY=              1.9492   XZ=              4.7899   YZ=             -0.1657
 Octapole moment (field-independent basis, Debye-Ang**2):
  XXX=             78.1214  YYY=              9.1138  ZZZ=             -0.8624  XYY=             -5.0551
  XXY=             13.6208  XXZ=             14.2776  XZZ=             16.8703  YZZ=             -2.4452
  YYZ=              1.0924  XYZ=             12.8061
 Hexadecapole moment (field-independent basis, Debye-Ang**3):
 XXXX=          -4765.7511 YYYY=           -558.9559 ZZZZ=           -245.7292 XXXY=             25.9559
 XXXZ=            112.3935 YYYX=            -19.5500 YYYZ=             -2.8549 ZZZX=              9.0238
 ZZZY=              4.5306 XXYY=           -983.0790 XXZZ=           -998.6837 YYZZ=           -134.1820
 XXYZ=            -33.6819 YYXZ=             -1.9346 ZZXY=             -6.9825
 N-N= 8.881464712448D+02 E-N=-3.248777161732D+03  KE= 6.297554414592D+02
 Breneman (CHELPG) radii used.
 Read replacement radii for each type of atom:
 Atom Element Radius
    1     6    1.50
    2     8    1.70
    3     6    1.50
    4     6    1.50
    5     6    1.50
    6     6    1.50
    7     6    1.50
    8     6    1.50
    9     7    1.70
   10     6    1.50
   11     6    1.50
   12     6    1.50
   13     6    1.50
   14     6    1.50
   15     6    1.50
   16     1    1.45
   17     1    1.45
   18     1    1.45
   19     1    1.45
   20     1    1.45
   21     1    1.45
   22     1    1.45
   23     1    1.45
   24     1    1.45
   25     1    1.45
   26     1    1.45
   27     1    1.45
   28     1    1.45
 Generate Potential Derived Charges using the Breneman model, NDens= 1.
 Grid spacing= 0.300 Box extension= 2.800
 NStep X,Y,Z=   59     36     30   Total possible points=       63720
 Number of Points to Fit=   17695

 **********************************************************************

            Electrostatic Properties Using The SCF Density.

 **********************************************************************

       Atomic Center    1 is at   5.296581 -0.137725  0.413836
       Atomic Center    2 is at   4.243181 -0.833654 -0.189438
       Atomic Center    3 is at   3.000903 -0.299720 -0.149457
       Atomic Center    4 is at   1.984001 -1.042018 -0.766277
       Atomic Center    5 is at   0.679173 -0.576367 -0.788778
       Atomic Center    6 is at   2.678177  0.919748  0.450144
       Atomic Center    7 is at   1.355491  1.368009  0.449829
       Atomic Center    8 is at   0.338025  0.637472 -0.167032
       Atomic Center    9 is at  -0.967490  1.147687 -0.201832
       Atomic Center   10 is at  -2.158900  0.452503 -0.041589
       Atomic Center   11 is at  -2.216551 -0.847820  0.488285
       Atomic Center   12 is at  -3.442680 -1.490398  0.640135
       Atomic Center   13 is at  -4.635294 -0.861091  0.287449
       Atomic Center   14 is at  -4.583979  0.435721 -0.224048
       Atomic Center   15 is at  -3.365660  1.083378 -0.394178
       Atomic Center   16 is at   5.455024  0.852446 -0.049721
       Atomic Center   17 is at   5.131414  0.001091  1.497225
       Atomic Center   18 is at   6.199816 -0.743167  0.269305
       Atomic Center   19 is at   2.249966 -1.985696 -1.245674
       Atomic Center   20 is at  -0.090123 -1.153284 -1.305000
       Atomic Center   21 is at   3.439676  1.528758  0.937639
       Atomic Center   22 is at   1.111826  2.311242  0.945257
       Atomic Center   23 is at  -1.049084  2.152836 -0.261502
       Atomic Center   24 is at  -1.300186 -1.350892  0.799305
       Atomic Center   25 is at  -3.461482 -2.500989  1.055237
       Atomic Center   26 is at  -5.591637 -1.371877  0.412412
       Atomic Center   27 is at  -5.505604  0.950991 -0.504814
       Atomic Center   28 is at  -3.338353  2.093829 -0.811258
   17695 points will be used for fitting atomic charges
 Fitting point charges to electrostatic potential
 Charges from ESP fit, RMS=   0.00387 RRMS=   0.32128:
 ESP charges:
               1
     1  C    0.161704
     2  O   -0.370691
     3  C    0.367748
     4  C   -0.266054
     5  C   -0.128892
     6  C   -0.239162
     7  C   -0.238280
     8  C    0.343120
     9  N   -0.723857
    10  C    0.480898
    11  C   -0.236861
    12  C   -0.063974
    13  C   -0.174612
    14  C   -0.037489
    15  C   -0.318586
    16  H   -0.002376
    17  H    0.003602
    18  H    0.046187
    19  H    0.142214
    20  H    0.110905
    21  H    0.140151
    22  H    0.132530
    23  H    0.351991
    24  H    0.103042
    25  H    0.097769
    26  H    0.097307
    27  H    0.093534
    28  H    0.128132
 Sum of ESP charges =   0.00000
 ESP charges with hydrogens summed into heavy atoms:
               1
     1  C    0.209116
     2  O   -0.370691
     3  C    0.367748
     4  C   -0.123840
     5  C   -0.017988
     6  C   -0.099011
     7  C   -0.105749
     8  C    0.343120
     9  N   -0.371866
    10  C    0.480898
    11  C   -0.133819
    12  C    0.033796
    13  C   -0.077305
    14  C    0.056045
    15  C   -0.190453
 Charge=   0.00000 Dipole=     1.3827     1.6545     0.4997 Tot=     2.2133
 -----------------------------------------------------------------

              Electrostatic Properties (Atomic Units)

 -----------------------------------------------------------------
    Center     Electric         -------- Electric Field --------
               Potential          X             Y             Z
 -----------------------------------------------------------------
    1 Atom    -14.712648
    2 Atom    -22.325883
    3 Atom    -14.710164
    4 Atom    -14.771398
    5 Atom    -14.768279
    6 Atom    -14.766880
    7 Atom    -14.766514
    8 Atom    -14.728197
    9 Atom    -18.363768
   10 Atom    -14.724713
   11 Atom    -14.778583
   12 Atom    -14.773557
   13 Atom    -14.782557
   14 Atom    -14.772630
   15 Atom    -14.775838
   16 Atom     -1.105330
   17 Atom     -1.105331
   18 Atom     -1.103473
   19 Atom     -1.104699
   20 Atom     -1.104502
   21 Atom     -1.096732
   22 Atom     -1.099673
   23 Atom     -1.026989
   24 Atom     -1.111730
   25 Atom     -1.113713
   26 Atom     -1.116671
   27 Atom     -1.111821
   28 Atom     -1.105587
 -----------------------------------------------------------------
 Unable to Open any file for archive entry.
 1\1\GINC-NOTCH465\SP\RwB97XD\def2TZVP\C13H13N1O1\U1366379\17-Feb-2026\
 0\\#N Guess=Read Geom=Check Integral(Ultrafine) Density Pop=(ChelpG,Re
 adRadii) NMR wB97XD def2TZVP\\prod_3e_1\\0,1\C,0,5.3088852551,0.087932
 3222,-0.4325300519\O,0,4.2621874866,0.7948688868,0.1696087729\C,0,3.01
 58380244,0.2701057444,0.1352948448\C,0,2.0060173121,1.0232041358,0.750
 6548398\C,0,0.6977830971,0.5675141357,0.7786160462\C,0,2.6825260556,-0
 .9499659668,-0.4572441452\C,0,1.3565122644,-1.3882469114,-0.4515169072
 \C,0,0.3460386852,-0.6469045068,0.1639457494\N,0,-0.9631879004,-1.1470
 878794,0.2044371887\C,0,-2.149715921,-0.4437856452,0.0433985734\C,0,-2
 .1988515782,0.8541905703,-0.4930450169\C,0,-3.4204723807,1.5051942266,
 -0.6453384858\C,0,-4.6169406895,0.886708584,-0.2866154069\C,0,-4.57415
 89767,-0.4078043352,0.2314487864\C,0,-3.3603424223,-1.0637331758,0.402
 0657926\H,0,5.4609834278,-0.9010053249,0.0357608075\H,0,5.1401004175,-
 0.0552081483,-1.5147979136\H,0,6.2169889641,0.6872914632,-0.2932429054
 \H,0,2.2802098798,1.9673066942,1.2245486472\H,0,-0.0659224878,1.152855
 622,1.2936533631\H,0,3.438262306,-1.56719376,-0.9433711234\H,0,1.10458
 36801,-2.3321543301,-0.9414959848\H,0,-1.0521945314,-2.1512740918,0.26
 94874641\H,0,-1.2794733337,1.3487413967,-0.8088035041\H,0,-3.432664407
 4,2.5137489223,-1.0656072321\H,0,-5.5697114732,1.4040320568,-0.4119730
 129\H,0,-5.4989613909,-0.9146686205,0.5170285477\H,0,-3.3396393626,-2.
 0722020651,0.8242922662\\Version=ES64L-G16RevC.01\State=1-A\HF=-633.18
 73481\RMSD=1.412e-09\Dipole=0.5772116,-0.6276357,-0.1908766\Quadrupole
 =4.7005436,1.8760545,-6.576598,-1.4893833,-3.5813063,-0.136429\PG=C01 
 [X(C13H13N1O1)]\\@
 The archive entry for this job was punched.


 EXPERIMENTALISTS THINK SILICON IS REALLY FUN TO USE
     ITS PLACE IN NOVEL COMPOUNDS IS CERTAIN TO AMUSE
 THEY SIT ALL DAY IN LABORATORIES MAKING ALL THIS SLUDGE
     "LOADED WITH THE SILICON THEY SAY", TO ME IT LOOKS LIKE FUDGE.
 FOR HAPPY THOUGH THEY BE WITH CRUD, I'D LIKE TO KNOW A LITTLE
      ABOUT THE PI BONDS ON THE EDGE AND SIGMAS IN THE MIDDLE.

 SO LETS DERIVE A WAVEFUNCTION.....6-31G*
     USE AN OPTIMAL GEOMETRY AND SEE WHERE ELECTRONS ARE.
 BUT WHAT OF CORRELATION?  ASKS THE WIRY LITTLE SKEPTIC.
     WE'LL THROW IN PERTURBATION AS AN ELECTRON ANTISEPTIC.
 AND WHEN THE PROGRAM GIVES US ANSWERS IN THEM WE CAN TRUST
     SINCE NOBODY CAN MAKE THE STUFF, WE HAVE NO CHOICE, WE MUST.

 SO THEORY GUYS HAVE GOT IT MADE, IN ROOMS FREE OF POLLUTION.
     INSTEAD OF PROBLEMS WITH THE REFLUX, THEY HAVE ONLY SOLUTIONS.
 AND WHEN THE FEDS ANNOUNCE THE LIST OF CARCINOGENIC TERRORS,
     THE THEORISTS SIT SAFELY AT THEIR TERMINALS FIXING ERRORS.
 IN OTHER WORDS, EXPERIMENTALISTS WILL LIKELY DIE OF CANCER
     FROM WORKING HARD YET FRUITLESSLY...TILL THEORY GIVES THE ANSWER.
          -- THOMAS A. HOLME, 1983
 Job cpu time:       0 days  0 hours 41 minutes 27.9 seconds.
 Elapsed time:       0 days  0 hours  5 minutes 22.2 seconds.
 File lengths (MBytes):  RWF=    183 Int=      0 D2E=      0 Chk=     28 Scr=      2
 Normal termination of Gaussian 16 at Tue Feb 17 16:07:10 2026.
