 Entering Gaussian System, Link 0=g16
 Input=prod_5l_35.com
 Output=prod_5l_35.log
 Initial command:
 /uufs/chpc.utah.edu/sys/installdir/gaussian16/C01/AVX/g16/l1.exe "/scratch/general/vast/u1366379/GAUSSSCRDIR/11028711-notchpeak.peaks/Gau-3984364.inp" -scrdir="/scratch/general/vast/u1366379/GAUSSSCRDIR/11028711-notchpeak.peaks/"
 Entering Link 1 = /uufs/chpc.utah.edu/sys/installdir/gaussian16/C01/AVX/g16/l1.exe PID=   3984367.
  
 Copyright (c) 1988-2019, Gaussian, Inc.  All Rights Reserved.
  
 This is part of the Gaussian(R) 16 program.  It is based on
 the Gaussian(R) 09 system (copyright 2009, Gaussian, Inc.),
 the Gaussian(R) 03 system (copyright 2003, Gaussian, Inc.),
 the Gaussian(R) 98 system (copyright 1998, Gaussian, Inc.),
 the Gaussian(R) 94 system (copyright 1995, Gaussian, Inc.),
 the Gaussian 92(TM) system (copyright 1992, Gaussian, Inc.),
 the Gaussian 90(TM) system (copyright 1990, Gaussian, Inc.),
 the Gaussian 88(TM) system (copyright 1988, Gaussian, Inc.),
 the Gaussian 86(TM) system (copyright 1986, Carnegie Mellon
 University), and the Gaussian 82(TM) system (copyright 1983,
 Carnegie Mellon University). Gaussian is a federally registered
 trademark of Gaussian, Inc.
  
 This software contains proprietary and confidential information,
 including trade secrets, belonging to Gaussian, Inc.
  
 This software is provided under written license and may be
 used, copied, transmitted, or stored only in accord with that
 written license.
  
 The following legend is applicable only to US Government
 contracts under FAR:
  
                    RESTRICTED RIGHTS LEGEND
  
 Use, reproduction and disclosure by the US Government is
 subject to restrictions as set forth in subparagraphs (a)
 and (c) of the Commercial Computer Software - Restricted
 Rights clause in FAR 52.227-19.
  
 Gaussian, Inc.
 340 Quinnipiac St., Bldg. 40, Wallingford CT 06492
  
  
 ---------------------------------------------------------------
 Warning -- This program may not be used in any manner that
 competes with the business of Gaussian, Inc. or will provide
 assistance to any competitor of Gaussian, Inc.  The licensee
 of this program is prohibited from giving any competitor of
 Gaussian, Inc. access to this program.  By using this program,
 the user acknowledges that Gaussian, Inc. is engaged in the
 business of creating and licensing software in the field of
 computational chemistry and represents and warrants to the
 licensee that it is not a competitor of Gaussian, Inc. and that
 it will not use this program in any manner prohibited above.
 ---------------------------------------------------------------
  

 Cite this work as:
 Gaussian 16, Revision C.01,
 M. J. Frisch, G. W. Trucks, H. B. Schlegel, G. E. Scuseria, 
 M. A. Robb, J. R. Cheeseman, G. Scalmani, V. Barone, 
 G. A. Petersson, H. Nakatsuji, X. Li, M. Caricato, A. V. Marenich, 
 J. Bloino, B. G. Janesko, R. Gomperts, B. Mennucci, H. P. Hratchian, 
 J. V. Ortiz, A. F. Izmaylov, J. L. Sonnenberg, D. Williams-Young, 
 F. Ding, F. Lipparini, F. Egidi, J. Goings, B. Peng, A. Petrone, 
 T. Henderson, D. Ranasinghe, V. G. Zakrzewski, J. Gao, N. Rega, 
 G. Zheng, W. Liang, M. Hada, M. Ehara, K. Toyota, R. Fukuda, 
 J. Hasegawa, M. Ishida, T. Nakajima, Y. Honda, O. Kitao, H. Nakai, 
 T. Vreven, K. Throssell, J. A. Montgomery, Jr., J. E. Peralta, 
 F. Ogliaro, M. J. Bearpark, J. J. Heyd, E. N. Brothers, K. N. Kudin, 
 V. N. Staroverov, T. A. Keith, R. Kobayashi, J. Normand, 
 K. Raghavachari, A. P. Rendell, J. C. Burant, S. S. Iyengar, 
 J. Tomasi, M. Cossi, J. M. Millam, M. Klene, C. Adamo, R. Cammi, 
 J. W. Ochterski, R. L. Martin, K. Morokuma, O. Farkas, 
 J. B. Foresman, and D. J. Fox, Gaussian, Inc., Wallingford CT, 2019.
 
 ******************************************
 Gaussian 16:  ES64L-G16RevC.01  3-Jul-2019
                17-Feb-2026 
 ******************************************
 %NProcShared=8
 Will use up to    8 processors via shared memory.
 %Mem=8GB
 %chk=prod_5l_35.chk
 ------------------------------------------------------
 #N OPT FREQ=NORAMAN Integral(Ultrafine) wB97XD def2SVP
 ------------------------------------------------------
 1/18=20,19=15,26=4,38=1/1,3;
 2/9=110,12=2,17=6,18=5,40=1/2;
 3/5=43,7=101,11=2,25=1,30=1,71=1,74=-58,75=-5/1,2,3;
 4//1;
 5/5=2,38=5/2;
 6/7=2,8=2,9=2,10=2,28=1/1;
 7//1,2,3,16;
 1/18=20,19=15,26=4/3(2);
 2/9=110/2;
 99//99;
 2/9=110/2;
 3/5=43,7=101,11=2,25=1,30=1,71=1,74=-58,75=-5/1,2,3;
 4/5=5,16=3,69=1/1;
 5/5=2,38=5/2;
 7//1,2,3,16;
 1/18=20,19=15,26=4/3(-5);
 2/9=110/2;
 6/7=2,8=2,9=2,10=2,19=2,28=1/1;
 99/9=1/99;
 ----------
 prod_5l_35
 ----------
 Symbolic Z-matrix:
 Charge =  0 Multiplicity = 1
 O                     0.43718   1.95336   1.28781 
 S                     0.00373   1.70433  -0.1276 
 N                     1.08526   0.74483  -1.03902 
 C                     2.02491  -0.08537  -0.43077 
 C                     2.02502  -0.36495   0.94022 
 C                     2.94719  -1.22241   1.49044 
 C                     3.89777  -1.82377   0.69017 
 C                     3.92349  -1.55887  -0.66469 
 C                     3.00196  -0.70232  -1.21984 
 C                    -1.33098   0.50656  -0.04517 
 C                    -1.90994   0.21928   1.16729 
 C                    -2.93492  -0.70193   1.2408 
 C                    -3.39071  -1.34254   0.09827 
 C                    -4.49175  -2.33956   0.18763 
 C                    -2.79368  -1.04083  -1.11783 
 C                    -1.76906  -0.11868  -1.18752 
 O                    -0.42977   2.82477  -1.02532 
 H                     1.40889   1.34342  -1.77306 
 H                     1.31012   0.13403   1.56805 
 H                     2.93381  -1.41824   2.55006 
 H                     4.62161  -2.49436   1.12303 
 H                     4.66703  -2.02609  -1.2892 
 H                     3.01216  -0.50219  -2.27675 
 H                    -1.55301   0.72311   2.0507 
 H                    -3.39047  -0.92972   2.18903 
 H                    -4.17918  -3.21126   0.76331 
 H                    -5.36652  -1.90875   0.67564 
 H                    -4.79812  -2.68376  -0.80043 
 H                    -3.13731  -1.53224  -2.01156 
 H                    -1.30498   0.11995  -2.13009 
 

 GradGradGradGradGradGradGradGradGradGradGradGradGradGradGradGradGradGrad
 Berny optimization.
 Initialization pass.
                           ----------------------------
                           !    Initial Parameters    !
                           ! (Angstroms and Degrees)  !
 --------------------------                            --------------------------
 ! Name  Definition              Value          Derivative Info.                !
 --------------------------------------------------------------------------------
 ! R1    R(1,2)                  1.5011         estimate D2E/DX2                !
 ! R2    R(2,3)                  1.7091         estimate D2E/DX2                !
 ! R3    R(2,10)                 1.7952         estimate D2E/DX2                !
 ! R4    R(2,17)                 1.4997         estimate D2E/DX2                !
 ! R5    R(3,4)                  1.3936         estimate D2E/DX2                !
 ! R6    R(3,18)                 1.0009         estimate D2E/DX2                !
 ! R7    R(4,5)                  1.3992         estimate D2E/DX2                !
 ! R8    R(4,9)                  1.3992         estimate D2E/DX2                !
 ! R9    R(5,6)                  1.3742         estimate D2E/DX2                !
 ! R10   R(5,19)                 1.0744         estimate D2E/DX2                !
 ! R11   R(6,7)                  1.3805         estimate D2E/DX2                !
 ! R12   R(6,20)                 1.0776         estimate D2E/DX2                !
 ! R13   R(7,8)                  1.3808         estimate D2E/DX2                !
 ! R14   R(7,21)                 1.0775         estimate D2E/DX2                !
 ! R15   R(8,9)                  1.3752         estimate D2E/DX2                !
 ! R16   R(8,22)                 1.0776         estimate D2E/DX2                !
 ! R17   R(9,23)                 1.0757         estimate D2E/DX2                !
 ! R18   R(10,11)                1.374          estimate D2E/DX2                !
 ! R19   R(10,16)                1.374          estimate D2E/DX2                !
 ! R20   R(11,12)                1.3801         estimate D2E/DX2                !
 ! R21   R(11,24)                1.0778         estimate D2E/DX2                !
 ! R22   R(12,13)                1.3869         estimate D2E/DX2                !
 ! R23   R(12,25)                1.0764         estimate D2E/DX2                !
 ! R24   R(13,14)                1.4881         estimate D2E/DX2                !
 ! R25   R(13,15)                1.3879         estimate D2E/DX2                !
 ! R26   R(14,26)                1.0904         estimate D2E/DX2                !
 ! R27   R(14,27)                1.0904         estimate D2E/DX2                !
 ! R28   R(14,28)                1.0902         estimate D2E/DX2                !
 ! R29   R(15,16)                1.3802         estimate D2E/DX2                !
 ! R30   R(15,29)                1.0763         estimate D2E/DX2                !
 ! R31   R(16,30)                1.0774         estimate D2E/DX2                !
 ! A1    A(1,2,3)              114.4088         estimate D2E/DX2                !
 ! A2    A(1,2,10)             106.384          estimate D2E/DX2                !
 ! A3    A(1,2,17)             121.597          estimate D2E/DX2                !
 ! A4    A(3,2,10)              96.9148         estimate D2E/DX2                !
 ! A5    A(3,2,17)             106.4468         estimate D2E/DX2                !
 ! A6    A(10,2,17)            108.1217         estimate D2E/DX2                !
 ! A7    A(2,3,4)              121.8949         estimate D2E/DX2                !
 ! A8    A(2,3,18)             105.0668         estimate D2E/DX2                !
 ! A9    A(4,3,18)             117.2796         estimate D2E/DX2                !
 ! A10   A(3,4,5)              123.1437         estimate D2E/DX2                !
 ! A11   A(3,4,9)              119.1663         estimate D2E/DX2                !
 ! A12   A(5,4,9)              117.6713         estimate D2E/DX2                !
 ! A13   A(4,5,6)              121.135          estimate D2E/DX2                !
 ! A14   A(4,5,19)             118.6684         estimate D2E/DX2                !
 ! A15   A(6,5,19)             120.1566         estimate D2E/DX2                !
 ! A16   A(5,6,7)              120.1191         estimate D2E/DX2                !
 ! A17   A(5,6,20)             119.9178         estimate D2E/DX2                !
 ! A18   A(7,6,20)             119.9605         estimate D2E/DX2                !
 ! A19   A(6,7,8)              119.8739         estimate D2E/DX2                !
 ! A20   A(6,7,21)             120.0537         estimate D2E/DX2                !
 ! A21   A(8,7,21)             120.0715         estimate D2E/DX2                !
 ! A22   A(7,8,9)              120.2081         estimate D2E/DX2                !
 ! A23   A(7,8,22)             119.8912         estimate D2E/DX2                !
 ! A24   A(9,8,22)             119.9007         estimate D2E/DX2                !
 ! A25   A(4,9,8)              120.9911         estimate D2E/DX2                !
 ! A26   A(4,9,23)             118.5971         estimate D2E/DX2                !
 ! A27   A(8,9,23)             120.408          estimate D2E/DX2                !
 ! A28   A(2,10,11)            119.5579         estimate D2E/DX2                !
 ! A29   A(2,10,16)            120.1646         estimate D2E/DX2                !
 ! A30   A(11,10,16)           120.2775         estimate D2E/DX2                !
 ! A31   A(10,11,12)           119.9688         estimate D2E/DX2                !
 ! A32   A(10,11,24)           119.0785         estimate D2E/DX2                !
 ! A33   A(12,11,24)           120.9527         estimate D2E/DX2                !
 ! A34   A(11,12,13)           120.5653         estimate D2E/DX2                !
 ! A35   A(11,12,25)           120.1669         estimate D2E/DX2                !
 ! A36   A(13,12,25)           119.2677         estimate D2E/DX2                !
 ! A37   A(12,13,14)           120.2102         estimate D2E/DX2                !
 ! A38   A(12,13,15)           118.6875         estimate D2E/DX2                !
 ! A39   A(14,13,15)           121.1007         estimate D2E/DX2                !
 ! A40   A(13,14,26)           110.8077         estimate D2E/DX2                !
 ! A41   A(13,14,27)           110.8396         estimate D2E/DX2                !
 ! A42   A(13,14,28)           111.4098         estimate D2E/DX2                !
 ! A43   A(26,14,27)           108.0311         estimate D2E/DX2                !
 ! A44   A(26,14,28)           107.8569         estimate D2E/DX2                !
 ! A45   A(27,14,28)           107.7523         estimate D2E/DX2                !
 ! A46   A(13,15,16)           120.5839         estimate D2E/DX2                !
 ! A47   A(13,15,29)           119.4064         estimate D2E/DX2                !
 ! A48   A(16,15,29)           120.0096         estimate D2E/DX2                !
 ! A49   A(10,16,15)           119.9168         estimate D2E/DX2                !
 ! A50   A(10,16,30)           119.2915         estimate D2E/DX2                !
 ! A51   A(15,16,30)           120.7917         estimate D2E/DX2                !
 ! D1    D(1,2,3,4)             20.1628         estimate D2E/DX2                !
 ! D2    D(1,2,3,18)          -116.4382         estimate D2E/DX2                !
 ! D3    D(10,2,3,4)           -91.3719         estimate D2E/DX2                !
 ! D4    D(10,2,3,18)          132.0271         estimate D2E/DX2                !
 ! D5    D(17,2,3,4)           157.3753         estimate D2E/DX2                !
 ! D6    D(17,2,3,18)           20.7744         estimate D2E/DX2                !
 ! D7    D(1,2,10,11)           12.4643         estimate D2E/DX2                !
 ! D8    D(1,2,10,16)         -167.4909         estimate D2E/DX2                !
 ! D9    D(3,2,10,11)          130.4693         estimate D2E/DX2                !
 ! D10   D(3,2,10,16)          -49.486          estimate D2E/DX2                !
 ! D11   D(17,2,10,11)        -119.6677         estimate D2E/DX2                !
 ! D12   D(17,2,10,16)          60.3771         estimate D2E/DX2                !
 ! D13   D(2,3,4,5)             10.4152         estimate D2E/DX2                !
 ! D14   D(2,3,4,9)           -171.1947         estimate D2E/DX2                !
 ! D15   D(18,3,4,5)           142.1289         estimate D2E/DX2                !
 ! D16   D(18,3,4,9)           -39.481          estimate D2E/DX2                !
 ! D17   D(3,4,5,6)            177.9923         estimate D2E/DX2                !
 ! D18   D(3,4,5,19)            -4.3051         estimate D2E/DX2                !
 ! D19   D(9,4,5,6)             -0.4203         estimate D2E/DX2                !
 ! D20   D(9,4,5,19)           177.2823         estimate D2E/DX2                !
 ! D21   D(3,4,9,8)           -178.1113         estimate D2E/DX2                !
 ! D22   D(3,4,9,23)             1.184          estimate D2E/DX2                !
 ! D23   D(5,4,9,8)              0.3666         estimate D2E/DX2                !
 ! D24   D(5,4,9,23)           179.6619         estimate D2E/DX2                !
 ! D25   D(4,5,6,7)              0.1382         estimate D2E/DX2                !
 ! D26   D(4,5,6,20)           179.5584         estimate D2E/DX2                !
 ! D27   D(19,5,6,7)          -177.5305         estimate D2E/DX2                !
 ! D28   D(19,5,6,20)            1.8897         estimate D2E/DX2                !
 ! D29   D(5,6,7,8)              0.2106         estimate D2E/DX2                !
 ! D30   D(5,6,7,21)           179.8745         estimate D2E/DX2                !
 ! D31   D(20,6,7,8)          -179.2094         estimate D2E/DX2                !
 ! D32   D(20,6,7,21)            0.4545         estimate D2E/DX2                !
 ! D33   D(6,7,8,9)             -0.2636         estimate D2E/DX2                !
 ! D34   D(6,7,8,22)           179.8369         estimate D2E/DX2                !
 ! D35   D(21,7,8,9)          -179.9274         estimate D2E/DX2                !
 ! D36   D(21,7,8,22)            0.1731         estimate D2E/DX2                !
 ! D37   D(7,8,9,4)             -0.0315         estimate D2E/DX2                !
 ! D38   D(7,8,9,23)          -179.3141         estimate D2E/DX2                !
 ! D39   D(22,8,9,4)           179.868          estimate D2E/DX2                !
 ! D40   D(22,8,9,23)            0.5854         estimate D2E/DX2                !
 ! D41   D(2,10,11,12)        -179.8805         estimate D2E/DX2                !
 ! D42   D(2,10,11,24)           0.2131         estimate D2E/DX2                !
 ! D43   D(16,10,11,12)          0.0747         estimate D2E/DX2                !
 ! D44   D(16,10,11,24)       -179.8317         estimate D2E/DX2                !
 ! D45   D(2,10,16,15)         179.8623         estimate D2E/DX2                !
 ! D46   D(2,10,16,30)          -0.1588         estimate D2E/DX2                !
 ! D47   D(11,10,16,15)         -0.0926         estimate D2E/DX2                !
 ! D48   D(11,10,16,30)        179.8863         estimate D2E/DX2                !
 ! D49   D(10,11,12,13)         -0.1035         estimate D2E/DX2                !
 ! D50   D(10,11,12,25)        179.9732         estimate D2E/DX2                !
 ! D51   D(24,11,12,13)        179.8011         estimate D2E/DX2                !
 ! D52   D(24,11,12,25)         -0.1221         estimate D2E/DX2                !
 ! D53   D(11,12,13,14)        179.6908         estimate D2E/DX2                !
 ! D54   D(11,12,13,15)          0.1476         estimate D2E/DX2                !
 ! D55   D(25,12,13,14)         -0.3852         estimate D2E/DX2                !
 ! D56   D(25,12,13,15)       -179.9285         estimate D2E/DX2                !
 ! D57   D(12,13,14,26)        -65.2173         estimate D2E/DX2                !
 ! D58   D(12,13,14,27)         54.7143         estimate D2E/DX2                !
 ! D59   D(12,13,14,28)        174.6932         estimate D2E/DX2                !
 ! D60   D(15,13,14,26)        114.3147         estimate D2E/DX2                !
 ! D61   D(15,13,14,27)       -125.7537         estimate D2E/DX2                !
 ! D62   D(15,13,14,28)         -5.7748         estimate D2E/DX2                !
 ! D63   D(12,13,15,16)         -0.1657         estimate D2E/DX2                !
 ! D64   D(12,13,15,29)        179.9091         estimate D2E/DX2                !
 ! D65   D(14,13,15,16)       -179.7047         estimate D2E/DX2                !
 ! D66   D(14,13,15,29)          0.3701         estimate D2E/DX2                !
 ! D67   D(13,15,16,10)          0.1395         estimate D2E/DX2                !
 ! D68   D(13,15,16,30)       -179.839          estimate D2E/DX2                !
 ! D69   D(29,15,16,10)       -179.9357         estimate D2E/DX2                !
 ! D70   D(29,15,16,30)          0.0858         estimate D2E/DX2                !
 --------------------------------------------------------------------------------
 Trust Radius=3.00D-01 FncErr=1.00D-07 GrdErr=1.00D-06 EigMax=2.50D+02 EigMin=1.00D-04
 Number of steps in this run=    162 maximum allowed number of steps=    180.
 GradGradGradGradGradGradGradGradGradGradGradGradGradGradGradGradGradGrad

                          Input orientation:                          
 ---------------------------------------------------------------------
 Center     Atomic      Atomic             Coordinates (Angstroms)
 Number     Number       Type             X           Y           Z
 ---------------------------------------------------------------------
      1          8           0        0.437180    1.953360    1.287810
      2         16           0        0.003730    1.704330   -0.127600
      3          7           0        1.085260    0.744830   -1.039020
      4          6           0        2.024910   -0.085370   -0.430770
      5          6           0        2.025020   -0.364950    0.940220
      6          6           0        2.947190   -1.222410    1.490440
      7          6           0        3.897770   -1.823770    0.690170
      8          6           0        3.923490   -1.558870   -0.664690
      9          6           0        3.001960   -0.702320   -1.219840
     10          6           0       -1.330980    0.506560   -0.045170
     11          6           0       -1.909940    0.219280    1.167290
     12          6           0       -2.934920   -0.701930    1.240800
     13          6           0       -3.390710   -1.342540    0.098270
     14          6           0       -4.491750   -2.339560    0.187630
     15          6           0       -2.793680   -1.040830   -1.117830
     16          6           0       -1.769060   -0.118680   -1.187520
     17          8           0       -0.429770    2.824770   -1.025320
     18          1           0        1.408890    1.343420   -1.773060
     19          1           0        1.310120    0.134030    1.568050
     20          1           0        2.933810   -1.418240    2.550060
     21          1           0        4.621610   -2.494360    1.123030
     22          1           0        4.667030   -2.026090   -1.289200
     23          1           0        3.012160   -0.502190   -2.276750
     24          1           0       -1.553010    0.723110    2.050700
     25          1           0       -3.390470   -0.929720    2.189030
     26          1           0       -4.179180   -3.211260    0.763310
     27          1           0       -5.366520   -1.908750    0.675640
     28          1           0       -4.798120   -2.683760   -0.800430
     29          1           0       -3.137310   -1.532240   -2.011560
     30          1           0       -1.304980    0.119950   -2.130090
 ---------------------------------------------------------------------
                    Distance matrix (angstroms):
                    1          2          3          4          5
     1  O    0.000000
     2  S    1.501093   0.000000
     3  N    2.700868   1.709103   0.000000
     4  C    3.103357   2.716635   1.393608   0.000000
     5  C    2.831363   3.083468   2.456044   1.399206   0.000000
     6  C    4.052990   4.455089   3.706074   2.415473   1.374182
     7  C    5.157477   5.317874   4.183063   2.790367   2.387022
     8  C    5.319997   5.128495   3.674603   2.414648   2.757783
     9  C    4.463075   3.996791   2.408460   1.399245   2.394596
    10  C    2.645081   1.795243   2.623495   3.429441   3.604616
    11  C    2.920707   2.746679   3.757024   4.257893   3.984570
    12  C    4.292299   4.037112   4.842782   5.270124   4.980453
    13  C    5.189480   4.566909   5.068022   5.584738   5.567288
    14  C    6.628266   6.054895   6.490083   6.923196   6.850822
    15  C    5.019037   4.042519   4.270945   4.960218   5.283205
    16  C    3.910000   2.754919   2.985774   3.868848   4.356945
    17  O    2.619452   1.499736   2.573257   3.853292   4.479247
    18  H    3.268818   2.193689   1.000930   2.054912   3.264971
    19  H    2.037283   2.654755   2.687090   2.134091   1.074353
    20  H    4.381110   5.050314   4.580121   3.389394   2.127652
    21  H    6.108913   6.365366   5.260474   3.867865   3.363047
    22  H    6.353632   6.083725   4.535379   3.388819   3.835351
    23  H    5.036500   4.305604   2.607677   2.134489   3.367815
    24  H    2.460970   2.851530   4.062919   4.428639   3.901197
    25  H    4.875987   4.881146   5.766852   6.074753   5.586235
    26  H    6.946883   6.515634   6.827398   7.048954   6.828241
    27  H    6.998113   6.522203   7.183802   7.692990   7.555672
    28  H    7.298767   6.539556   6.813686   7.310405   7.413635
    29  H    5.984332   4.887824   4.894995   5.589351   6.060134
    30  H    4.251888   2.869311   2.700770   3.744064   4.555308
                    6          7          8          9         10
     6  C    0.000000
     7  C    1.380459   0.000000
     8  C    2.389760   1.380753   0.000000
     9  C    2.760274   2.389197   1.375168   0.000000
    10  C    4.863144   5.771567   5.679724   4.649259   0.000000
    11  C    5.076870   6.175046   6.367643   5.538456   1.373966
    12  C    5.910367   6.946033   7.169590   6.426608   2.384699
    13  C    6.490111   7.328292   7.357067   6.558470   2.771684
    14  C    7.634341   8.420370   8.494245   7.798539   4.259702
    15  C    6.308219   6.975483   6.752338   5.806414   2.384220
    16  C    5.534682   6.208544   5.895136   4.806695   1.373973
    17  O    5.840597   6.578711   6.188475   4.924934   2.673382
    18  H    4.427221   4.721559   3.996872   2.651222   3.345568
    19  H    2.127428   3.361486   3.831546   3.366621   3.117157
    20  H    1.077647   2.133744   3.366580   3.837881   5.350561
    21  H    2.134603   1.077499   2.135054   3.365073   6.767831
    22  H    3.366029   2.133214   1.077571   2.128294   6.628578
    23  H    3.835969   3.366525   2.132096   1.075739   4.986020
    24  H    4.934647   6.168358   6.524786   5.785848   2.118694
    25  H    6.382760   7.494288   7.876139   7.248122   3.360960
    26  H    7.434339   8.195584   8.391832   7.861071   4.752691
    27  H    8.381690   9.264691   9.392720   8.664859   4.758032
    28  H    8.208134   8.864535   8.794901   8.058738   4.771752
    29  H    7.027171   7.541663   7.188161   6.245496   3.359497
    30  H    5.743789   6.229006   5.683549   4.478216   2.120621
                   11         12         13         14         15
    11  C    0.000000
    12  C    1.380078   0.000000
    13  C    2.403074   1.386903   0.000000
    14  C    3.764723   2.492934   1.488060   0.000000
    15  C    2.755113   2.387035   1.387938   2.504869   0.000000
    16  C    2.383106   2.756111   2.404337   3.773114   1.380240
    17  O    3.713088   4.883512   5.234128   6.681410   4.532052
    18  H    4.574274   5.668818   5.809683   7.226770   4.876020
    19  H    3.246023   4.338927   5.141820   6.456462   5.043354
    20  H    5.296738   6.055514   6.783551   7.846582   6.811754
    21  H    7.072973   7.767099   8.159295   9.162547   7.881670
    22  H    7.371063   8.120588   8.204845   9.282378   7.527436
    23  H    6.050537   6.912367   6.880672   8.109116   5.944830
    24  H    1.077802   2.143911   3.384676   4.635426   3.832796
    25  H    2.134508   1.076362   2.131126   2.684412   3.362116
    26  H    4.132947   2.841288   2.134497   1.090398   3.188897
    27  H    4.088787   2.772814   2.134895   1.090401   3.254124
    28  H    4.543253   3.400851   2.141807   1.090229   2.611081
    29  H    3.831364   3.362770   2.133443   2.706051   1.076252
    30  H    3.353887   3.833418   3.384484   4.645053   2.142034
                   16         17         18         19         20
    16  C    0.000000
    17  O    3.237886   0.000000
    18  H    3.546824   2.476728   0.000000
    19  H    4.139852   4.122241   3.554630   0.000000
    20  H    6.146165   6.488463   5.351777   2.451582   0.000000
    21  H    7.198830   7.643624   5.782514   4.251170   2.458275
    22  H    6.713554   7.041154   4.712027   4.909057   4.255990
    23  H    4.918696   4.947891   2.496088   4.252553   4.913591
    24  H    3.352813   3.891085   4.876349   2.962681   4.996628
    25  H    3.832473   5.761422   6.625646   4.859293   6.353386
    26  H    4.379323   7.327410   7.642304   6.478502   7.549968
    27  H    4.429157   7.047764   7.904361   7.038954   8.523469
    28  H    3.988067   7.033986   7.462651   7.131636   8.521154
    29  H    2.132909   5.223694   5.384630   5.947243   7.594727
    30  H    1.077382   3.050010   2.998239   4.529369   6.499013
                   21         22         23         24         25
    21  H    0.000000
    22  H    2.457680   0.000000
    23  H    4.256474   2.456852   0.000000
    24  H    7.024145   7.576406   6.408507   0.000000
    25  H    8.232732   8.844400   7.817905   2.475327   0.000000
    26  H    8.837265   9.158213   8.264163   4.902388   2.803599
    27  H   10.015280  10.224798   8.994292   4.833253   2.674626
    28  H    9.615970   9.500552   8.242526   5.501495   3.740990
    29  H    8.423311   7.853242   6.240778   4.909029   4.251127
    30  H    7.248577   6.401366   4.364203   4.231350   4.909773
                   26         27         28         29         30
    26  H    0.000000
    27  H    1.764651   0.000000
    28  H    1.762562   1.761392   0.000000
    29  H    3.406539   3.511720   2.356082   0.000000
    30  H    5.265904   5.337026   4.672346   2.470064   0.000000
 Stoichiometry    C13H13NO2S
 Framework group  C1[X(C13H13NO2S)]
 Deg. of freedom    84
 Full point group                 C1      NOp   1
 Largest Abelian subgroup         C1      NOp   1
 Largest concise Abelian subgroup C1      NOp   1
                         Standard orientation:                         
 ---------------------------------------------------------------------
 Center     Atomic      Atomic             Coordinates (Angstroms)
 Number     Number       Type             X           Y           Z
 ---------------------------------------------------------------------
      1          8           0        0.511166    1.765381    1.586846
      2         16           0        0.080736    1.756024    0.148818
      3          7           0        1.138989    0.918373   -0.899740
      4          6           0        2.048184   -0.026393   -0.427589
      5          6           0        2.029585   -0.518152    0.882222
      6          6           0        2.920900   -1.480139    1.292729
      7          6           0        3.858447   -1.977667    0.410040
      8          6           0        3.902292   -1.503749   -0.886093
      9          6           0        3.011626   -0.541905   -1.301610
     10          6           0       -1.290701    0.602841    0.038223
     11          6           0       -1.887146    0.146670    1.188851
     12          6           0       -2.940448   -0.741888    1.113781
     13          6           0       -3.407248   -1.179997   -0.116527
     14          6           0       -4.539017   -2.143482   -0.188076
     15          6           0       -2.792271   -0.709579   -1.268431
     16          6           0       -1.739329    0.179317   -1.189443
     17          8           0       -0.311511    3.016891   -0.562213
     18          1           0        1.486260    1.614551   -1.529501
     19          1           0        1.325730   -0.101955    1.579073
     20          1           0        2.893689   -1.839799    2.308223
     21          1           0        4.558136   -2.730489    0.733610
     22          1           0        4.635724   -1.890023   -1.574591
     23          1           0        3.035770   -0.178327   -2.313758
     24          1           0       -1.521444    0.493672    2.141483
     25          1           0       -3.409767   -1.101636    2.013156
     26          1           0       -4.257623   -3.104336    0.243834
     27          1           0       -5.403724   -1.767528    0.359569
     28          1           0       -4.848509   -2.318044   -1.218775
     29          1           0       -3.144222   -1.043117   -2.229265
     30          1           0       -1.261193    0.548605   -2.081499
 ---------------------------------------------------------------------
 Rotational constants (GHZ):           0.6582645           0.2857442           0.2428912
 Standard basis: def2SVP (5D, 7F)
 There are   324 symmetry adapted cartesian basis functions of A   symmetry.
 There are   307 symmetry adapted basis functions of A   symmetry.
   307 basis functions,   528 primitive gaussians,   324 cartesian basis functions
    65 alpha electrons       65 beta electrons
       nuclear repulsion energy      1314.3946062475 Hartrees.
 NAtoms=   30 NActive=   30 NUniq=   30 SFac= 1.00D+00 NAtFMM=   60 NAOKFM=F Big=F
 Integral buffers will be    131072 words long.
 Raffenetti 2 integral format.
 Two-electron integral symmetry is turned on.
 Nuclear repulsion after empirical dispersion term =     1314.3754911405 Hartrees.
 One-electron integrals computed using PRISM.
   1 Symmetry operations used in ECPInt.
 ECPInt:  NShTT=   10296 NPrTT=   38220 LenC2=    9471 LenP2D=   24810.
 LDataN:  DoStor=T MaxTD1= 4 Len=   56
 NBasis=   307 RedAO= T EigKep=  2.42D-04  NBF=   307
 NBsUse=   307 1.00D-06 EigRej= -1.00D+00 NBFU=   307
 ExpMin= 1.22D-01 ExpMax= 9.18D+03 ExpMxC= 1.38D+03 IAcc=3 IRadAn=         5 AccDes= 0.00D+00
 Harris functional with IExCor= 4639 and IRadAn=       5 diagonalized for initial guess.
 HarFok:  IExCor= 4639 AccDes= 0.00D+00 IRadAn=         5 IDoV= 1 UseB2=F ITyADJ=14
 ICtDFT=  3500011 ScaDFX=  1.000000  1.000000  1.000000  1.000000
 FoFCou: FMM=F IPFlag=           0 FMFlag=      100000 FMFlg1=           0
         NFxFlg=           0 DoJE=T BraDBF=F KetDBF=T FulRan=T
         wScrn=  0.000000 ICntrl=       500 IOpCl=  0 I1Cent=   200000004 NGrid=           0
         NMat0=    1 NMatS0=      1 NMatT0=    0 NMatD0=    1 NMtDS0=    0 NMtDT0=    0
 Petite list used in FoFCou.
 Requested convergence on RMS density matrix=1.00D-08 within 128 cycles.
 Requested convergence on MAX density matrix=1.00D-06.
 Requested convergence on             energy=1.00D-06.
 No special actions if energy rises.
 Integral accuracy reduced to 1.0D-05 until final iterations.
 Initial convergence to 1.0D-05 achieved.  Increase integral accuracy.
 SCF Done:  E(RwB97XD) =  -1105.64606787     A.U. after   16 cycles
            NFock= 16  Conv=0.36D-08     -V/T= 2.0071

 **********************************************************************

            Population analysis using the SCF Density.

 **********************************************************************

 Orbital symmetries:
       Occupied  (A) (A) (A) (A) (A) (A) (A) (A) (A) (A) (A) (A)
                 (A) (A) (A) (A) (A) (A) (A) (A) (A) (A) (A) (A)
                 (A) (A) (A) (A) (A) (A) (A) (A) (A) (A) (A) (A)
                 (A) (A) (A) (A) (A) (A) (A) (A) (A) (A) (A) (A)
                 (A) (A) (A) (A) (A) (A) (A) (A) (A) (A) (A) (A)
                 (A) (A) (A) (A) (A)
       Virtual   (A) (A) (A) (A) (A) (A) (A) (A) (A) (A) (A) (A)
                 (A) (A) (A) (A) (A) (A) (A) (A) (A) (A) (A) (A)
                 (A) (A) (A) (A) (A) (A) (A) (A) (A) (A) (A) (A)
                 (A) (A) (A) (A) (A) (A) (A) (A) (A) (A) (A) (A)
                 (A) (A) (A) (A) (A) (A) (A) (A) (A) (A) (A) (A)
                 (A) (A) (A) (A) (A) (A) (A) (A) (A) (A) (A) (A)
                 (A) (A) (A) (A) (A) (A) (A) (A) (A) (A) (A) (A)
                 (A) (A) (A) (A) (A) (A) (A) (A) (A) (A) (A) (A)
                 (A) (A) (A) (A) (A) (A) (A) (A) (A) (A) (A) (A)
                 (A) (A) (A) (A) (A) (A) (A) (A) (A) (A) (A) (A)
                 (A) (A) (A) (A) (A) (A) (A) (A) (A) (A) (A) (A)
                 (A) (A) (A) (A) (A) (A) (A) (A) (A) (A) (A) (A)
                 (A) (A) (A) (A) (A) (A) (A) (A) (A) (A) (A) (A)
                 (A) (A) (A) (A) (A) (A) (A) (A) (A) (A) (A) (A)
                 (A) (A) (A) (A) (A) (A) (A) (A) (A) (A) (A) (A)
                 (A) (A) (A) (A) (A) (A) (A) (A) (A) (A) (A) (A)
                 (A) (A) (A) (A) (A) (A) (A) (A) (A) (A) (A) (A)
                 (A) (A) (A) (A) (A) (A) (A) (A) (A) (A) (A) (A)
                 (A) (A) (A) (A) (A) (A) (A) (A) (A) (A) (A) (A)
                 (A) (A) (A) (A) (A) (A) (A) (A) (A) (A) (A) (A)
                 (A) (A)
 The electronic state is 1-A.
 Alpha  occ. eigenvalues --  -89.25682 -19.26081 -19.25703 -14.49932 -10.35568
 Alpha  occ. eigenvalues --  -10.33328 -10.32598 -10.32328 -10.32126 -10.31470
 Alpha  occ. eigenvalues --  -10.31314 -10.30745 -10.30572 -10.30407 -10.30096
 Alpha  occ. eigenvalues --  -10.29605 -10.29530  -8.27438  -6.22877  -6.22767
 Alpha  occ. eigenvalues --   -6.22635  -1.20249  -1.08808  -1.05312  -0.98618
 Alpha  occ. eigenvalues --   -0.95377  -0.90220  -0.86378  -0.85115  -0.84659
 Alpha  occ. eigenvalues --   -0.81470  -0.75919  -0.72567  -0.71615  -0.70851
 Alpha  occ. eigenvalues --   -0.68021  -0.64706  -0.63460  -0.60384  -0.58774
 Alpha  occ. eigenvalues --   -0.58186  -0.56351  -0.54865  -0.54097  -0.53476
 Alpha  occ. eigenvalues --   -0.52935  -0.52851  -0.52658  -0.51558  -0.49708
 Alpha  occ. eigenvalues --   -0.48537  -0.47384  -0.46361  -0.45990  -0.44235
 Alpha  occ. eigenvalues --   -0.44085  -0.42776  -0.41444  -0.40717  -0.39095
 Alpha  occ. eigenvalues --   -0.38594  -0.35350  -0.34496  -0.33828  -0.30775
 Alpha virt. eigenvalues --    0.02620   0.04539   0.05873   0.06265   0.11039
 Alpha virt. eigenvalues --    0.13059   0.13779   0.14801   0.15331   0.16113
 Alpha virt. eigenvalues --    0.17127   0.17177   0.18809   0.19284   0.20495
 Alpha virt. eigenvalues --    0.20691   0.21212   0.23061   0.23679   0.24202
 Alpha virt. eigenvalues --    0.24910   0.25490   0.28037   0.29823   0.31846
 Alpha virt. eigenvalues --    0.34447   0.36178   0.36837   0.37336   0.37599
 Alpha virt. eigenvalues --    0.39140   0.39347   0.39720   0.41985   0.43590
 Alpha virt. eigenvalues --    0.45987   0.47013   0.48178   0.48459   0.49042
 Alpha virt. eigenvalues --    0.49813   0.51371   0.51927   0.52474   0.53795
 Alpha virt. eigenvalues --    0.54573   0.55052   0.55622   0.56455   0.57002
 Alpha virt. eigenvalues --    0.57829   0.58733   0.59577   0.60985   0.62137
 Alpha virt. eigenvalues --    0.62716   0.63722   0.64000   0.65601   0.66302
 Alpha virt. eigenvalues --    0.67274   0.69039   0.70443   0.71242   0.71296
 Alpha virt. eigenvalues --    0.72160   0.72621   0.73233   0.73811   0.74382
 Alpha virt. eigenvalues --    0.75000   0.75664   0.76027   0.76713   0.77288
 Alpha virt. eigenvalues --    0.77697   0.78483   0.78965   0.80017   0.80435
 Alpha virt. eigenvalues --    0.81820   0.82606   0.82844   0.83664   0.84193
 Alpha virt. eigenvalues --    0.85093   0.85380   0.87595   0.89610   0.90571
 Alpha virt. eigenvalues --    0.91214   0.93137   0.93902   0.94459   0.96416
 Alpha virt. eigenvalues --    0.98272   0.99898   1.01227   1.03416   1.05270
 Alpha virt. eigenvalues --    1.08506   1.11202   1.12250   1.12465   1.13421
 Alpha virt. eigenvalues --    1.15097   1.16709   1.18917   1.19956   1.21481
 Alpha virt. eigenvalues --    1.23924   1.24614   1.27436   1.28630   1.29467
 Alpha virt. eigenvalues --    1.30409   1.31186   1.31515   1.31990   1.32872
 Alpha virt. eigenvalues --    1.34406   1.35303   1.37070   1.37617   1.38733
 Alpha virt. eigenvalues --    1.39392   1.39903   1.41206   1.43686   1.51319
 Alpha virt. eigenvalues --    1.54937   1.57395   1.59186   1.60369   1.61858
 Alpha virt. eigenvalues --    1.62096   1.65444   1.69862   1.73996   1.75558
 Alpha virt. eigenvalues --    1.77369   1.77609   1.78474   1.80536   1.81640
 Alpha virt. eigenvalues --    1.81970   1.82490   1.83362   1.83693   1.84514
 Alpha virt. eigenvalues --    1.85410   1.85677   1.86387   1.87462   1.88001
 Alpha virt. eigenvalues --    1.88394   1.88565   1.89311   1.92034   1.92622
 Alpha virt. eigenvalues --    1.93631   1.95681   1.96568   1.97364   2.02685
 Alpha virt. eigenvalues --    2.04133   2.04745   2.05670   2.06361   2.08607
 Alpha virt. eigenvalues --    2.09977   2.10344   2.13143   2.14202   2.15138
 Alpha virt. eigenvalues --    2.19786   2.20074   2.21333   2.21822   2.22822
 Alpha virt. eigenvalues --    2.24855   2.25544   2.29350   2.30729   2.30960
 Alpha virt. eigenvalues --    2.32394   2.35067   2.37051   2.38723   2.39196
 Alpha virt. eigenvalues --    2.40599   2.42503   2.43395   2.44519   2.45910
 Alpha virt. eigenvalues --    2.46898   2.52342   2.54634   2.56363   2.58027
 Alpha virt. eigenvalues --    2.59959   2.61638   2.68186   2.70315   2.71842
 Alpha virt. eigenvalues --    2.72218   2.72431   2.73103   2.73521   2.74382
 Alpha virt. eigenvalues --    2.74783   2.75105   2.77493   2.78346   2.81240
 Alpha virt. eigenvalues --    2.83086   2.83222   2.84353   2.85289   2.85565
 Alpha virt. eigenvalues --    2.87990   2.93767   2.94563   2.98128   2.99766
 Alpha virt. eigenvalues --    3.01027   3.01278   3.02186   3.03821   3.04906
 Alpha virt. eigenvalues --    3.05778   3.08908   3.23022   3.23706   3.25503
 Alpha virt. eigenvalues --    3.31635   3.33510   3.34201   3.46511   3.47379
 Alpha virt. eigenvalues --    3.69733   3.78666
          Condensed to atoms (all electrons):
               1          2          3          4          5          6
     1  O    8.156895   0.399753  -0.040847   0.002894  -0.019054   0.001209
     2  S    0.399753  13.938106   0.195003  -0.029722  -0.001149  -0.001295
     3  N   -0.040847   0.195003   6.870478   0.260669  -0.077469   0.007833
     4  C    0.002894  -0.029722   0.260669   5.174074   0.254269   0.109235
     5  C   -0.019054  -0.001149  -0.077469   0.254269   5.192664   0.268101
     6  C    0.001209  -0.001295   0.007833   0.109235   0.268101   5.045342
     7  C   -0.000027   0.000078  -0.000451  -0.163457   0.087249   0.276081
     8  C   -0.000006  -0.000209   0.006761   0.111377  -0.147264   0.096461
     9  C    0.000287   0.001106  -0.072513   0.265553   0.074878  -0.146605
    10  C   -0.066252   0.239736  -0.095580   0.003014   0.000564  -0.000493
    11  C    0.001710  -0.037135   0.003808  -0.000191  -0.000183  -0.000040
    12  C    0.001687   0.002211   0.000078  -0.000155  -0.000124   0.000017
    13  C   -0.000040   0.000913  -0.000090   0.000036  -0.000022  -0.000001
    14  C    0.000000   0.000009  -0.000000  -0.000000  -0.000000   0.000000
    15  C    0.000002  -0.000176   0.000371  -0.000040  -0.000049  -0.000002
    16  C    0.004735  -0.034013  -0.010139   0.000816  -0.000029   0.000024
    17  O   -0.026159   0.425838  -0.046256   0.000681   0.000140   0.000006
    18  H    0.001013  -0.002639   0.316801  -0.002537   0.004368  -0.000279
    19  H    0.030427   0.000148  -0.013764  -0.073045   0.445088  -0.049170
    20  H    0.000009  -0.000016  -0.000101   0.015362  -0.066273   0.456251
    21  H    0.000000  -0.000000   0.000011  -0.001446   0.014841  -0.067977
    22  H   -0.000000   0.000003  -0.000111   0.015525  -0.001899   0.013864
    23  H    0.000015  -0.000142  -0.009574  -0.082161   0.016885  -0.002264
    24  H    0.016111  -0.013632   0.000734  -0.000268  -0.000309   0.000082
    25  H   -0.000006  -0.000156   0.000002  -0.000001  -0.000002   0.000000
    26  H   -0.000000  -0.000000  -0.000000  -0.000000   0.000000  -0.000000
    27  H    0.000000  -0.000000   0.000000   0.000000  -0.000000   0.000000
    28  H    0.000000  -0.000000   0.000000  -0.000000  -0.000000   0.000000
    29  H    0.000000  -0.000177  -0.000008   0.000000   0.000001   0.000000
    30  H    0.000243  -0.008346   0.011071  -0.000174  -0.000088   0.000005
               7          8          9         10         11         12
     1  O   -0.000027  -0.000006   0.000287  -0.066252   0.001710   0.001687
     2  S    0.000078  -0.000209   0.001106   0.239736  -0.037135   0.002211
     3  N   -0.000451   0.006761  -0.072513  -0.095580   0.003808   0.000078
     4  C   -0.163457   0.111377   0.265553   0.003014  -0.000191  -0.000155
     5  C    0.087249  -0.147264   0.074878   0.000564  -0.000183  -0.000124
     6  C    0.276081   0.096461  -0.146605  -0.000493  -0.000040   0.000017
     7  C    5.103389   0.285270   0.085607  -0.000001   0.000003  -0.000000
     8  C    0.285270   5.008413   0.309953  -0.000004  -0.000002   0.000000
     9  C    0.085607   0.309953   5.139124  -0.001021  -0.000002  -0.000003
    10  C   -0.000001  -0.000004  -0.001021   5.744587   0.268262   0.090910
    11  C    0.000003  -0.000002  -0.000002   0.268262   5.063071   0.265899
    12  C   -0.000000   0.000000  -0.000003   0.090910   0.265899   5.118170
    13  C    0.000000  -0.000000   0.000001  -0.185757   0.102048   0.275552
    14  C   -0.000000   0.000000  -0.000000   0.000698   0.008133  -0.077604
    15  C    0.000000   0.000000   0.000001   0.095878  -0.122915   0.049548
    16  C   -0.000003   0.000008  -0.000169   0.168063   0.041771  -0.117900
    17  O   -0.000000   0.000000  -0.000053  -0.052393  -0.001150  -0.000068
    18  H    0.000011   0.000215  -0.014652   0.003531  -0.000419   0.000004
    19  H    0.013949  -0.002173   0.013966  -0.003951   0.001665   0.000375
    20  H   -0.073846   0.014079  -0.001916  -0.000003   0.000003  -0.000001
    21  H    0.451832  -0.070342   0.014449   0.000000  -0.000000  -0.000000
    22  H   -0.069210   0.453847  -0.069208   0.000000  -0.000000   0.000000
    23  H    0.014926  -0.060135   0.452443  -0.000015   0.000001  -0.000000
    24  H   -0.000001   0.000000  -0.000006  -0.068250   0.449386  -0.054065
    25  H    0.000000  -0.000000   0.000000   0.016651  -0.066819   0.463004
    26  H   -0.000000  -0.000000  -0.000000   0.000112   0.000280  -0.005439
    27  H    0.000000  -0.000000   0.000000   0.000034   0.000449  -0.006204
    28  H    0.000000   0.000000   0.000000  -0.000041  -0.000502   0.008820
    29  H   -0.000000   0.000000  -0.000000   0.016444  -0.001886   0.014634
    30  H    0.000001   0.000004   0.000021  -0.083019   0.012740  -0.001603
              13         14         15         16         17         18
     1  O   -0.000040   0.000000   0.000002   0.004735  -0.026159   0.001013
     2  S    0.000913   0.000009  -0.000176  -0.034013   0.425838  -0.002639
     3  N   -0.000090  -0.000000   0.000371  -0.010139  -0.046256   0.316801
     4  C    0.000036  -0.000000  -0.000040   0.000816   0.000681  -0.002537
     5  C   -0.000022  -0.000000  -0.000049  -0.000029   0.000140   0.004368
     6  C   -0.000001   0.000000  -0.000002   0.000024   0.000006  -0.000279
     7  C    0.000000  -0.000000   0.000000  -0.000003  -0.000000   0.000011
     8  C   -0.000000   0.000000   0.000000   0.000008   0.000000   0.000215
     9  C    0.000001  -0.000000   0.000001  -0.000169  -0.000053  -0.014652
    10  C   -0.185757   0.000698   0.095878   0.168063  -0.052393   0.003531
    11  C    0.102048   0.008133  -0.122915   0.041771  -0.001150  -0.000419
    12  C    0.275552  -0.077604   0.049548  -0.117900  -0.000068   0.000004
    13  C    5.255878   0.406133   0.304093   0.086644  -0.000015   0.000009
    14  C    0.406133   4.548164  -0.074809   0.011423  -0.000000   0.000000
    15  C    0.304093  -0.074809   5.036799   0.328428   0.000368   0.000028
    16  C    0.086644   0.011423   0.328428   5.071168   0.005814   0.002036
    17  O   -0.000015  -0.000000   0.000368   0.005814   8.150355   0.011174
    18  H    0.000009   0.000000   0.000028   0.002036   0.011174   0.513722
    19  H   -0.000020  -0.000000  -0.000049  -0.000621   0.000345  -0.000302
    20  H    0.000000  -0.000000  -0.000000   0.000001  -0.000000   0.000010
    21  H    0.000000   0.000000  -0.000000   0.000000   0.000000  -0.000001
    22  H   -0.000000  -0.000000   0.000000  -0.000000  -0.000000  -0.000023
    23  H   -0.000000  -0.000000  -0.000000  -0.000008  -0.000022   0.002949
    24  H    0.013541  -0.000191  -0.001897   0.013842   0.000141  -0.000033
    25  H   -0.080036  -0.011379   0.014373  -0.002033   0.000001  -0.000000
    26  H   -0.014922   0.389719   0.001306  -0.000574   0.000000   0.000000
    27  H   -0.016493   0.390744   0.003291  -0.000520  -0.000000  -0.000000
    28  H   -0.017527   0.392693  -0.011624   0.000896   0.000000   0.000000
    29  H   -0.071941  -0.015834   0.457655  -0.066683  -0.000002  -0.000004
    30  H    0.014942  -0.000270  -0.048940   0.448265   0.003905  -0.000666
              19         20         21         22         23         24
     1  O    0.030427   0.000009   0.000000  -0.000000   0.000015   0.016111
     2  S    0.000148  -0.000016  -0.000000   0.000003  -0.000142  -0.013632
     3  N   -0.013764  -0.000101   0.000011  -0.000111  -0.009574   0.000734
     4  C   -0.073045   0.015362  -0.001446   0.015525  -0.082161  -0.000268
     5  C    0.445088  -0.066273   0.014841  -0.001899   0.016885  -0.000309
     6  C   -0.049170   0.456251  -0.067977   0.013864  -0.002264   0.000082
     7  C    0.013949  -0.073846   0.451832  -0.069210   0.014926  -0.000001
     8  C   -0.002173   0.014079  -0.070342   0.453847  -0.060135   0.000000
     9  C    0.013966  -0.001916   0.014449  -0.069208   0.452443  -0.000006
    10  C   -0.003951  -0.000003   0.000000   0.000000  -0.000015  -0.068250
    11  C    0.001665   0.000003  -0.000000  -0.000000   0.000001   0.449386
    12  C    0.000375  -0.000001  -0.000000   0.000000  -0.000000  -0.054065
    13  C   -0.000020   0.000000   0.000000  -0.000000  -0.000000   0.013541
    14  C   -0.000000  -0.000000   0.000000  -0.000000  -0.000000  -0.000191
    15  C   -0.000049  -0.000000  -0.000000   0.000000  -0.000000  -0.001897
    16  C   -0.000621   0.000001   0.000000  -0.000000  -0.000008   0.013842
    17  O    0.000345  -0.000000   0.000000  -0.000000  -0.000022   0.000141
    18  H   -0.000302   0.000010  -0.000001  -0.000023   0.002949  -0.000033
    19  H    0.631182  -0.013269  -0.000208   0.000016  -0.000119   0.000982
    20  H   -0.013269   0.666996  -0.012079  -0.000257   0.000023  -0.000002
    21  H   -0.000208  -0.012079   0.672508  -0.012339  -0.000234  -0.000000
    22  H    0.000016  -0.000257  -0.012339   0.667752  -0.013090   0.000000
    23  H   -0.000119   0.000023  -0.000234  -0.013090   0.687926  -0.000000
    24  H    0.000982  -0.000002  -0.000000   0.000000  -0.000000   0.619952
    25  H    0.000005  -0.000000  -0.000000   0.000000   0.000000  -0.011220
    26  H    0.000000  -0.000000   0.000000   0.000000   0.000000  -0.000003
    27  H   -0.000000   0.000000  -0.000000   0.000000  -0.000000  -0.000000
    28  H   -0.000000   0.000000  -0.000000  -0.000000  -0.000000   0.000008
    29  H    0.000000  -0.000000  -0.000000   0.000000  -0.000000   0.000022
    30  H   -0.000052   0.000000  -0.000000  -0.000000   0.000033  -0.000236
              25         26         27         28         29         30
     1  O   -0.000006  -0.000000   0.000000   0.000000   0.000000   0.000243
     2  S   -0.000156  -0.000000  -0.000000  -0.000000  -0.000177  -0.008346
     3  N    0.000002  -0.000000   0.000000   0.000000  -0.000008   0.011071
     4  C   -0.000001  -0.000000   0.000000  -0.000000   0.000000  -0.000174
     5  C   -0.000002   0.000000  -0.000000  -0.000000   0.000001  -0.000088
     6  C    0.000000  -0.000000   0.000000   0.000000   0.000000   0.000005
     7  C    0.000000  -0.000000   0.000000   0.000000  -0.000000   0.000001
     8  C   -0.000000  -0.000000  -0.000000   0.000000   0.000000   0.000004
     9  C    0.000000  -0.000000   0.000000   0.000000  -0.000000   0.000021
    10  C    0.016651   0.000112   0.000034  -0.000041   0.016444  -0.083019
    11  C   -0.066819   0.000280   0.000449  -0.000502  -0.001886   0.012740
    12  C    0.463004  -0.005439  -0.006204   0.008820   0.014634  -0.001603
    13  C   -0.080036  -0.014922  -0.016493  -0.017527  -0.071941   0.014942
    14  C   -0.011379   0.389719   0.390744   0.392693  -0.015834  -0.000270
    15  C    0.014373   0.001306   0.003291  -0.011624   0.457655  -0.048940
    16  C   -0.002033  -0.000574  -0.000520   0.000896  -0.066683   0.448265
    17  O    0.000001   0.000000  -0.000000   0.000000  -0.000002   0.003905
    18  H   -0.000000   0.000000  -0.000000   0.000000  -0.000004  -0.000666
    19  H    0.000005   0.000000  -0.000000  -0.000000   0.000000  -0.000052
    20  H   -0.000000  -0.000000   0.000000   0.000000  -0.000000   0.000000
    21  H   -0.000000   0.000000  -0.000000  -0.000000  -0.000000  -0.000000
    22  H    0.000000   0.000000   0.000000  -0.000000   0.000000  -0.000000
    23  H    0.000000   0.000000  -0.000000  -0.000000  -0.000000   0.000033
    24  H   -0.011220  -0.000003  -0.000000   0.000008   0.000022  -0.000236
    25  H    0.666490   0.001751   0.002445   0.000111  -0.000228   0.000027
    26  H    0.001751   0.604564  -0.017260  -0.019008   0.000371   0.000006
    27  H    0.002445  -0.017260   0.608743  -0.020309   0.000265   0.000007
    28  H    0.000111  -0.019008  -0.020309   0.626823   0.005645   0.000007
    29  H   -0.000228   0.000371   0.000265   0.005645   0.666866  -0.012215
    30  H    0.000027   0.000006   0.000007   0.000007  -0.012215   0.650009
 Mulliken charges:
               1
     1  O   -0.464601
     2  S    0.925905
     3  N   -0.306714
     4  C    0.139690
     5  C   -0.045134
     6  C   -0.006382
     7  C   -0.011398
     8  C   -0.006255
     9  C   -0.051238
    10  C   -0.091702
    11  C    0.012018
    12  C   -0.027743
    13  C   -0.072926
    14  C    0.032372
    15  C   -0.031642
    16  C    0.048760
    17  O   -0.472652
    18  H    0.165684
    19  H    0.018596
    20  H    0.015029
    21  H    0.010986
    22  H    0.015132
    23  H   -0.007437
    24  H    0.035315
    25  H    0.007020
    26  H    0.059098
    27  H    0.054810
    28  H    0.034009
    29  H    0.007076
    30  H    0.014323
 Sum of Mulliken charges =  -0.00000
 Mulliken charges with hydrogens summed into heavy atoms:
               1
     1  O   -0.464601
     2  S    0.925905
     3  N   -0.141030
     4  C    0.139690
     5  C   -0.026538
     6  C    0.008647
     7  C   -0.000412
     8  C    0.008877
     9  C   -0.058675
    10  C   -0.091702
    11  C    0.047332
    12  C   -0.020723
    13  C   -0.072926
    14  C    0.180289
    15  C   -0.024566
    16  C    0.063083
    17  O   -0.472652
 Electronic spatial extent (au):  <R**2>=           4770.6332
 Charge=             -0.0000 electrons
 Dipole moment (field-independent basis, Debye):
    X=             -1.1681    Y=             -3.9401    Z=             -1.6920  Tot=              4.4442
 Quadrupole moment (field-independent basis, Debye-Ang):
   XX=            -92.3337   YY=           -115.4528   ZZ=            -99.2865
   XY=              4.8691   XZ=             -5.0723   YZ=             -4.2530
 Traceless Quadrupole moment (field-independent basis, Debye-Ang):
   XX=             10.0239   YY=            -13.0951   ZZ=              3.0712
   XY=              4.8691   XZ=             -5.0723   YZ=             -4.2530
 Octapole moment (field-independent basis, Debye-Ang**2):
  XXX=            -26.3443  YYY=            -19.0314  ZZZ=             -7.6158  XYY=              7.3795
  XXY=            -33.6194  XXZ=             -8.9888  XZZ=             -1.9653  YZZ=             -2.4544
  YYZ=              2.9388  XYZ=            -11.4864
 Hexadecapole moment (field-independent basis, Debye-Ang**3):
 XXXX=          -4125.6509 YYYY=          -1555.3287 ZZZZ=           -676.1904 XXXY=             18.9661
 XXXZ=            -53.5520 YYYX=             36.8869 YYYZ=              3.9191 ZZZX=            -11.5663
 ZZZY=            -24.3825 XXYY=           -871.0419 XXZZ=           -768.1202 YYZZ=           -360.9451
 XXYZ=             -6.9898 YYXZ=             -7.1568 ZZXY=              2.3954
 N-N= 1.314375491140D+03 E-N=-5.217503486623D+03  KE= 1.097856614332D+03
   1 Symmetry operations used in ECPInt.
 ECPInt:  NShTT=   10296 NPrTT=   38220 LenC2=    9471 LenP2D=   24810.
 LDataN:  DoStor=T MaxTD1= 5 Len=  102
 Calling FoFJK, ICntrl=      2127 FMM=F ISym2X=0 I1Cent= 0 IOpClX= 0 NMat=1 NMatS=1 NMatT=0.
 ***** Axes restored to original set *****
 -------------------------------------------------------------------
 Center     Atomic                   Forces (Hartrees/Bohr)
 Number     Number              X              Y              Z
 -------------------------------------------------------------------
      1        8          -0.011137100    0.002185178   -0.052991057
      2       16          -0.026354803    0.021704054    0.011941074
      3        7          -0.013761207    0.025262572    0.015911379
      4        6           0.017399173   -0.015049674    0.009816936
      5        6          -0.011457476    0.006207315   -0.005625687
      6        6           0.004941567   -0.004288188   -0.002633593
      7        6           0.004819802   -0.004641838    0.003815061
      8        6           0.002415941   -0.001733252    0.001498081
      9        6          -0.011668528    0.009007779   -0.002502628
     10        6           0.010096412    0.010674080    0.005170009
     11        6          -0.000187592    0.003505419    0.012026836
     12        6           0.000897084    0.000987464   -0.002231166
     13        6          -0.003025196   -0.003329814    0.000092296
     14        6          -0.003047061   -0.001967360   -0.002758806
     15        6           0.001688595    0.002466501    0.001546372
     16        6           0.000056979    0.000538208   -0.012210181
     17        8           0.025702457   -0.039703990    0.029495093
     18        1           0.009068579    0.005496275   -0.015315388
     19        1          -0.004072478    0.000482567    0.007445502
     20        1          -0.001167006   -0.001149513    0.010056201
     21        1           0.007252636   -0.006633774    0.003975794
     22        1           0.006818911   -0.003986763   -0.006816567
     23        1           0.000994288    0.001784636   -0.012842837
     24        1           0.003251171    0.004018638    0.008851610
     25        1          -0.004121565   -0.001576310    0.010988278
     26        1           0.001137286   -0.005685351    0.004322038
     27        1          -0.005443737    0.001676754    0.003882290
     28        1          -0.001868338   -0.002394447   -0.004932539
     29        1          -0.002957698   -0.004669586   -0.010233299
     30        1           0.003728901    0.000812421   -0.009741102
 -------------------------------------------------------------------
 Cartesian Forces:  Max     0.052991057 RMS     0.011425348

 GradGradGradGradGradGradGradGradGradGradGradGradGradGradGradGradGradGrad
 Berny optimization.
 FormGI is forming the generalized inverse of G from B-inverse, IUseBI=4.
 Internal  Forces:  Max     0.054746718 RMS     0.009879514
 Search for a local minimum.
 Step number   1 out of a maximum of  162
 All quantities printed in internal units (Hartrees-Bohrs-Radians)
 Mixed Optimization -- RFO/linear search
 Second derivative matrix not updated -- first step.
 ITU=  0
     Eigenvalues ---    0.00433   0.00924   0.01176   0.01610   0.01743
     Eigenvalues ---    0.01776   0.02011   0.02141   0.02246   0.02269
     Eigenvalues ---    0.02276   0.02300   0.02310   0.02340   0.02345
     Eigenvalues ---    0.02348   0.02368   0.02384   0.02386   0.02394
     Eigenvalues ---    0.02394   0.02422   0.02546   0.07294   0.07353
     Eigenvalues ---    0.10321   0.11495   0.11795   0.13591   0.15988
     Eigenvalues ---    0.15999   0.15999   0.16000   0.16000   0.16000
     Eigenvalues ---    0.16000   0.16000   0.16000   0.16000   0.16000
     Eigenvalues ---    0.16000   0.17503   0.22000   0.22000   0.22000
     Eigenvalues ---    0.22845   0.22978   0.23459   0.24000   0.24990
     Eigenvalues ---    0.24999   0.25000   0.25000   0.26495   0.33663
     Eigenvalues ---    0.34766   0.34767   0.34786   0.34817   0.36261
     Eigenvalues ---    0.36280   0.36289   0.36298   0.36312   0.36438
     Eigenvalues ---    0.36451   0.36514   0.36685   0.42630   0.43503
     Eigenvalues ---    0.44019   0.44288   0.46697   0.47106   0.47525
     Eigenvalues ---    0.47810   0.48073   0.49073   0.49250   0.49268
     Eigenvalues ---    0.50043   0.50093   0.76316   0.76764
 RFO step:  Lambda=-3.83221029D-02 EMin= 4.33223677D-03
 Linear search not attempted -- first point.
 Maximum step size (   0.300) exceeded in Quadratic search.
    -- Step size scaled by   0.989
 Iteration  1 RMS(Cart)=  0.19875290 RMS(Int)=  0.00852111
 Iteration  2 RMS(Cart)=  0.04265673 RMS(Int)=  0.00100001
 Iteration  3 RMS(Cart)=  0.00068801 RMS(Int)=  0.00096856
 Iteration  4 RMS(Cart)=  0.00000188 RMS(Int)=  0.00096856
 Iteration  5 RMS(Cart)=  0.00000001 RMS(Int)=  0.00096856
 Variable       Old X    -DE/DX   Delta X   Delta X   Delta X     New X
                                 (Linear)    (Quad)   (Total)
    R1        2.83665  -0.05282   0.00000  -0.06520  -0.06520   2.77145
    R2        3.22974  -0.00233   0.00000  -0.00595  -0.00595   3.22379
    R3        3.39252  -0.00331   0.00000  -0.01079  -0.01079   3.38173
    R4        2.83409  -0.05475   0.00000  -0.06720  -0.06720   2.76689
    R5        2.63354   0.02559   0.00000   0.05011   0.05011   2.68364
    R6        1.89148   0.01745   0.00000   0.03362   0.03362   1.92510
    R7        2.64412   0.00716   0.00000   0.01393   0.01394   2.65806
    R8        2.64419   0.00509   0.00000   0.00945   0.00945   2.65364
    R9        2.59683   0.01922   0.00000   0.03552   0.03554   2.63237
   R10        2.03023   0.00729   0.00000   0.01779   0.01779   2.04802
   R11        2.60869   0.01224   0.00000   0.02358   0.02358   2.63227
   R12        2.03646   0.01011   0.00000   0.02494   0.02494   2.06140
   R13        2.60925   0.01149   0.00000   0.02187   0.02186   2.63110
   R14        2.03618   0.01060   0.00000   0.02613   0.02613   2.06230
   R15        2.59869   0.01557   0.00000   0.02830   0.02829   2.62698
   R16        2.03631   0.01038   0.00000   0.02561   0.02561   2.06192
   R17        2.03285   0.01296   0.00000   0.03178   0.03178   2.06463
   R18        2.59642   0.01822   0.00000   0.03393   0.03394   2.63036
   R19        2.59643   0.01889   0.00000   0.03510   0.03511   2.63154
   R20        2.60797   0.01161   0.00000   0.02177   0.02177   2.62974
   R21        2.03675   0.01021   0.00000   0.02520   0.02520   2.06195
   R22        2.62087   0.01491   0.00000   0.02799   0.02798   2.64885
   R23        2.03403   0.01176   0.00000   0.02889   0.02889   2.06292
   R24        2.81203   0.01246   0.00000   0.03288   0.03288   2.84491
   R25        2.62282   0.01471   0.00000   0.02765   0.02764   2.65046
   R26        2.06055   0.00715   0.00000   0.01833   0.01833   2.07889
   R27        2.06056   0.00677   0.00000   0.01735   0.01735   2.07791
   R28        2.06023   0.00575   0.00000   0.01473   0.01473   2.07497
   R29        2.60828   0.01052   0.00000   0.01963   0.01962   2.62790
   R30        2.03382   0.01157   0.00000   0.02843   0.02843   2.06225
   R31        2.03596   0.01031   0.00000   0.02540   0.02540   2.06136
    A1        1.99681  -0.00204   0.00000  -0.00618  -0.01149   1.98532
    A2        1.85675  -0.00032   0.00000   0.03256   0.03142   1.88817
    A3        2.12227  -0.00234   0.00000  -0.04111  -0.04530   2.07697
    A4        1.69148   0.02467   0.00000   0.10776   0.10652   1.79800
    A5        1.85785  -0.01657   0.00000  -0.08673  -0.09024   1.76761
    A6        1.88708   0.00416   0.00000   0.03678   0.03968   1.92676
    A7        2.12747   0.03784   0.00000   0.14798   0.14602   2.27348
    A8        1.83376  -0.01086   0.00000  -0.01834  -0.02024   1.81352
    A9        2.04691  -0.01490   0.00000  -0.04616  -0.04952   1.99739
   A10        2.14926   0.01799   0.00000   0.06244   0.06223   2.21150
   A11        2.07984  -0.02067   0.00000  -0.07028  -0.07035   2.00949
   A12        2.05375   0.00264   0.00000   0.00713   0.00702   2.06077
   A13        2.11420  -0.00428   0.00000  -0.01619  -0.01617   2.09803
   A14        2.07115   0.00640   0.00000   0.02950   0.02947   2.10062
   A15        2.09713  -0.00210   0.00000  -0.01295  -0.01297   2.08416
   A16        2.09647   0.00424   0.00000   0.01845   0.01847   2.11495
   A17        2.09296  -0.00340   0.00000  -0.01559  -0.01560   2.07736
   A18        2.09371  -0.00084   0.00000  -0.00285  -0.00286   2.09084
   A19        2.09219  -0.00480   0.00000  -0.01613  -0.01614   2.07606
   A20        2.09533   0.00272   0.00000   0.00966   0.00966   2.10500
   A21        2.09564   0.00208   0.00000   0.00649   0.00649   2.10213
   A22        2.09803   0.00048   0.00000   0.00208   0.00206   2.10009
   A23        2.09250   0.00078   0.00000   0.00408   0.00409   2.09659
   A24        2.09266  -0.00127   0.00000  -0.00617  -0.00616   2.08650
   A25        2.11169   0.00172   0.00000   0.00475   0.00473   2.11643
   A26        2.06991   0.00024   0.00000   0.00314   0.00314   2.07305
   A27        2.10152  -0.00196   0.00000  -0.00782  -0.00782   2.09370
   A28        2.08668  -0.00183   0.00000  -0.00740  -0.00745   2.07923
   A29        2.09727  -0.00112   0.00000  -0.00497  -0.00501   2.09225
   A30        2.09924   0.00295   0.00000   0.01238   0.01237   2.11161
   A31        2.09385  -0.00366   0.00000  -0.01249  -0.01248   2.08137
   A32        2.07831   0.00257   0.00000   0.00996   0.00995   2.08826
   A33        2.11102   0.00109   0.00000   0.00254   0.00253   2.11355
   A34        2.10426   0.00219   0.00000   0.00758   0.00757   2.11184
   A35        2.09731  -0.00252   0.00000  -0.01089  -0.01089   2.08642
   A36        2.08161   0.00033   0.00000   0.00332   0.00332   2.08493
   A37        2.09806   0.00010   0.00000   0.00131   0.00132   2.09938
   A38        2.07149  -0.00040   0.00000  -0.00334  -0.00335   2.06814
   A39        2.11361   0.00031   0.00000   0.00203   0.00204   2.11564
   A40        1.93396   0.00049   0.00000   0.00153   0.00153   1.93549
   A41        1.93452   0.00073   0.00000   0.00333   0.00332   1.93783
   A42        1.94447   0.00088   0.00000   0.00560   0.00559   1.95005
   A43        1.88550  -0.00140   0.00000  -0.00933  -0.00933   1.87617
   A44        1.88246  -0.00054   0.00000  -0.00211  -0.00212   1.88034
   A45        1.88063  -0.00028   0.00000   0.00035   0.00033   1.88096
   A46        2.10459   0.00246   0.00000   0.00824   0.00823   2.11282
   A47        2.08404  -0.00007   0.00000   0.00168   0.00168   2.08572
   A48        2.09456  -0.00239   0.00000  -0.00991  -0.00991   2.08465
   A49        2.09294  -0.00354   0.00000  -0.01237  -0.01236   2.08058
   A50        2.08203   0.00352   0.00000   0.01490   0.01490   2.09693
   A51        2.10821   0.00002   0.00000  -0.00253  -0.00254   2.10567
    D1        0.35191   0.01561   0.00000   0.16469   0.16399   0.51589
    D2       -2.03223   0.01232   0.00000   0.10398   0.10116  -1.93107
    D3       -1.59474   0.00339   0.00000   0.07173   0.07120  -1.52354
    D4        2.30431   0.00010   0.00000   0.01102   0.00837   2.31268
    D5        2.74672  -0.00598   0.00000   0.01436   0.01877   2.76549
    D6        0.36258  -0.00928   0.00000  -0.04635  -0.04406   0.31852
    D7        0.21754  -0.00266   0.00000  -0.02006  -0.02156   0.19598
    D8       -2.92327  -0.00351   0.00000  -0.03541  -0.03682  -2.96008
    D9        2.27712   0.00484   0.00000   0.02565   0.02606   2.30318
   D10       -0.86369   0.00399   0.00000   0.01030   0.01081  -0.85288
   D11       -2.08859  -0.00238   0.00000  -0.01678  -0.01583  -2.10443
   D12        1.05378  -0.00323   0.00000  -0.03213  -0.03109   1.02269
   D13        0.18178  -0.00028   0.00000   0.02979   0.03058   0.21236
   D14       -2.98791  -0.00205   0.00000  -0.00100  -0.00018  -2.98809
   D15        2.48062   0.00897   0.00000   0.12297   0.12215   2.60277
   D16       -0.68907   0.00719   0.00000   0.09218   0.09140  -0.59768
   D17        3.10655  -0.00135   0.00000  -0.01912  -0.02021   3.08634
   D18       -0.07514  -0.00076   0.00000  -0.00909  -0.00983  -0.08497
   D19       -0.00734   0.00077   0.00000   0.01243   0.01247   0.00513
   D20        3.09416   0.00136   0.00000   0.02246   0.02285   3.11701
   D21       -3.10863   0.00038   0.00000   0.01066   0.00955  -3.09908
   D22        0.02066   0.00081   0.00000   0.01700   0.01608   0.03674
   D23        0.00640  -0.00103   0.00000  -0.01746  -0.01736  -0.01096
   D24        3.13569  -0.00060   0.00000  -0.01113  -0.01083   3.12486
   D25        0.00241  -0.00006   0.00000  -0.00035  -0.00050   0.00192
   D26        3.13389   0.00010   0.00000   0.00131   0.00133   3.13521
   D27       -3.09849  -0.00084   0.00000  -0.01149  -0.01175  -3.11024
   D28        0.03298  -0.00069   0.00000  -0.00983  -0.00993   0.02306
   D29        0.00368  -0.00043   0.00000  -0.00718  -0.00702  -0.00334
   D30        3.13940  -0.00006   0.00000  -0.00130  -0.00120   3.13821
   D31       -3.12779  -0.00057   0.00000  -0.00877  -0.00878  -3.13658
   D32        0.00793  -0.00021   0.00000  -0.00289  -0.00296   0.00497
   D33       -0.00460   0.00015   0.00000   0.00211   0.00218  -0.00242
   D34        3.13875   0.00034   0.00000   0.00583   0.00568  -3.13876
   D35       -3.14033  -0.00022   0.00000  -0.00378  -0.00365   3.13921
   D36        0.00302  -0.00003   0.00000  -0.00006  -0.00015   0.00288
   D37       -0.00055   0.00062   0.00000   0.01057   0.01029   0.00974
   D38       -3.12962   0.00016   0.00000   0.00404   0.00360  -3.12602
   D39        3.13929   0.00043   0.00000   0.00686   0.00681  -3.13708
   D40        0.01022  -0.00003   0.00000   0.00033   0.00013   0.01035
   D41       -3.13951  -0.00056   0.00000  -0.00993  -0.00995   3.13373
   D42        0.00372  -0.00078   0.00000  -0.01355  -0.01358  -0.00986
   D43        0.00130   0.00028   0.00000   0.00543   0.00547   0.00677
   D44       -3.13866   0.00006   0.00000   0.00180   0.00184  -3.13682
   D45        3.13919   0.00059   0.00000   0.01035   0.01039  -3.13361
   D46       -0.00277   0.00076   0.00000   0.01321   0.01326   0.01049
   D47       -0.00162  -0.00026   0.00000  -0.00510  -0.00515  -0.00676
   D48        3.13961  -0.00009   0.00000  -0.00224  -0.00228   3.13733
   D49       -0.00181  -0.00006   0.00000  -0.00132  -0.00130  -0.00311
   D50        3.14113  -0.00017   0.00000  -0.00287  -0.00286   3.13827
   D51        3.13812   0.00016   0.00000   0.00238   0.00239   3.14051
   D52       -0.00213   0.00006   0.00000   0.00083   0.00083  -0.00130
   D53        3.13620  -0.00014   0.00000  -0.00230  -0.00231   3.13389
   D54        0.00258  -0.00018   0.00000  -0.00303  -0.00303  -0.00045
   D55       -0.00672  -0.00004   0.00000  -0.00077  -0.00076  -0.00749
   D56       -3.14034  -0.00007   0.00000  -0.00150  -0.00148   3.14136
   D57       -1.13826   0.00038   0.00000   0.00309   0.00310  -1.13516
   D58        0.95494  -0.00058   0.00000  -0.00542  -0.00543   0.94951
   D59        3.04897   0.00014   0.00000   0.00099   0.00100   3.04997
   D60        1.99517   0.00041   0.00000   0.00381   0.00381   1.99898
   D61       -2.19482  -0.00055   0.00000  -0.00471  -0.00472  -2.19953
   D62       -0.10079   0.00017   0.00000   0.00171   0.00171  -0.09908
   D63       -0.00289   0.00020   0.00000   0.00335   0.00335   0.00046
   D64        3.14001   0.00009   0.00000   0.00182   0.00181  -3.14137
   D65       -3.13644   0.00016   0.00000   0.00262   0.00263  -3.13381
   D66        0.00646   0.00006   0.00000   0.00109   0.00109   0.00755
   D67        0.00243   0.00002   0.00000   0.00067   0.00066   0.00309
   D68       -3.13878  -0.00016   0.00000  -0.00224  -0.00223  -3.14102
   D69       -3.14047   0.00012   0.00000   0.00221   0.00220  -3.13827
   D70        0.00150  -0.00005   0.00000  -0.00069  -0.00069   0.00081
         Item               Value     Threshold  Converged?
 Maximum Force            0.054747     0.000450     NO 
 RMS     Force            0.009880     0.000300     NO 
 Maximum Displacement     0.653531     0.001800     NO 
 RMS     Displacement     0.233734     0.001200     NO 
 Predicted change in Energy=-2.222957D-02
 GradGradGradGradGradGradGradGradGradGradGradGradGradGradGradGradGradGrad

                          Input orientation:                          
 ---------------------------------------------------------------------
 Center     Atomic      Atomic             Coordinates (Angstroms)
 Number     Number       Type             X           Y           Z
 ---------------------------------------------------------------------
      1          8           0        0.230402    2.122644    1.193027
      2         16           0       -0.083546    1.664070   -0.164188
      3          7           0        1.163728    0.751787   -0.886910
      4          6           0        2.146800   -0.086952   -0.297985
      5          6           0        2.171971   -0.548193    1.030586
      6          6           0        3.171401   -1.423263    1.449880
      7          6           0        4.163221   -1.858157    0.573847
      8          6           0        4.143980   -1.407339   -0.743327
      9          6           0        3.147067   -0.539302   -1.173625
     10          6           0       -1.431717    0.491912   -0.059748
     11          6           0       -2.124215    0.360843    1.140554
     12          6           0       -3.179130   -0.543086    1.221839
     13          6           0       -3.553783   -1.316805    0.114688
     14          6           0       -4.691222   -2.297024    0.223391
     15          6           0       -2.840824   -1.160486   -1.082994
     16          6           0       -1.784770   -0.260624   -1.176994
     17          8           0       -0.351245    2.658212   -1.205257
     18          1           0        1.515465    1.359520   -1.624970
     19          1           0        1.431363   -0.205153    1.743587
     20          1           0        3.175929   -1.764074    2.486108
     21          1           0        4.943669   -2.541377    0.913112
     22          1           0        4.910031   -1.737856   -1.446512
     23          1           0        3.129290   -0.200797   -2.212266
     24          1           0       -1.831862    0.964654    2.001086
     25          1           0       -3.723472   -0.651952    2.161804
     26          1           0       -4.446869   -3.104937    0.928932
     27          1           0       -5.603591   -1.803833    0.588661
     28          1           0       -4.924462   -2.758168   -0.745424
     29          1           0       -3.118723   -1.754434   -1.955302
     30          1           0       -1.235158   -0.144029   -2.111998
 ---------------------------------------------------------------------
                    Distance matrix (angstroms):
                    1          2          3          4          5
     1  O    0.000000
     2  S    1.466590   0.000000
     3  N    2.660166   1.705954   0.000000
     4  C    3.282988   2.838736   1.420123   0.000000
     5  C    3.305971   3.377713   2.526518   1.406583   0.000000
     6  C    4.613990   4.767758   3.771231   2.427048   1.392988
     7  C    5.630029   5.566490   4.235868   2.821916   2.426869
     8  C    5.614832   5.257464   3.682981   2.435257   2.788139
     9  C    4.603687   4.038647   2.383852   1.404244   2.410277
    10  C    2.644120   1.789532   2.736433   3.632853   3.906048
    11  C    2.941244   2.750469   3.882527   4.528961   4.392682
    12  C    4.328031   4.046634   4.998393   5.557288   5.354521
    13  C    5.226153   4.583222   5.247588   5.846322   5.849264
    14  C    6.685509   6.088608   6.693911   7.205192   7.128351
    15  C    5.039012   4.052765   4.442035   5.161891   5.474508
    16  C    3.918914   2.761229   3.130937   4.032377   4.540034
    17  O    2.525255   1.464174   2.455797   3.820902   4.652595
    18  H    3.189804   2.187114   1.018720   2.061978   3.335017
    19  H    2.676577   3.070594   2.811917   2.166527   1.083766
    20  H    5.045271   5.422215   4.664307   3.409254   2.145890
    21  H    6.636741   6.642232   5.326628   3.913238   3.415976
    22  H    6.615857   6.176833   4.532799   3.417608   3.879212
    23  H    5.039638   4.242012   2.554882   2.154697   3.399005
    24  H    2.499366   2.869530   4.166460   4.713953   4.388765
    25  H    4.926463   4.901352   5.928732   6.389827   6.003888
    26  H    7.019559   6.555678   7.046304   7.354592   7.096218
    27  H    7.058183   6.562318   7.382757   7.987639   7.888681
    28  H    7.358841   6.582438   7.028930   7.572209   7.641830
    29  H    6.013347   4.909843   5.075627   5.766535   6.193705
    30  H    4.267184   2.896445   2.838658   3.838169   4.652710
                    6          7          8          9         10
     6  C    0.000000
     7  C    1.392937   0.000000
     8  C    2.399233   1.392320   0.000000
     9  C    2.768530   2.413629   1.390137   0.000000
    10  C    5.209180   6.101442   5.929825   4.823835   0.000000
    11  C    5.596630   6.691559   6.779804   5.826843   1.391926
    12  C    6.415291   7.487284   7.631301   6.764542   2.401486
    13  C    6.857271   7.749583   7.745962   6.867725   2.793751
    14  C    8.005533   8.872236   8.932349   8.153527   4.299151
    15  C    6.529269   7.231080   6.997414   6.020708   2.400632
    16  C    5.728510   6.402824   6.054180   4.939706   1.392550
    17  O    6.009760   6.628967   6.078579   4.739544   2.678146
    18  H    4.465501   4.711566   3.916873   2.543887   3.447976
    19  H    2.144245   3.400553   3.871471   3.400798   3.454727
    20  H    1.090844   2.154144   3.390226   3.859345   5.727238
    21  H    2.163153   1.091325   2.160865   3.404490   7.126909
    22  H    3.392770   2.157325   1.091121   2.149196   6.863872
    23  H    3.861025   3.402688   2.154790   1.092555   5.090772
    24  H    5.571231   6.778369   6.990625   6.093472   2.151892
    25  H    6.974312   8.134892   8.420641   7.638199   3.390555
    26  H    7.819044   8.707134   8.915210   8.286802   4.796452
    27  H    8.825362   9.766974   9.846143   9.015470   4.805768
    28  H    8.493781   9.226943   9.168499   8.381903   4.820004
    29  H    7.160349   7.709349   7.371310   6.430217   3.388980
    30  H    5.808715   6.268532   5.692481   4.498964   2.157495
                   11         12         13         14         15
    11  C    0.000000
    12  C    1.391596   0.000000
    13  C    2.431166   1.401709   0.000000
    14  C    3.807225   2.521828   1.505461   0.000000
    15  C    2.787855   2.409956   1.402564   2.534231   0.000000
    16  C    2.423319   2.788982   2.431741   3.815162   1.390625
    17  O    3.731508   4.912843   5.272500   6.740236   4.560198
    18  H    4.678968   5.810632   5.990525   7.437049   5.061761
    19  H    3.650498   4.652211   5.361041   6.646274   5.210931
    20  H    5.866627   6.593631   7.149315   8.203413   7.021690
    21  H    7.643925   8.370684   8.622282   9.662636   8.154118
    22  H    7.783191   8.601285   8.616889   9.761419   7.780827
    23  H    6.257488   7.190717   7.164053   8.454999   6.151303
    24  H    1.091135   2.166942   3.424700   4.687716   3.878889
    25  H    2.150890   1.091648   2.159053   2.720339   3.400939
    26  H    4.177455   2.873332   2.158243   1.100100   3.226161
    27  H    4.134787   2.805068   2.159528   1.099580   3.292598
    28  H    4.596360   3.438444   2.167045   1.098025   2.647279
    29  H    3.879145   3.400770   2.160013   2.741142   1.091295
    30  H    3.409459   3.879786   3.421923   4.694018   2.161065
                   16         17         18         19         20
    16  C    0.000000
    17  O    3.251983   0.000000
    18  H    3.703660   2.312437   0.000000
    19  H    4.344696   4.480204   3.715165   0.000000
    20  H    6.347221   6.754535   5.423554   2.454604   0.000000
    21  H    7.405557   7.717469   5.780263   4.299294   2.490666
    22  H    6.861138   6.860368   4.598768   4.962565   4.298057
    23  H    5.022286   4.615422   2.320331   4.304852   4.951841
    24  H    3.406423   3.916759   4.950636   3.476117   5.723563
    25  H    3.880628   5.802258   6.769943   5.191037   6.995980
    26  H    4.428522   7.385308   7.874211   6.604999   7.894920
    27  H    4.481341   7.121455   8.098636   7.306176   8.982308
    28  H    4.035052   7.103726   7.694258   7.287632   8.777662
[...]
     2  S    0.000025   0.000735   0.007033   0.307988  -0.016547   0.004867
     3  N    0.000974   0.013251  -0.039573  -0.061446   0.006355   0.000051
     4  C   -0.112017   0.009909   0.333991   0.045009  -0.002552   0.001885
     5  C    0.048675  -0.090389   0.057849   0.003466   0.000871  -0.002490
     6  C    0.413198   0.022546  -0.098005  -0.000068  -0.001268   0.000434
     7  C    4.963720   0.439102   0.035566  -0.000157  -0.000705  -0.000195
     8  C    0.439102   4.933736   0.408380  -0.001761   0.001199   0.002006
     9  C    0.035566   0.408380   5.115211  -0.000174  -0.014241  -0.000563
    10  C   -0.000157  -0.001761  -0.000174   5.294008   0.316272   0.049803
    11  C   -0.000705   0.001199  -0.014241   0.316272   5.142057   0.357377
    12  C   -0.000195   0.002006  -0.000563   0.049803   0.357377   5.100191
    13  C    0.000042   0.000056  -0.000462  -0.090530   0.033019   0.412615
    14  C   -0.000001  -0.000016   0.000008  -0.004307   0.013810  -0.073671
    15  C    0.000020  -0.000051   0.000794   0.015624  -0.050392  -0.014084
    16  C   -0.000059  -0.000680  -0.001914   0.368110  -0.069592  -0.046392
    17  O   -0.000003  -0.000001  -0.000525  -0.096280   0.008737  -0.000586
    18  H    0.000136   0.001087   0.008837  -0.000735   0.000707  -0.000043
    19  H    0.010215  -0.004442   0.011287   0.001828  -0.000442  -0.000158
    20  H   -0.058354   0.010553  -0.003504  -0.000016  -0.000004   0.000008
    21  H    0.443934  -0.056087   0.012198   0.000004  -0.000018  -0.000002
    22  H   -0.057143   0.438886  -0.053930   0.000005   0.000029   0.000022
    23  H    0.010390  -0.031466   0.439950   0.000786  -0.000269  -0.000258
    24  H    0.000105   0.000168  -0.001668  -0.046330   0.436242  -0.049467
    25  H    0.000008   0.000072  -0.000080   0.010710  -0.048537   0.444498
    26  H   -0.000000   0.000001  -0.000002   0.000055   0.001937  -0.006655
    27  H    0.000000   0.000000   0.000000   0.000161  -0.000731  -0.004881
    28  H    0.000000  -0.000001   0.000001   0.000065  -0.000711   0.007938
    29  H   -0.000000   0.000003  -0.000002   0.011286  -0.003857   0.012868
    30  H   -0.000003   0.000006  -0.000132  -0.045627   0.008280  -0.002425
              13         14         15         16         17         18
     1  O   -0.000113  -0.000000  -0.000265   0.006937  -0.043929   0.002676
     2  S   -0.000535   0.000005   0.005742  -0.039178   0.584233  -0.016602
     3  N    0.000226  -0.000004  -0.001190   0.000035  -0.048057   0.365623
     4  C   -0.000717   0.000007   0.000250   0.001025   0.001635  -0.051472
     5  C    0.000219   0.000006   0.000048   0.000327  -0.000743   0.004524
     6  C   -0.000039  -0.000001  -0.000008   0.000171  -0.000000  -0.000720
     7  C    0.000042  -0.000001   0.000020  -0.000059  -0.000003   0.000136
     8  C    0.000056  -0.000016  -0.000051  -0.000680  -0.000001   0.001087
     9  C   -0.000462   0.000008   0.000794  -0.001914  -0.000525   0.008837
    10  C   -0.090530  -0.004307   0.015624   0.368110  -0.096280  -0.000735
    11  C    0.033019   0.013810  -0.050392  -0.069592   0.008737   0.000707
    12  C    0.412615  -0.073671  -0.014084  -0.046392  -0.000586  -0.000043
    13  C    4.972695   0.297552   0.432237   0.016231   0.000166   0.000064
    14  C    0.297552   4.958421  -0.073387   0.013141   0.000001   0.000000
    15  C    0.432237  -0.073387   5.062945   0.404486   0.002760  -0.000166
    16  C    0.016231   0.013141   0.404486   5.106089   0.026776   0.000145
    17  O    0.000166   0.000001   0.002760   0.026776   8.022373   0.004370
    18  H    0.000064   0.000000  -0.000166   0.000145   0.004370   0.429408
    19  H    0.000015   0.000000   0.000007  -0.000172  -0.000133  -0.000050
    20  H   -0.000000  -0.000000  -0.000000   0.000001  -0.000000   0.000013
    21  H   -0.000001   0.000000   0.000000  -0.000000   0.000000  -0.000002
    22  H   -0.000005   0.000000  -0.000003  -0.000001  -0.000000  -0.000040
    23  H   -0.000009  -0.000000   0.000310   0.000380  -0.000176   0.003563
    24  H    0.008916  -0.000031  -0.002425   0.008176   0.000385  -0.000098
    25  H   -0.063177  -0.006649   0.012780  -0.003657   0.000003   0.000000
    26  H   -0.053297   0.427622   0.006955  -0.000639   0.000000  -0.000000
    27  H   -0.017372   0.390165  -0.004581  -0.000662  -0.000000  -0.000000
    28  H   -0.054882   0.427640  -0.006513   0.001943   0.000000   0.000000
    29  H   -0.062071  -0.006789   0.443214  -0.048881  -0.000028  -0.000009
    30  H    0.008424  -0.000057  -0.048536   0.432619   0.013553   0.000364
              19         20         21         22         23         24
     1  O    0.008971  -0.000038   0.000001  -0.000000  -0.000017   0.008187
     2  S   -0.002921  -0.000003   0.000003  -0.000007  -0.000121  -0.004118
     3  N   -0.001404  -0.000119   0.000008  -0.000360   0.002896   0.000355
     4  C   -0.044800   0.013945  -0.003964   0.015211  -0.080500   0.000128
     5  C    0.434638  -0.057682   0.011297  -0.003858   0.012038   0.000015
     6  C   -0.048922   0.446325  -0.056275   0.010719  -0.003893   0.000350
     7  C    0.010215  -0.058354   0.443934  -0.057143   0.010390   0.000105
     8  C   -0.004442   0.010553  -0.056087   0.438886  -0.031466   0.000168
     9  C    0.011287  -0.003504   0.012198  -0.053930   0.439950  -0.001668
    10  C    0.001828  -0.000016   0.000004   0.000005   0.000786  -0.046330
    11  C   -0.000442  -0.000004  -0.000018   0.000029  -0.000269   0.436242
    12  C   -0.000158   0.000008  -0.000002   0.000022  -0.000258  -0.049467
    13  C    0.000015  -0.000000  -0.000001  -0.000005  -0.000009   0.008916
    14  C    0.000000  -0.000000   0.000000   0.000000  -0.000000  -0.000031
    15  C    0.000007  -0.000000   0.000000  -0.000003   0.000310  -0.002425
    16  C   -0.000172   0.000001  -0.000000  -0.000001   0.000380   0.008176
    17  O   -0.000133  -0.000000   0.000000  -0.000000  -0.000176   0.000385
    18  H   -0.000050   0.000013  -0.000002  -0.000040   0.003563  -0.000098
    19  H    0.476173  -0.006494  -0.000017   0.000015   0.000012  -0.000091
    20  H   -0.006494   0.534759  -0.006847  -0.000125   0.000028  -0.000017
    21  H   -0.000017  -0.006847   0.538791  -0.006650  -0.000098  -0.000005
    22  H    0.000015  -0.000125  -0.006650   0.541628  -0.007507   0.000004
    23  H    0.000012   0.000028  -0.000098  -0.007507   0.538598  -0.000053
    24  H   -0.000091  -0.000017  -0.000005   0.000004  -0.000053   0.481727
    25  H   -0.000007   0.000001  -0.000000  -0.000000  -0.000002  -0.005595
    26  H   -0.000000   0.000000  -0.000000   0.000000  -0.000000  -0.000022
    27  H    0.000000   0.000000  -0.000000  -0.000000   0.000000   0.000008
    28  H   -0.000000  -0.000000   0.000000  -0.000000   0.000000   0.000002
    29  H   -0.000000   0.000000   0.000000   0.000000  -0.000003   0.000026
    30  H   -0.000005   0.000000  -0.000000   0.000000  -0.000067  -0.000066
              25         26         27         28         29         30
     1  O   -0.000011   0.000000  -0.000000   0.000000   0.000004   0.000543
     2  S   -0.000100   0.000001  -0.000001   0.000001  -0.000114  -0.004414
     3  N    0.000031  -0.000000   0.000000  -0.000000   0.000017   0.000275
     4  C    0.000037   0.000003  -0.000000  -0.000001  -0.000007  -0.000183
     5  C   -0.000101   0.000000  -0.000000   0.000000  -0.000002  -0.000018
     6  C    0.000057   0.000000   0.000000  -0.000000   0.000000   0.000007
     7  C    0.000008  -0.000000   0.000000   0.000000  -0.000000  -0.000003
     8  C    0.000072   0.000001   0.000000  -0.000001   0.000003   0.000006
     9  C   -0.000080  -0.000002   0.000000   0.000001  -0.000002  -0.000132
    10  C    0.010710   0.000055   0.000161   0.000065   0.011286  -0.045627
    11  C   -0.048537   0.001937  -0.000731  -0.000711  -0.003857   0.008280
    12  C    0.444498  -0.006655  -0.004881   0.007938   0.012868  -0.002425
    13  C   -0.063177  -0.053297  -0.017372  -0.054882  -0.062071   0.008424
    14  C   -0.006649   0.427622   0.390165   0.427640  -0.006789  -0.000057
    15  C    0.012780   0.006955  -0.004581  -0.006513   0.443214  -0.048536
    16  C   -0.003657  -0.000639  -0.000662   0.001943  -0.048881   0.432619
    17  O    0.000003   0.000000  -0.000000   0.000000  -0.000028   0.013553
    18  H    0.000000  -0.000000  -0.000000   0.000000  -0.000009   0.000364
    19  H   -0.000007  -0.000000   0.000000  -0.000000  -0.000000  -0.000005
    20  H    0.000001   0.000000   0.000000  -0.000000   0.000000   0.000000
    21  H   -0.000000  -0.000000  -0.000000   0.000000   0.000000  -0.000000
    22  H   -0.000000   0.000000  -0.000000  -0.000000   0.000000   0.000000
    23  H   -0.000002  -0.000000   0.000000   0.000000  -0.000003  -0.000067
    24  H   -0.005595  -0.000022   0.000008   0.000002   0.000026  -0.000066
    25  H    0.533621   0.000879   0.000256   0.000074  -0.000049   0.000031
    26  H    0.000879   0.540728  -0.024242  -0.023656   0.000057   0.000003
    27  H    0.000256  -0.024242   0.544765  -0.023402   0.000224   0.000007
    28  H    0.000074  -0.023656  -0.023402   0.542014   0.001096  -0.000019
    29  H   -0.000049   0.000057   0.000224   0.001096   0.533412  -0.005564
    30  H    0.000031   0.000003   0.000007  -0.000019  -0.005564   0.477701
 Mulliken charges:
               1
     1  O   -0.461033
     2  S    0.856455
     3  N   -0.316458
     4  C    0.199935
     5  C   -0.270601
     6  C   -0.072229
     7  C   -0.137602
     8  C   -0.096902
     9  C   -0.217406
    10  C    0.000976
    11  C   -0.135620
    12  C   -0.195657
    13  C    0.160734
    14  C   -0.363466
    15  C   -0.186574
    16  C   -0.174764
    17  O   -0.474530
    18  H    0.248419
    19  H    0.166896
    20  H    0.127570
    21  H    0.123730
    22  H    0.123108
    23  H    0.115487
    24  H    0.165192
    25  H    0.124906
    26  H    0.130272
    27  H    0.140286
    28  H    0.128408
    29  H    0.125167
    30  H    0.165298
 Sum of Mulliken charges =  -0.00000
 Mulliken charges with hydrogens summed into heavy atoms:
               1
     1  O   -0.461033
     2  S    0.856455
     3  N   -0.068039
     4  C    0.199935
     5  C   -0.103705
     6  C    0.055341
     7  C   -0.013872
     8  C    0.026206
     9  C   -0.101919
    10  C    0.000976
    11  C    0.029573
    12  C   -0.070750
    13  C    0.160734
    14  C    0.035501
    15  C   -0.061407
    16  C   -0.009466
    17  O   -0.474530
 Electronic spatial extent (au):  <R**2>=           4366.5923
 Charge=              0.0000 electrons
 Dipole moment (field-independent basis, Debye):
    X=             -1.8222    Y=             -5.3822    Z=             -1.7648  Tot=              5.9500
 Quadrupole moment (field-independent basis, Debye-Ang):
   XX=            -96.8174   YY=           -114.0121   ZZ=           -101.0973
   XY=              0.2826   XZ=              2.6673   YZ=             -4.5446
 Traceless Quadrupole moment (field-independent basis, Debye-Ang):
   XX=              7.1582   YY=            -10.0365   ZZ=              2.8783
   XY=              0.2826   XZ=              2.6673   YZ=             -4.5446
 Octapole moment (field-independent basis, Debye-Ang**2):
  XXX=            -41.9543  YYY=            -42.3687  ZZZ=            -11.7719  XYY=              3.5028
  XXY=            -16.3277  XXZ=              7.5846  XZZ=              2.8461  YZZ=             -0.4010
  YYZ=             -0.7600  XYZ=             -0.8841
 Hexadecapole moment (field-independent basis, Debye-Ang**3):
 XXXX=          -3343.4058 YYYY=          -1978.1636 ZZZZ=           -577.7111 XXXY=             53.3096
 XXXZ=            112.7832 YYYX=            -18.4094 YYYZ=             17.6574 ZZZX=             13.6244
 ZZZY=            -24.0083 XXYY=           -821.9350 XXZZ=           -639.5028 YYZZ=           -410.8721
 XXYZ=            -31.5957 YYXZ=            -12.7892 ZZXY=             -2.1733
 N-N= 1.331931991370D+03 E-N=-5.259235892423D+03  KE= 1.102023900954D+03
 Breneman (CHELPG) radii used.
 Read replacement radii for each type of atom:
 Atom Element Radius
    1     8    1.70
    2    16    2.00
    3     7    1.70
    4     6    1.50
    5     6    1.50
    6     6    1.50
    7     6    1.50
    8     6    1.50
    9     6    1.50
   10     6    1.50
   11     6    1.50
   12     6    1.50
   13     6    1.50
   14     6    1.50
   15     6    1.50
   16     6    1.50
   17     8    1.70
   18     1    1.45
   19     1    1.45
   20     1    1.45
   21     1    1.45
   22     1    1.45
   23     1    1.45
   24     1    1.45
   25     1    1.45
   26     1    1.45
   27     1    1.45
   28     1    1.45
   29     1    1.45
   30     1    1.45
 Generate Potential Derived Charges using the Breneman model, NDens= 1.
 Grid spacing= 0.300 Box extension= 2.800
 NStep X,Y,Z=   49     42     34   Total possible points=       69972
 Number of Points to Fit=   18716

 **********************************************************************

            Electrostatic Properties Using The SCF Density.

 **********************************************************************

       Atomic Center    1 is at   0.759942  2.053047  1.477378
       Atomic Center    2 is at   0.211239  1.955920  0.139104
       Atomic Center    3 is at   1.389730  1.267740 -0.841684
       Atomic Center    4 is at   1.950909  0.004445 -0.532371
       Atomic Center    5 is at   2.685250 -0.166995  0.646442
       Atomic Center    6 is at   3.219186 -1.416650  0.949215
       Atomic Center    7 is at   3.052717 -2.491952  0.076100
       Atomic Center    8 is at   2.334487 -2.314375 -1.105114
       Atomic Center    9 is at   1.772350 -1.075436 -1.403435
       Atomic Center   10 is at  -1.098950  0.752230  0.173446
       Atomic Center   11 is at  -1.042942 -0.301542  1.084586
       Atomic Center   12 is at  -2.036172 -1.274965  1.051360
       Atomic Center   13 is at  -3.088699 -1.207272  0.129537
       Atomic Center   14 is at  -4.177572 -2.246600  0.128490
       Atomic Center   15 is at  -3.122130 -0.132170 -0.768076
       Atomic Center   16 is at  -2.134332  0.847579 -0.754238
       Atomic Center   17 is at  -0.244805  3.115710 -0.602887
       Atomic Center   18 is at   1.147180  1.412270 -1.817988
       Atomic Center   19 is at   2.820808  0.683312  1.314764
       Atomic Center   20 is at   3.787189 -1.545833  1.873053
       Atomic Center   21 is at   3.485342 -3.465611  0.314533
       Atomic Center   22 is at   2.197170 -3.148950 -1.795933
       Atomic Center   23 is at   1.185541 -0.942152 -2.315844
       Atomic Center   24 is at  -0.230758 -0.351149  1.811520
       Atomic Center   25 is at  -1.993665 -2.105339  1.760474
       Atomic Center   26 is at  -3.797198 -3.227496  0.446650
       Atomic Center   27 is at  -4.981856 -1.962372  0.826178
       Atomic Center   28 is at  -4.628588 -2.357010 -0.867594
       Atomic Center   29 is at  -3.939428 -0.058402 -1.489914
       Atomic Center   30 is at  -2.165377  1.691989 -1.445374
   18716 points will be used for fitting atomic charges
 Fitting point charges to electrostatic potential
 Charges from ESP fit, RMS=   0.00358 RRMS=   0.21891:
 ESP charges:
               1
     1  O   -0.469902
     2  S    0.935393
     3  N   -0.647269
     4  C    0.411730
     5  C   -0.220434
     6  C   -0.054510
     7  C   -0.148512
     8  C   -0.053340
     9  C   -0.270450
    10  C   -0.065643
    11  C   -0.035986
    12  C   -0.230991
    13  C    0.239502
    14  C   -0.271765
    15  C   -0.212105
    16  C   -0.067659
    17  O   -0.485569
    18  H    0.354822
    19  H    0.160575
    20  H    0.097031
    21  H    0.105265
    22  H    0.104250
    23  H    0.111121
    24  H    0.099611
    25  H    0.129046
    26  H    0.078784
    27  H    0.090154
    28  H    0.077343
    29  H    0.126846
    30  H    0.112663
 Sum of ESP charges =  -0.00000
 ESP charges with hydrogens summed into heavy atoms:
               1
     1  O   -0.469902
     2  S    0.935393
     3  N   -0.292447
     4  C    0.411730
     5  C   -0.059859
     6  C    0.042521
     7  C   -0.043247
     8  C    0.050910
     9  C   -0.159329
    10  C   -0.065643
    11  C    0.063625
    12  C   -0.101945
    13  C    0.239502
    14  C   -0.025485
    15  C   -0.085260
    16  C    0.045003
    17  O   -0.485569
 Charge=  -0.00000 Dipole=    -1.7022    -5.2557    -1.7354 Tot=     5.7906
 -----------------------------------------------------------------

              Electrostatic Properties (Atomic Units)

 -----------------------------------------------------------------
    Center     Electric         -------- Electric Field --------
               Potential          X             Y             Z
 -----------------------------------------------------------------
    1 Atom    -22.373377
    2 Atom    -59.026799
    3 Atom    -18.345601
    4 Atom    -14.712676
    5 Atom    -14.763165
    6 Atom    -14.758980
    7 Atom    -14.761227
    8 Atom    -14.756712
    9 Atom    -14.755803
   10 Atom    -14.732022
   11 Atom    -14.745692
   12 Atom    -14.752981
   13 Atom    -14.736845
   14 Atom    -14.755044
   15 Atom    -14.752124
   16 Atom    -14.744872
   17 Atom    -22.373239
   18 Atom     -1.001974
   19 Atom     -1.101925
   20 Atom     -1.099706
   21 Atom     -1.099251
   22 Atom     -1.096083
   23 Atom     -1.087786
   24 Atom     -1.088677
   25 Atom     -1.091441
   26 Atom     -1.100256
   27 Atom     -1.097640
   28 Atom     -1.100361
   29 Atom     -1.090246
   30 Atom     -1.086167
 -----------------------------------------------------------------
 Unable to Open any file for archive entry.
 1\1\GINC-NOTCH070\SP\RwB97XD\def2TZVP\C13H13N1O2S1\U1366379\17-Feb-202
 6\0\\#N Guess=Read Geom=Check Integral(Ultrafine) Density Pop=(ChelpG,
 ReadRadii) NMR wB97XD def2TZVP\\prod_5l_35\\0,1\O,0,0.2026945786,2.408
 8461156,1.1222082607\S,0,-0.0658083354,1.9919675352,-0.2399971169\N,0,
 1.3448829953,1.309538664,-0.8471362749\C,0,1.9666297231,0.2163605911,-
 0.1952902811\C,0,2.4752246069,0.3690081727,1.0994216338\C,0,3.07020193
 7,-0.7159467137,1.7376007737\C,0,3.1888278434,-1.9453835226,1.08896497
 42\C,0,2.6957644365,-2.0902228778,-0.2066297997\C,0,2.0735493014,-1.01
 88653388,-0.8430290056\C,0,-1.2235963737,0.6420087518,-0.1784921215\C,
 0,-1.2323092091,-0.2086092611,0.926099109\C,0,-2.0922043391,-1.3021069
 796,0.9281111784\C,0,-2.9495818444,-1.5536413415,-0.1506783661\C,0,-3.
 9020057925,-2.7188886755,-0.1200813995\C,0,-2.9236872195,-0.6766068498
 ,-1.242836959\C,0,-2.066042737,0.418731222,-1.26575318\O,0,-0.49106489
 43,2.9201432714,-1.2701850254\H,0,1.2801576524,1.2372600829,-1.8588053
 441\H,0,2.3894836209,1.3377088787,1.5916797716\H,0,3.460922479,-0.5923
 419936,2.7499505233\H,0,3.6681245771,-2.7879071928,1.5914141623\H,0,2.
 782440767,-3.0479828766,-0.7241099496\H,0,1.661854681,-1.1390472372,-1
 .8483456675\H,0,-0.5739834753,-0.0090998283,1.7730586525\H,0,-2.098957
 4406,-1.9742469924,1.789709978\H,0,-3.4882153564,-3.5612504036,0.45199
 41844\H,0,-4.8505967957,-2.4283796087,0.3597162126\H,0,-4.1394055581,-
 3.0722814404,-1.1332669619\H,0,-3.5905336902,-0.8524003629,-2.09070595
 88\H,0,-2.0530361383,1.1094362116,-2.1109860029\\Version=ES64L-G16RevC
 .01\State=1-A\HF=-1106.6304772\RMSD=3.940e-09\Dipole=-0.3426033,-2.288
 5075,-0.3539763\Quadrupole=4.1398753,-7.9277308,3.7878555,2.6182071,2.
 2779465,-0.6876851\PG=C01 [X(C13H13N1O2S1)]\\@
 The archive entry for this job was punched.


 AN AIRPLANE IS A COLLECTION OF SPARE PARTS
 FLYING IN CLOSE FORMATION.
 Job cpu time:       0 days  2 hours 55 minutes 47.5 seconds.
 Elapsed time:       0 days  0 hours 22 minutes 27.3 seconds.
 File lengths (MBytes):  RWF=    226 Int=      0 D2E=      0 Chk=     34 Scr=      2
 Normal termination of Gaussian 16 at Tue Feb 17 18:03:54 2026.
