 Entering Gaussian System, Link 0=g16
 Input=prod_5l_30.com
 Output=prod_5l_30.log
 Initial command:
 /uufs/chpc.utah.edu/sys/installdir/gaussian16/C01/AVX/g16/l1.exe "/scratch/general/vast/u1366379/GAUSSSCRDIR/11028706-notchpeak.peaks/Gau-1511725.inp" -scrdir="/scratch/general/vast/u1366379/GAUSSSCRDIR/11028706-notchpeak.peaks/"
 Entering Link 1 = /uufs/chpc.utah.edu/sys/installdir/gaussian16/C01/AVX/g16/l1.exe PID=   1511734.
  
 Copyright (c) 1988-2019, Gaussian, Inc.  All Rights Reserved.
  
 This is part of the Gaussian(R) 16 program.  It is based on
 the Gaussian(R) 09 system (copyright 2009, Gaussian, Inc.),
 the Gaussian(R) 03 system (copyright 2003, Gaussian, Inc.),
 the Gaussian(R) 98 system (copyright 1998, Gaussian, Inc.),
 the Gaussian(R) 94 system (copyright 1995, Gaussian, Inc.),
 the Gaussian 92(TM) system (copyright 1992, Gaussian, Inc.),
 the Gaussian 90(TM) system (copyright 1990, Gaussian, Inc.),
 the Gaussian 88(TM) system (copyright 1988, Gaussian, Inc.),
 the Gaussian 86(TM) system (copyright 1986, Carnegie Mellon
 University), and the Gaussian 82(TM) system (copyright 1983,
 Carnegie Mellon University). Gaussian is a federally registered
 trademark of Gaussian, Inc.
  
 This software contains proprietary and confidential information,
 including trade secrets, belonging to Gaussian, Inc.
  
 This software is provided under written license and may be
 used, copied, transmitted, or stored only in accord with that
 written license.
  
 The following legend is applicable only to US Government
 contracts under FAR:
  
                    RESTRICTED RIGHTS LEGEND
  
 Use, reproduction and disclosure by the US Government is
 subject to restrictions as set forth in subparagraphs (a)
 and (c) of the Commercial Computer Software - Restricted
 Rights clause in FAR 52.227-19.
  
 Gaussian, Inc.
 340 Quinnipiac St., Bldg. 40, Wallingford CT 06492
  
  
 ---------------------------------------------------------------
 Warning -- This program may not be used in any manner that
 competes with the business of Gaussian, Inc. or will provide
 assistance to any competitor of Gaussian, Inc.  The licensee
 of this program is prohibited from giving any competitor of
 Gaussian, Inc. access to this program.  By using this program,
 the user acknowledges that Gaussian, Inc. is engaged in the
 business of creating and licensing software in the field of
 computational chemistry and represents and warrants to the
 licensee that it is not a competitor of Gaussian, Inc. and that
 it will not use this program in any manner prohibited above.
 ---------------------------------------------------------------
  

 Cite this work as:
 Gaussian 16, Revision C.01,
 M. J. Frisch, G. W. Trucks, H. B. Schlegel, G. E. Scuseria, 
 M. A. Robb, J. R. Cheeseman, G. Scalmani, V. Barone, 
 G. A. Petersson, H. Nakatsuji, X. Li, M. Caricato, A. V. Marenich, 
 J. Bloino, B. G. Janesko, R. Gomperts, B. Mennucci, H. P. Hratchian, 
 J. V. Ortiz, A. F. Izmaylov, J. L. Sonnenberg, D. Williams-Young, 
 F. Ding, F. Lipparini, F. Egidi, J. Goings, B. Peng, A. Petrone, 
 T. Henderson, D. Ranasinghe, V. G. Zakrzewski, J. Gao, N. Rega, 
 G. Zheng, W. Liang, M. Hada, M. Ehara, K. Toyota, R. Fukuda, 
 J. Hasegawa, M. Ishida, T. Nakajima, Y. Honda, O. Kitao, H. Nakai, 
 T. Vreven, K. Throssell, J. A. Montgomery, Jr., J. E. Peralta, 
 F. Ogliaro, M. J. Bearpark, J. J. Heyd, E. N. Brothers, K. N. Kudin, 
 V. N. Staroverov, T. A. Keith, R. Kobayashi, J. Normand, 
 K. Raghavachari, A. P. Rendell, J. C. Burant, S. S. Iyengar, 
 J. Tomasi, M. Cossi, J. M. Millam, M. Klene, C. Adamo, R. Cammi, 
 J. W. Ochterski, R. L. Martin, K. Morokuma, O. Farkas, 
 J. B. Foresman, and D. J. Fox, Gaussian, Inc., Wallingford CT, 2019.
 
 ******************************************
 Gaussian 16:  ES64L-G16RevC.01  3-Jul-2019
                17-Feb-2026 
 ******************************************
 %NProcShared=8
 Will use up to    8 processors via shared memory.
 %Mem=8GB
 %chk=prod_5l_30.chk
 ------------------------------------------------------
 #N OPT FREQ=NORAMAN Integral(Ultrafine) wB97XD def2SVP
 ------------------------------------------------------
 1/18=20,19=15,26=4,38=1/1,3;
 2/9=110,12=2,17=6,18=5,40=1/2;
 3/5=43,7=101,11=2,25=1,30=1,71=1,74=-58,75=-5/1,2,3;
 4//1;
 5/5=2,38=5/2;
 6/7=2,8=2,9=2,10=2,28=1/1;
 7//1,2,3,16;
 1/18=20,19=15,26=4/3(2);
 2/9=110/2;
 99//99;
 2/9=110/2;
 3/5=43,7=101,11=2,25=1,30=1,71=1,74=-58,75=-5/1,2,3;
 4/5=5,16=3,69=1/1;
 5/5=2,38=5/2;
 7//1,2,3,16;
 1/18=20,19=15,26=4/3(-5);
 2/9=110/2;
 6/7=2,8=2,9=2,10=2,19=2,28=1/1;
 99/9=1/99;
 ----------
 prod_5l_30
 ----------
 Symbolic Z-matrix:
 Charge =  0 Multiplicity = 1
 O                     0.42339   1.94151   1.25426 
 S                     0.00197   1.65207  -0.15634 
 N                     1.04525   0.60986  -1.02363 
 C                     2.04821  -0.13514  -0.40524 
 C                     2.16694  -0.25704   0.98325 
 C                     3.14888  -1.03543   1.54726 
 C                     4.04285  -1.71317   0.74283 
 C                     3.95165  -1.60378  -0.63053 
 C                     2.97025  -0.82612  -1.19901 
 C                    -1.36835   0.49649  -0.05571 
 C                    -1.76168   0.00749   1.16662 
 C                    -2.80909  -0.88752   1.24661 
 C                    -3.46858  -1.30514   0.09967 
 C                    -4.61401  -2.25072   0.18596 
 C                    -3.0661   -0.79103  -1.12466 
 C                    -2.01819   0.10407  -1.20081 
 O                    -0.37903   2.74491  -1.11053 
 H                     1.29706   1.12078  -1.84719 
 H                     1.49489   0.30037   1.60875 
 H                     3.22592  -1.11013   2.61954 
 H                     4.81313  -2.32248   1.186 
 H                     4.65076  -2.13076  -1.25879 
 H                     2.89036  -0.74655  -2.26884 
 H                    -1.24774   0.33905   2.05384 
 H                    -3.12393  -1.26613   2.20369 
 H                    -5.55163  -1.71061   0.31972 
 H                    -4.69725  -2.85146  -0.72016 
 H                    -4.4962   -2.93506   1.02663 
 H                    -3.58186  -1.09504  -2.01913 
 H                    -1.70395   0.50737  -2.14939 
 

 GradGradGradGradGradGradGradGradGradGradGradGradGradGradGradGradGradGrad
 Berny optimization.
 Initialization pass.
                           ----------------------------
                           !    Initial Parameters    !
                           ! (Angstroms and Degrees)  !
 --------------------------                            --------------------------
 ! Name  Definition              Value          Derivative Info.                !
 --------------------------------------------------------------------------------
 ! R1    R(1,2)                  1.5004         estimate D2E/DX2                !
 ! R2    R(2,3)                  1.7108         estimate D2E/DX2                !
 ! R3    R(2,10)                 1.7953         estimate D2E/DX2                !
 ! R4    R(2,17)                 1.5            estimate D2E/DX2                !
 ! R5    R(3,4)                  1.394          estimate D2E/DX2                !
 ! R6    R(3,18)                 1.0013         estimate D2E/DX2                !
 ! R7    R(4,5)                  1.3989         estimate D2E/DX2                !
 ! R8    R(4,9)                  1.3992         estimate D2E/DX2                !
 ! R9    R(5,6)                  1.3741         estimate D2E/DX2                !
 ! R10   R(5,19)                 1.0741         estimate D2E/DX2                !
 ! R11   R(6,7)                  1.3804         estimate D2E/DX2                !
 ! R12   R(6,20)                 1.0776         estimate D2E/DX2                !
 ! R13   R(7,8)                  1.3807         estimate D2E/DX2                !
 ! R14   R(7,21)                 1.0775         estimate D2E/DX2                !
 ! R15   R(8,9)                  1.3752         estimate D2E/DX2                !
 ! R16   R(8,22)                 1.0776         estimate D2E/DX2                !
 ! R17   R(9,23)                 1.0758         estimate D2E/DX2                !
 ! R18   R(10,11)                1.374          estimate D2E/DX2                !
 ! R19   R(10,16)                1.3739         estimate D2E/DX2                !
 ! R20   R(11,12)                1.38           estimate D2E/DX2                !
 ! R21   R(11,24)                1.0776         estimate D2E/DX2                !
 ! R22   R(12,13)                1.3874         estimate D2E/DX2                !
 ! R23   R(12,25)                1.0763         estimate D2E/DX2                !
 ! R24   R(13,14)                1.4878         estimate D2E/DX2                !
 ! R25   R(13,15)                1.3875         estimate D2E/DX2                !
 ! R26   R(14,26)                1.0903         estimate D2E/DX2                !
 ! R27   R(14,27)                1.0904         estimate D2E/DX2                !
 ! R28   R(14,28)                1.0904         estimate D2E/DX2                !
 ! R29   R(15,16)                1.3803         estimate D2E/DX2                !
 ! R30   R(15,29)                1.0763         estimate D2E/DX2                !
 ! R31   R(16,30)                1.0776         estimate D2E/DX2                !
 ! A1    A(1,2,3)              115.0147         estimate D2E/DX2                !
 ! A2    A(1,2,10)             106.6098         estimate D2E/DX2                !
 ! A3    A(1,2,17)             121.9286         estimate D2E/DX2                !
 ! A4    A(3,2,10)              95.8404         estimate D2E/DX2                !
 ! A5    A(3,2,17)             106.0365         estimate D2E/DX2                !
 ! A6    A(10,2,17)            108.1033         estimate D2E/DX2                !
 ! A7    A(2,3,4)              122.6446         estimate D2E/DX2                !
 ! A8    A(2,3,18)             105.0382         estimate D2E/DX2                !
 ! A9    A(4,3,18)             117.1671         estimate D2E/DX2                !
 ! A10   A(3,4,5)              123.2254         estimate D2E/DX2                !
 ! A11   A(3,4,9)              119.103          estimate D2E/DX2                !
 ! A12   A(5,4,9)              117.6542         estimate D2E/DX2                !
 ! A13   A(4,5,6)              121.1592         estimate D2E/DX2                !
 ! A14   A(4,5,19)             118.6667         estimate D2E/DX2                !
 ! A15   A(6,5,19)             120.1374         estimate D2E/DX2                !
 ! A16   A(5,6,7)              120.1123         estimate D2E/DX2                !
 ! A17   A(5,6,20)             119.9183         estimate D2E/DX2                !
 ! A18   A(7,6,20)             119.9675         estimate D2E/DX2                !
 ! A19   A(6,7,8)              119.8647         estimate D2E/DX2                !
 ! A20   A(6,7,21)             120.0602         estimate D2E/DX2                !
 ! A21   A(8,7,21)             120.0745         estimate D2E/DX2                !
 ! A22   A(7,8,9)              120.2072         estimate D2E/DX2                !
 ! A23   A(7,8,22)             119.889          estimate D2E/DX2                !
 ! A24   A(9,8,22)             119.9037         estimate D2E/DX2                !
 ! A25   A(4,9,8)              121.0006         estimate D2E/DX2                !
 ! A26   A(4,9,23)             118.6019         estimate D2E/DX2                !
 ! A27   A(8,9,23)             120.3939         estimate D2E/DX2                !
 ! A28   A(2,10,11)            119.8299         estimate D2E/DX2                !
 ! A29   A(2,10,16)            119.8777         estimate D2E/DX2                !
 ! A30   A(11,10,16)           120.2924         estimate D2E/DX2                !
 ! A31   A(10,11,12)           119.9761         estimate D2E/DX2                !
 ! A32   A(10,11,24)           119.1047         estimate D2E/DX2                !
 ! A33   A(12,11,24)           120.9172         estimate D2E/DX2                !
 ! A34   A(11,12,13)           120.5361         estimate D2E/DX2                !
 ! A35   A(11,12,25)           120.1114         estimate D2E/DX2                !
 ! A36   A(13,12,25)           119.3523         estimate D2E/DX2                !
 ! A37   A(12,13,14)           120.6189         estimate D2E/DX2                !
 ! A38   A(12,13,15)           118.688          estimate D2E/DX2                !
 ! A39   A(14,13,15)           120.6621         estimate D2E/DX2                !
 ! A40   A(13,14,26)           110.7534         estimate D2E/DX2                !
 ! A41   A(13,14,27)           111.1456         estimate D2E/DX2                !
 ! A42   A(13,14,28)           111.1258         estimate D2E/DX2                !
 ! A43   A(26,14,27)           108.0131         estimate D2E/DX2                !
 ! A44   A(26,14,28)           108.0133         estimate D2E/DX2                !
 ! A45   A(27,14,28)           107.6484         estimate D2E/DX2                !
 ! A46   A(13,15,16)           120.6095         estimate D2E/DX2                !
 ! A47   A(13,15,29)           119.3163         estimate D2E/DX2                !
 ! A48   A(16,15,29)           120.074          estimate D2E/DX2                !
 ! A49   A(10,16,15)           119.891          estimate D2E/DX2                !
 ! A50   A(10,16,30)           119.2659         estimate D2E/DX2                !
 ! A51   A(15,16,30)           120.8419         estimate D2E/DX2                !
 ! D1    D(1,2,3,4)             12.7863         estimate D2E/DX2                !
 ! D2    D(1,2,3,18)          -124.4015         estimate D2E/DX2                !
 ! D3    D(10,2,3,4)           -98.61           estimate D2E/DX2                !
 ! D4    D(10,2,3,18)          124.2022         estimate D2E/DX2                !
 ! D5    D(17,2,3,4)           150.6334         estimate D2E/DX2                !
 ! D6    D(17,2,3,18)           13.4456         estimate D2E/DX2                !
 ! D7    D(1,2,10,11)           -3.7811         estimate D2E/DX2                !
 ! D8    D(1,2,10,16)          176.2792         estimate D2E/DX2                !
 ! D9    D(3,2,10,11)          114.5182         estimate D2E/DX2                !
 ! D10   D(3,2,10,16)          -65.4215         estimate D2E/DX2                !
 ! D11   D(17,2,10,11)        -136.4804         estimate D2E/DX2                !
 ! D12   D(17,2,10,16)          43.5799         estimate D2E/DX2                !
 ! D13   D(2,3,4,5)              9.8902         estimate D2E/DX2                !
 ! D14   D(2,3,4,9)           -171.6638         estimate D2E/DX2                !
 ! D15   D(18,3,4,5)           142.3536         estimate D2E/DX2                !
 ! D16   D(18,3,4,9)           -39.2004         estimate D2E/DX2                !
 ! D17   D(3,4,5,6)            178.0269         estimate D2E/DX2                !
 ! D18   D(3,4,5,19)            -4.1758         estimate D2E/DX2                !
 ! D19   D(9,4,5,6)             -0.4402         estimate D2E/DX2                !
 ! D20   D(9,4,5,19)           177.3572         estimate D2E/DX2                !
 ! D21   D(3,4,9,8)           -178.1092         estimate D2E/DX2                !
 ! D22   D(3,4,9,23)             1.2056         estimate D2E/DX2                !
 ! D23   D(5,4,9,8)              0.4232         estimate D2E/DX2                !
 ! D24   D(5,4,9,23)           179.738          estimate D2E/DX2                !
 ! D25   D(4,5,6,7)              0.1204         estimate D2E/DX2                !
 ! D26   D(4,5,6,20)           179.6131         estimate D2E/DX2                !
 ! D27   D(19,5,6,7)          -177.6448         estimate D2E/DX2                !
 ! D28   D(19,5,6,20)            1.8479         estimate D2E/DX2                !
 ! D29   D(5,6,7,8)              0.2305         estimate D2E/DX2                !
 ! D30   D(5,6,7,21)           179.9364         estimate D2E/DX2                !
 ! D31   D(20,6,7,8)          -179.262          estimate D2E/DX2                !
 ! D32   D(20,6,7,21)            0.4439         estimate D2E/DX2                !
 ! D33   D(6,7,8,9)             -0.2469         estimate D2E/DX2                !
 ! D34   D(6,7,8,22)           179.8525         estimate D2E/DX2                !
 ! D35   D(21,7,8,9)          -179.9527         estimate D2E/DX2                !
 ! D36   D(21,7,8,22)            0.1467         estimate D2E/DX2                !
 ! D37   D(7,8,9,4)             -0.0873         estimate D2E/DX2                !
 ! D38   D(7,8,9,23)          -179.3899         estimate D2E/DX2                !
 ! D39   D(22,8,9,4)           179.8133         estimate D2E/DX2                !
 ! D40   D(22,8,9,23)            0.5106         estimate D2E/DX2                !
 ! D41   D(2,10,11,12)        -179.5849         estimate D2E/DX2                !
 ! D42   D(2,10,11,24)           0.9337         estimate D2E/DX2                !
 ! D43   D(16,10,11,12)          0.3545         estimate D2E/DX2                !
 ! D44   D(16,10,11,24)       -179.1268         estimate D2E/DX2                !
 ! D45   D(2,10,16,15)         179.5788         estimate D2E/DX2                !
 ! D46   D(2,10,16,30)          -0.8192         estimate D2E/DX2                !
 ! D47   D(11,10,16,15)         -0.3606         estimate D2E/DX2                !
 ! D48   D(11,10,16,30)        179.2414         estimate D2E/DX2                !
 ! D49   D(10,11,12,13)          0.2782         estimate D2E/DX2                !
 ! D50   D(10,11,12,25)       -179.5287         estimate D2E/DX2                !
 ! D51   D(24,11,12,13)        179.7499         estimate D2E/DX2                !
 ! D52   D(24,11,12,25)         -0.0569         estimate D2E/DX2                !
 ! D53   D(11,12,13,14)       -178.8755         estimate D2E/DX2                !
 ! D54   D(11,12,13,15)         -0.8853         estimate D2E/DX2                !
 ! D55   D(25,12,13,14)          0.9329         estimate D2E/DX2                !
 ! D56   D(25,12,13,15)        178.923          estimate D2E/DX2                !
 ! D57   D(12,13,14,26)         88.4172         estimate D2E/DX2                !
 ! D58   D(12,13,14,27)       -151.5079         estimate D2E/DX2                !
 ! D59   D(12,13,14,28)        -31.6448         estimate D2E/DX2                !
 ! D60   D(15,13,14,26)        -89.5331         estimate D2E/DX2                !
 ! D61   D(15,13,14,27)         30.5418         estimate D2E/DX2                !
 ! D62   D(15,13,14,28)        150.4049         estimate D2E/DX2                !
 ! D63   D(12,13,15,16)          0.8795         estimate D2E/DX2                !
 ! D64   D(12,13,15,29)       -178.9479         estimate D2E/DX2                !
 ! D65   D(14,13,15,16)        178.8688         estimate D2E/DX2                !
 ! D66   D(14,13,15,29)         -0.9586         estimate D2E/DX2                !
 ! D67   D(13,15,16,10)         -0.2657         estimate D2E/DX2                !
 ! D68   D(13,15,16,30)       -179.8613         estimate D2E/DX2                !
 ! D69   D(29,15,16,10)        179.5604         estimate D2E/DX2                !
 ! D70   D(29,15,16,30)         -0.0352         estimate D2E/DX2                !
 --------------------------------------------------------------------------------
 Trust Radius=3.00D-01 FncErr=1.00D-07 GrdErr=1.00D-06 EigMax=2.50D+02 EigMin=1.00D-04
 Number of steps in this run=    162 maximum allowed number of steps=    180.
 GradGradGradGradGradGradGradGradGradGradGradGradGradGradGradGradGradGrad

                          Input orientation:                          
 ---------------------------------------------------------------------
 Center     Atomic      Atomic             Coordinates (Angstroms)
 Number     Number       Type             X           Y           Z
 ---------------------------------------------------------------------
      1          8           0        0.423390    1.941510    1.254260
      2         16           0        0.001970    1.652070   -0.156340
      3          7           0        1.045250    0.609860   -1.023630
      4          6           0        2.048210   -0.135140   -0.405240
      5          6           0        2.166940   -0.257040    0.983250
      6          6           0        3.148880   -1.035430    1.547260
      7          6           0        4.042850   -1.713170    0.742830
      8          6           0        3.951650   -1.603780   -0.630530
      9          6           0        2.970250   -0.826120   -1.199010
     10          6           0       -1.368350    0.496490   -0.055710
     11          6           0       -1.761680    0.007490    1.166620
     12          6           0       -2.809090   -0.887520    1.246610
     13          6           0       -3.468580   -1.305140    0.099670
     14          6           0       -4.614010   -2.250720    0.185960
     15          6           0       -3.066100   -0.791030   -1.124660
     16          6           0       -2.018190    0.104070   -1.200810
     17          8           0       -0.379030    2.744910   -1.110530
     18          1           0        1.297060    1.120780   -1.847190
     19          1           0        1.494890    0.300370    1.608750
     20          1           0        3.225920   -1.110130    2.619540
     21          1           0        4.813130   -2.322480    1.186000
     22          1           0        4.650760   -2.130760   -1.258790
     23          1           0        2.890360   -0.746550   -2.268840
     24          1           0       -1.247740    0.339050    2.053840
     25          1           0       -3.123930   -1.266130    2.203690
     26          1           0       -5.551630   -1.710610    0.319720
     27          1           0       -4.697250   -2.851460   -0.720160
     28          1           0       -4.496200   -2.935060    1.026630
     29          1           0       -3.581860   -1.095040   -2.019130
     30          1           0       -1.703950    0.507370   -2.149390
 ---------------------------------------------------------------------
                    Distance matrix (angstroms):
                    1          2          3          4          5
     1  O    0.000000
     2  S    1.500388   0.000000
     3  N    2.710864   1.710797   0.000000
     4  C    3.115518   2.728217   1.394044   0.000000
     5  C    2.819049   3.103298   2.457086   1.398878   0.000000
     6  C    4.046766   4.475260   3.706982   2.415420   1.374120
     7  C    5.169017   5.334984   4.183594   2.790490   2.386871
     8  C    5.345104   5.140563   3.674492   2.414693   2.757387
     9  C    4.490524   4.004906   2.407991   1.399172   2.394038
    10  C    2.648478   1.795346   2.602919   3.491992   3.761053
    11  C    2.919357   2.750514   3.610942   4.123875   3.941783
    12  C    4.295625   4.039783   4.717210   5.185369   5.022722
    13  C    5.198196   4.566766   5.030277   5.662050   5.799855
    14  C    6.640140   6.054437   6.455482   7.015010   7.112785
    15  C    5.030167   4.039732   4.344640   5.206143   5.666845
    16  C    3.919805   2.751049   3.109965   4.150393   4.734536
    17  O    2.623273   1.499980   2.567988   3.831921   4.458428
    18  H    3.325040   2.195108   1.001348   2.054454   3.265956
    19  H    1.991762   2.677956   2.688380   2.133539   1.074061
    20  H    4.362416   5.072387   4.581089   3.389233   2.127592
    21  H    6.120138   6.383274   5.260989   3.867982   3.362956
    22  H    6.385097   6.093968   4.534975   3.388851   3.834962
    23  H    5.071868   4.307996   2.606689   2.134489   3.367350
    24  H    2.449466   2.858442   3.847332   4.139471   3.627882
    25  H    4.875844   4.884351   5.596159   5.902261   5.522775
    26  H    7.064857   6.509741   7.120955   7.795206   7.882224
    27  H    7.286415   6.533173   6.711865   7.278654   7.533241
    28  H    6.930737   6.532589   6.890406   7.260792   7.181303
    29  H    5.998145   4.884715   5.030691   5.934959   6.539513
    30  H    4.262296   2.862298   2.972531   4.187312   5.038010
                    6          7          8          9         10
     6  C    0.000000
     7  C    1.380442   0.000000
     8  C    2.389609   1.380725   0.000000
     9  C    2.760021   2.389157   1.375162   0.000000
    10  C    5.032063   5.899267   5.748387   4.677594   0.000000
    11  C    5.034498   6.069006   6.202264   5.355583   1.374016
    12  C    5.967384   6.919868   7.052963   6.275795   2.384796
    13  C    6.779309   7.549949   7.462050   6.585937   2.771458
    14  C    7.974492   8.691392   8.628773   7.840193   4.259093
    15  C    6.769406   7.407768   7.081917   6.036910   2.383845
    16  C    5.962295   6.619388   6.235460   5.074425   1.373878
    17  O    5.813860   6.546942   6.155997   4.896709   2.673348
    18  H    4.427276   4.720046   3.993787   2.647663   3.271628
    19  H    2.126929   3.360991   3.830905   3.365885   3.317685
    20  H    1.077636   2.133793   3.366501   3.837623   5.553873
    21  H    2.134651   1.077492   2.135055   3.365052   6.906456
    22  H    3.365904   2.133171   1.077578   2.128326   6.676790
    23  H    3.835740   3.366414   2.131957   1.075756   4.957792
    24  H    4.634230   5.824148   6.165557   5.452531   2.118852
    25  H    6.311281   7.327803   7.629590   6.993640   3.360622
    26  H    8.812582   9.603805   9.551268   8.701224   4.744689
    27  H    8.366655   8.934506   8.738891   7.944926   4.767792
    28  H    7.894739   8.630697   8.711180   8.071492   4.767645
    29  H    7.617450   8.133063   7.677291   6.608711   3.359704
    30  H    6.292489   6.805986   6.224926   4.952733   2.120434
                   11         12         13         14         15
    11  C    0.000000
    12  C    1.380039   0.000000
    13  C    2.403100   1.387373   0.000000
    14  C    3.767890   2.498205   1.487810   0.000000
    15  C    2.754834   2.387108   1.387546   2.498889   0.000000
    16  C    2.383244   2.756563   2.404319   3.769144   1.380260
    17  O    3.819765   4.965466   5.235724   6.676246   4.441105
    18  H    4.436029   5.519541   5.690929   7.102215   4.818115
    19  H    3.299471   4.479562   5.430563   6.771340   5.428196
    20  H    5.313775   6.193209   7.155704   8.287808   7.328736
    21  H    6.975476   7.756354   8.414381   9.480306   8.352650
    22  H    7.181512   7.966934   8.273496   9.377508   7.833441
    23  H    5.832018   6.697909   6.808669   8.037670   6.065521
    24  H    1.077602   2.143340   3.384416   4.639791   3.832281
    25  H    2.133857   1.076323   2.132418   2.694622   3.362585
    26  H    4.246508   3.009672   2.133524   1.090294   3.018231
    27  H    4.511220   3.360118   2.138424   1.090354   2.658880
    28  H    4.019427   2.662170   2.138199   1.090379   3.357097
    29  H    3.831140   3.362335   2.132203   2.695061   1.076340
    30  H    3.353973   3.834041   3.384876   4.639975   2.142747
                   16         17         18         19         20
    16  C    0.000000
    17  O    3.109507   0.000000
    18  H    3.527377   2.447395   0.000000
    19  H    4.502654   4.108751   3.557489   0.000000
    20  H    6.600761   6.463004   5.352489   2.451055   0.000000
    21  H    7.632296   7.609929   5.780919   4.250738   2.458468
    22  H    7.033685   7.006634   4.708081   4.908431   4.255972
    23  H    5.094910   4.921472   2.490645   4.251950   4.913354
    24  H    3.352843   4.068913   4.722832   2.778780   4.736430
    25  H    3.832849   5.882769   6.453845   4.913387   6.365364
    26  H    4.253266   6.975175   7.721193   7.440368   9.093686
    27  H    4.017903   7.079461   7.278780   7.328059   8.772824
    28  H    4.509804   7.333526   7.633514   6.833742   8.093137
    29  H    2.133677   5.082213   5.361276   6.393909   8.237922
    30  H    1.077591   2.800219   3.077931   4.939539   7.047171
                   21         22         23         24         25
    21  H    0.000000
    22  H    2.457665   0.000000
    23  H    4.256350   2.456674   0.000000
    24  H    6.676154   7.201790   6.081773   0.000000
    25  H    8.071461   8.554657   7.513000   2.473691   0.000000
    26  H   10.418881  10.332327   8.882412   5.072647   3.104937
    27  H    9.713938   9.391210   8.025016   5.456514   3.679335
    28  H    9.330824   9.462395   8.379198   4.725193   2.460472
    29  H    9.069472   8.332278   6.486404   4.908545   4.251021
    30  H    7.848899   6.937956   4.763850   4.231265   4.910290
                   26         27         28         29         30
    26  H    0.000000
    27  H    1.764328   0.000000
    28  H    1.764350   1.760308   0.000000
    29  H    3.119157   2.452841   3.674009   0.000000
    30  H    5.081396   4.720623   5.452897   2.472091   0.000000
 Stoichiometry    C13H13NO2S
 Framework group  C1[X(C13H13NO2S)]
 Deg. of freedom    84
 Full point group                 C1      NOp   1
 Largest Abelian subgroup         C1      NOp   1
 Largest concise Abelian subgroup C1      NOp   1
                         Standard orientation:                         
 ---------------------------------------------------------------------
 Center     Atomic      Atomic             Coordinates (Angstroms)
 Number     Number       Type             X           Y           Z
 ---------------------------------------------------------------------
      1          8           0        0.514713    1.652907    1.657174
      2         16           0        0.061567    1.696370    0.227513
      3          7           0        1.064788    0.857064   -0.875184
      4          6           0        2.061135   -0.026488   -0.462889
      5          6           0        2.201809   -0.460072    0.859638
      6          6           0        3.175401   -1.363517    1.211930
      7          6           0        4.038932   -1.859165    0.255756
      8          6           0        3.925757   -1.441685   -1.055466
      9          6           0        2.952608   -0.537954   -1.412289
     10          6           0       -1.333105    0.573390    0.096838
     11          6           0       -1.715734   -0.170905    1.186582
     12          6           0       -2.781974   -1.041386    1.087056
     13          6           0       -3.471342   -1.177746   -0.109181
     14          6           0       -4.636617   -2.097092   -0.211717
     15          6           0       -3.079021   -0.408709   -1.195436
     16          6           0       -2.012211    0.460985   -1.092161
     17          8           0       -0.311040    2.982859   -0.447801
     18          1           0        1.313592    1.535546   -1.568335
     19          1           0        1.554122   -0.045465    1.609445
     20          1           0        3.269843   -1.679150    2.237969
     21          1           0        4.802706   -2.566773    0.533116
     22          1           0        4.601147   -1.826528   -1.801735
     23          1           0        2.855473   -0.218076   -2.434783
     24          1           0       -1.178487   -0.057205    2.113762
     25          1           0       -3.088334   -1.619874    1.941437
     26          1           0       -5.558950   -1.583698    0.061176
     27          1           0       -4.749915   -2.476734   -1.227545
     28          1           0       -4.519666   -2.955208    0.450768
     29          1           0       -3.617580   -0.493905   -2.123446
     30          1           0       -1.705728    1.061622   -1.932699
 ---------------------------------------------------------------------
 Rotational constants (GHZ):           0.6845228           0.2733343           0.2370958
 Standard basis: def2SVP (5D, 7F)
 There are   324 symmetry adapted cartesian basis functions of A   symmetry.
 There are   307 symmetry adapted basis functions of A   symmetry.
   307 basis functions,   528 primitive gaussians,   324 cartesian basis functions
    65 alpha electrons       65 beta electrons
       nuclear repulsion energy      1310.1556892192 Hartrees.
 NAtoms=   30 NActive=   30 NUniq=   30 SFac= 1.00D+00 NAtFMM=   60 NAOKFM=F Big=F
 Integral buffers will be    131072 words long.
 Raffenetti 2 integral format.
 Two-electron integral symmetry is turned on.
 Nuclear repulsion after empirical dispersion term =     1310.1367492104 Hartrees.
 One-electron integrals computed using PRISM.
   1 Symmetry operations used in ECPInt.
 ECPInt:  NShTT=   10296 NPrTT=   38220 LenC2=    9423 LenP2D=   24686.
 LDataN:  DoStor=T MaxTD1= 4 Len=   56
 NBasis=   307 RedAO= T EigKep=  2.40D-04  NBF=   307
 NBsUse=   307 1.00D-06 EigRej= -1.00D+00 NBFU=   307
 ExpMin= 1.22D-01 ExpMax= 9.18D+03 ExpMxC= 1.38D+03 IAcc=3 IRadAn=         5 AccDes= 0.00D+00
 Harris functional with IExCor= 4639 and IRadAn=       5 diagonalized for initial guess.
 HarFok:  IExCor= 4639 AccDes= 0.00D+00 IRadAn=         5 IDoV= 1 UseB2=F ITyADJ=14
 ICtDFT=  3500011 ScaDFX=  1.000000  1.000000  1.000000  1.000000
 FoFCou: FMM=F IPFlag=           0 FMFlag=      100000 FMFlg1=           0
         NFxFlg=           0 DoJE=T BraDBF=F KetDBF=T FulRan=T
         wScrn=  0.000000 ICntrl=       500 IOpCl=  0 I1Cent=   200000004 NGrid=           0
         NMat0=    1 NMatS0=      1 NMatT0=    0 NMatD0=    1 NMtDS0=    0 NMtDT0=    0
 Petite list used in FoFCou.
 Requested convergence on RMS density matrix=1.00D-08 within 128 cycles.
 Requested convergence on MAX density matrix=1.00D-06.
 Requested convergence on             energy=1.00D-06.
 No special actions if energy rises.
 Integral accuracy reduced to 1.0D-05 until final iterations.
 Initial convergence to 1.0D-05 achieved.  Increase integral accuracy.
 SCF Done:  E(RwB97XD) =  -1105.64480093     A.U. after   16 cycles
            NFock= 16  Conv=0.38D-08     -V/T= 2.0071

 **********************************************************************

            Population analysis using the SCF Density.

 **********************************************************************

 Orbital symmetries:
       Occupied  (A) (A) (A) (A) (A) (A) (A) (A) (A) (A) (A) (A)
                 (A) (A) (A) (A) (A) (A) (A) (A) (A) (A) (A) (A)
                 (A) (A) (A) (A) (A) (A) (A) (A) (A) (A) (A) (A)
                 (A) (A) (A) (A) (A) (A) (A) (A) (A) (A) (A) (A)
                 (A) (A) (A) (A) (A) (A) (A) (A) (A) (A) (A) (A)
                 (A) (A) (A) (A) (A)
       Virtual   (A) (A) (A) (A) (A) (A) (A) (A) (A) (A) (A) (A)
                 (A) (A) (A) (A) (A) (A) (A) (A) (A) (A) (A) (A)
                 (A) (A) (A) (A) (A) (A) (A) (A) (A) (A) (A) (A)
                 (A) (A) (A) (A) (A) (A) (A) (A) (A) (A) (A) (A)
                 (A) (A) (A) (A) (A) (A) (A) (A) (A) (A) (A) (A)
                 (A) (A) (A) (A) (A) (A) (A) (A) (A) (A) (A) (A)
                 (A) (A) (A) (A) (A) (A) (A) (A) (A) (A) (A) (A)
                 (A) (A) (A) (A) (A) (A) (A) (A) (A) (A) (A) (A)
                 (A) (A) (A) (A) (A) (A) (A) (A) (A) (A) (A) (A)
                 (A) (A) (A) (A) (A) (A) (A) (A) (A) (A) (A) (A)
                 (A) (A) (A) (A) (A) (A) (A) (A) (A) (A) (A) (A)
                 (A) (A) (A) (A) (A) (A) (A) (A) (A) (A) (A) (A)
                 (A) (A) (A) (A) (A) (A) (A) (A) (A) (A) (A) (A)
                 (A) (A) (A) (A) (A) (A) (A) (A) (A) (A) (A) (A)
                 (A) (A) (A) (A) (A) (A) (A) (A) (A) (A) (A) (A)
                 (A) (A) (A) (A) (A) (A) (A) (A) (A) (A) (A) (A)
                 (A) (A) (A) (A) (A) (A) (A) (A) (A) (A) (A) (A)
                 (A) (A) (A) (A) (A) (A) (A) (A) (A) (A) (A) (A)
                 (A) (A) (A) (A) (A) (A) (A) (A) (A) (A) (A) (A)
                 (A) (A) (A) (A) (A) (A) (A) (A) (A) (A) (A) (A)
                 (A) (A)
 The electronic state is 1-A.
 Alpha  occ. eigenvalues --  -89.25854 -19.26418 -19.25964 -14.49824 -10.35527
 Alpha  occ. eigenvalues --  -10.33336 -10.32535 -10.32303 -10.32079 -10.31440
 Alpha  occ. eigenvalues --  -10.31298 -10.30714 -10.30476 -10.30338 -10.30023
 Alpha  occ. eigenvalues --  -10.29512 -10.29366  -8.27603  -6.23039  -6.22942
 Alpha  occ. eigenvalues --   -6.22794  -1.20454  -1.09149  -1.05198  -0.98592
 Alpha  occ. eigenvalues --   -0.95308  -0.90205  -0.86340  -0.85062  -0.84641
 Alpha  occ. eigenvalues --   -0.81391  -0.75899  -0.72545  -0.71505  -0.70830
 Alpha  occ. eigenvalues --   -0.68005  -0.64557  -0.63590  -0.60504  -0.58778
 Alpha  occ. eigenvalues --   -0.58309  -0.56422  -0.54773  -0.54095  -0.53482
 Alpha  occ. eigenvalues --   -0.52954  -0.52801  -0.52693  -0.51514  -0.49606
 Alpha  occ. eigenvalues --   -0.48512  -0.47303  -0.46324  -0.46025  -0.44203
 Alpha  occ. eigenvalues --   -0.44084  -0.42757  -0.41581  -0.40851  -0.39299
 Alpha  occ. eigenvalues --   -0.38696  -0.35336  -0.34611  -0.33828  -0.30518
 Alpha virt. eigenvalues --    0.02802   0.04409   0.06027   0.06387   0.10835
 Alpha virt. eigenvalues --    0.13017   0.13655   0.14766   0.15270   0.16030
 Alpha virt. eigenvalues --    0.17006   0.17228   0.18643   0.19343   0.20621
 Alpha virt. eigenvalues --    0.20873   0.21622   0.22369   0.23751   0.24350
 Alpha virt. eigenvalues --    0.24549   0.25887   0.28925   0.30546   0.31962
 Alpha virt. eigenvalues --    0.34514   0.36305   0.36679   0.37433   0.37657
 Alpha virt. eigenvalues --    0.38729   0.39767   0.39965   0.41726   0.43849
 Alpha virt. eigenvalues --    0.46251   0.47122   0.47987   0.48509   0.49023
 Alpha virt. eigenvalues --    0.49902   0.51358   0.52172   0.52328   0.53410
 Alpha virt. eigenvalues --    0.54841   0.54980   0.55693   0.56528   0.57370
 Alpha virt. eigenvalues --    0.57858   0.58763   0.59120   0.60989   0.61597
 Alpha virt. eigenvalues --    0.62356   0.63274   0.63858   0.64918   0.65653
 Alpha virt. eigenvalues --    0.68455   0.70151   0.70414   0.71283   0.71715
 Alpha virt. eigenvalues --    0.72018   0.72161   0.72919   0.73894   0.74162
 Alpha virt. eigenvalues --    0.74977   0.75363   0.76265   0.76533   0.77194
 Alpha virt. eigenvalues --    0.77894   0.78247   0.78823   0.79309   0.80594
 Alpha virt. eigenvalues --    0.81353   0.82506   0.83326   0.83723   0.84760
 Alpha virt. eigenvalues --    0.84928   0.85944   0.86702   0.88437   0.89705
 Alpha virt. eigenvalues --    0.92071   0.92510   0.93867   0.94888   0.96407
 Alpha virt. eigenvalues --    0.97927   0.99632   1.01488   1.04374   1.04517
 Alpha virt. eigenvalues --    1.07496   1.09705   1.12444   1.13057   1.13990
 Alpha virt. eigenvalues --    1.15696   1.16805   1.18883   1.21206   1.22638
 Alpha virt. eigenvalues --    1.23334   1.25009   1.27169   1.28316   1.29311
 Alpha virt. eigenvalues --    1.30665   1.31480   1.31686   1.32119   1.33050
 Alpha virt. eigenvalues --    1.34121   1.34352   1.37149   1.37557   1.38346
 Alpha virt. eigenvalues --    1.39445   1.39911   1.41444   1.44263   1.52125
 Alpha virt. eigenvalues --    1.54888   1.56754   1.60331   1.60696   1.62445
 Alpha virt. eigenvalues --    1.63365   1.66846   1.69609   1.73620   1.75279
 Alpha virt. eigenvalues --    1.77562   1.78022   1.78981   1.80395   1.81152
 Alpha virt. eigenvalues --    1.81948   1.82335   1.83390   1.83957   1.84383
 Alpha virt. eigenvalues --    1.84942   1.86025   1.86522   1.87392   1.87870
 Alpha virt. eigenvalues --    1.87977   1.88563   1.89806   1.92241   1.92480
 Alpha virt. eigenvalues --    1.93533   1.95327   1.96222   1.97705   2.03096
 Alpha virt. eigenvalues --    2.04220   2.05014   2.05366   2.06344   2.08348
 Alpha virt. eigenvalues --    2.10217   2.10825   2.13234   2.14112   2.17162
 Alpha virt. eigenvalues --    2.17725   2.20022   2.20811   2.22064   2.22979
 Alpha virt. eigenvalues --    2.24260   2.25018   2.29554   2.30811   2.31336
 Alpha virt. eigenvalues --    2.33765   2.35496   2.36139   2.38221   2.39907
 Alpha virt. eigenvalues --    2.40710   2.42557   2.43793   2.44440   2.45720
 Alpha virt. eigenvalues --    2.46162   2.52215   2.55754   2.56403   2.56959
 Alpha virt. eigenvalues --    2.59925   2.61180   2.68555   2.69533   2.71592
 Alpha virt. eigenvalues --    2.71788   2.72278   2.73478   2.73606   2.74073
 Alpha virt. eigenvalues --    2.74882   2.75499   2.77919   2.78087   2.80852
 Alpha virt. eigenvalues --    2.83068   2.83466   2.84409   2.84996   2.85292
 Alpha virt. eigenvalues --    2.88300   2.94414   2.95512   2.97073   2.99115
 Alpha virt. eigenvalues --    3.01056   3.01383   3.02846   3.03692   3.05166
 Alpha virt. eigenvalues --    3.05956   3.08933   3.23221   3.23818   3.25545
 Alpha virt. eigenvalues --    3.31664   3.33692   3.33962   3.46779   3.47453
 Alpha virt. eigenvalues --    3.69785   3.78761
          Condensed to atoms (all electrons):
               1          2          3          4          5          6
     1  O    8.151562   0.400582  -0.038488   0.001805  -0.021192   0.001399
     2  S    0.400582  13.931160   0.195257  -0.030063   0.000093  -0.001053
     3  N   -0.038488   0.195257   6.878116   0.266074  -0.078515   0.007659
     4  C    0.001805  -0.030063   0.266074   5.169313   0.251473   0.110775
     5  C   -0.021192   0.000093  -0.078515   0.251473   5.205086   0.264523
     6  C    0.001399  -0.001053   0.007659   0.110775   0.264523   5.049937
     7  C   -0.000031   0.000056  -0.000473  -0.163943   0.089942   0.273107
     8  C   -0.000005  -0.000180   0.006689   0.111774  -0.147742   0.096791
     9  C    0.000235   0.000660  -0.073193   0.262752   0.076277  -0.146669
    10  C   -0.065757   0.237456  -0.108559   0.003414  -0.001087  -0.000371
    11  C    0.003175  -0.034719  -0.000577   0.000903   0.000854  -0.000019
    12  C    0.001693   0.002043  -0.000058  -0.000168  -0.000084   0.000014
    13  C   -0.000041   0.001035  -0.000033   0.000031  -0.000020  -0.000000
    14  C    0.000000   0.000008  -0.000000  -0.000000   0.000000   0.000000
    15  C    0.000016  -0.000637  -0.000011  -0.000011  -0.000002   0.000000
    16  C    0.004572  -0.029852   0.001131   0.000243  -0.000122   0.000009
    17  O   -0.025053   0.426808  -0.046094   0.000703   0.000133   0.000006
    18  H    0.001268  -0.002844   0.317928  -0.002218   0.004446  -0.000260
    19  H    0.029562  -0.001070  -0.014208  -0.070297   0.449920  -0.053030
    20  H    0.000021  -0.000012  -0.000101   0.015433  -0.067258   0.457069
    21  H    0.000000   0.000000   0.000011  -0.001459   0.014786  -0.067987
    22  H   -0.000000   0.000003  -0.000110   0.015530  -0.001912   0.013870
    23  H    0.000013  -0.000145  -0.009512  -0.082346   0.016913  -0.002212
    24  H    0.014840  -0.013512   0.000854  -0.000393  -0.000297   0.000196
    25  H   -0.000007  -0.000152   0.000004  -0.000002  -0.000001   0.000000
    26  H   -0.000000  -0.000000   0.000000   0.000000  -0.000000   0.000000
    27  H    0.000000  -0.000000  -0.000000   0.000000   0.000000  -0.000000
    28  H    0.000000  -0.000000  -0.000000  -0.000000   0.000000  -0.000000
    29  H    0.000000  -0.000180  -0.000002  -0.000001   0.000000   0.000000
    30  H    0.000231  -0.006097   0.003750   0.000058  -0.000048   0.000000
               7          8          9         10         11         12
     1  O   -0.000031  -0.000005   0.000235  -0.065757   0.003175   0.001693
     2  S    0.000056  -0.000180   0.000660   0.237456  -0.034719   0.002043
     3  N   -0.000473   0.006689  -0.073193  -0.108559  -0.000577  -0.000058
     4  C   -0.163943   0.111774   0.262752   0.003414   0.000903  -0.000168
     5  C    0.089942  -0.147742   0.076277  -0.001087   0.000854  -0.000084
     6  C    0.273107   0.096791  -0.146669  -0.000371  -0.000019   0.000014
     7  C    5.105397   0.284775   0.085932   0.000006   0.000003  -0.000000
     8  C    0.284775   5.007183   0.310778  -0.000008  -0.000004   0.000000
     9  C    0.085932   0.310778   5.141473  -0.000875   0.000026  -0.000004
    10  C    0.000006  -0.000008  -0.000875   5.728241   0.281902   0.094237
    11  C    0.000003  -0.000004   0.000026   0.281902   5.055001   0.267116
    12  C   -0.000000   0.000000  -0.000004   0.094237   0.267116   5.103518
    13  C    0.000000   0.000000   0.000000  -0.183517   0.098199   0.285810
    14  C   -0.000000   0.000000  -0.000000   0.000704   0.009469  -0.076843
    15  C    0.000000  -0.000000   0.000004   0.091706  -0.120842   0.050458
    16  C   -0.000002   0.000005  -0.000152   0.171081   0.039291  -0.119107
    17  O   -0.000000   0.000000  -0.000065  -0.059707   0.000806  -0.000022
    18  H    0.000008   0.000211  -0.014689   0.003084  -0.000444   0.000008
    19  H    0.013912  -0.002210   0.014014  -0.003343   0.002310   0.000320
    20  H   -0.074178   0.014149  -0.001936  -0.000003  -0.000000  -0.000000
    21  H    0.451799  -0.070419   0.014481   0.000000  -0.000000   0.000000
    22  H   -0.069213   0.453960  -0.069375  -0.000000  -0.000000   0.000000
    23  H    0.014899  -0.059932   0.452186   0.000004  -0.000000  -0.000000
    24  H   -0.000004   0.000001  -0.000018  -0.066342   0.448422  -0.054640
    25  H    0.000000  -0.000000   0.000000   0.016478  -0.066177   0.460885
    26  H    0.000000  -0.000000   0.000000   0.000070  -0.000235  -0.003707
    27  H   -0.000000   0.000000  -0.000000   0.000013  -0.000542   0.007477
    28  H   -0.000000  -0.000000  -0.000000   0.000029   0.000806  -0.008647
    29  H   -0.000000   0.000000  -0.000000   0.016361  -0.001976   0.014614
    30  H    0.000000   0.000001   0.000043  -0.082936   0.012631  -0.001697
              13         14         15         16         17         18
     1  O   -0.000041   0.000000   0.000016   0.004572  -0.025053   0.001268
     2  S    0.001035   0.000008  -0.000637  -0.029852   0.426808  -0.002844
     3  N   -0.000033  -0.000000  -0.000011   0.001131  -0.046094   0.317928
     4  C    0.000031  -0.000000  -0.000011   0.000243   0.000703  -0.002218
     5  C   -0.000020   0.000000  -0.000002  -0.000122   0.000133   0.004446
     6  C   -0.000000   0.000000   0.000000   0.000009   0.000006  -0.000260
     7  C    0.000000  -0.000000   0.000000  -0.000002  -0.000000   0.000008
     8  C    0.000000   0.000000  -0.000000   0.000005   0.000000   0.000211
     9  C    0.000000  -0.000000   0.000004  -0.000152  -0.000065  -0.014689
    10  C   -0.183517   0.000704   0.091706   0.171081  -0.059707   0.003084
    11  C    0.098199   0.009469  -0.120842   0.039291   0.000806  -0.000444
    12  C    0.285810  -0.076843   0.050458  -0.119107  -0.000022   0.000008
    13  C    5.259380   0.407250   0.292011   0.089952  -0.000024   0.000011
    14  C    0.407250   4.549761  -0.076738   0.010052   0.000000   0.000000
    15  C    0.292011  -0.076738   5.051478   0.321939   0.000819   0.000016
    16  C    0.089952   0.010052   0.321939   5.075275   0.007041   0.002268
    17  O   -0.000024   0.000000   0.000819   0.007041   8.147142   0.011241
    18  H    0.000011   0.000000   0.000016   0.002268   0.011241   0.511072
    19  H    0.000001  -0.000000  -0.000021  -0.000450   0.000294  -0.000322
    20  H    0.000000  -0.000000  -0.000000   0.000000   0.000000   0.000010
    21  H    0.000000   0.000000   0.000000  -0.000000   0.000000  -0.000001
    22  H   -0.000000  -0.000000   0.000000  -0.000000  -0.000000  -0.000024
    23  H   -0.000000  -0.000000  -0.000001  -0.000006  -0.000024   0.003053
    24  H    0.013721  -0.000206  -0.001858   0.013884   0.000110  -0.000040
    25  H   -0.077083  -0.013669   0.014676  -0.002077   0.000001  -0.000000
    26  H   -0.011461   0.389681  -0.003434  -0.000213  -0.000000  -0.000000
    27  H   -0.018783   0.391992  -0.008804   0.000768   0.000000   0.000000
    28  H   -0.018884   0.392245   0.007383  -0.000562   0.000000  -0.000000
    29  H   -0.075691  -0.013636   0.459632  -0.066393  -0.000005  -0.000004
    30  H    0.014413  -0.000251  -0.047224   0.447870   0.008391  -0.000270
              19         20         21         22         23         24
     1  O    0.029562   0.000021   0.000000  -0.000000   0.000013   0.014840
     2  S   -0.001070  -0.000012   0.000000   0.000003  -0.000145  -0.013512
     3  N   -0.014208  -0.000101   0.000011  -0.000110  -0.009512   0.000854
     4  C   -0.070297   0.015433  -0.001459   0.015530  -0.082346  -0.000393
     5  C    0.449920  -0.067258   0.014786  -0.001912   0.016913  -0.000297
     6  C   -0.053030   0.457069  -0.067987   0.013870  -0.002212   0.000196
     7  C    0.013912  -0.074178   0.451799  -0.069213   0.014899  -0.000004
     8  C   -0.002210   0.014149  -0.070419   0.453960  -0.059932   0.000001
     9  C    0.014014  -0.001936   0.014481  -0.069375   0.452186  -0.000018
    10  C   -0.003343  -0.000003   0.000000  -0.000000   0.000004  -0.066342
    11  C    0.002310  -0.000000  -0.000000  -0.000000  -0.000000   0.448422
    12  C    0.000320  -0.000000   0.000000   0.000000  -0.000000  -0.054640
    13  C    0.000001   0.000000   0.000000  -0.000000  -0.000000   0.013721
    14  C   -0.000000  -0.000000   0.000000  -0.000000  -0.000000  -0.000206
    15  C   -0.000021  -0.000000   0.000000   0.000000  -0.000001  -0.001858
    16  C   -0.000450   0.000000  -0.000000  -0.000000  -0.000006   0.013884
    17  O    0.000294   0.000000   0.000000  -0.000000  -0.000024   0.000110
    18  H   -0.000322   0.000010  -0.000001  -0.000024   0.003053  -0.000040
    19  H    0.622325  -0.013233  -0.000204   0.000015  -0.000107   0.001225
    20  H   -0.013233   0.668118  -0.012082  -0.000258   0.000023   0.000003
    21  H   -0.000204  -0.012082   0.673164  -0.012365  -0.000235  -0.000000
    22  H    0.000015  -0.000258  -0.012365   0.668123  -0.013126   0.000000
    23  H   -0.000107   0.000023  -0.000235  -0.013126   0.688159  -0.000000
    24  H    0.001225   0.000003  -0.000000   0.000000  -0.000000   0.620962
    25  H    0.000002  -0.000000  -0.000000   0.000000   0.000000  -0.011437
    26  H   -0.000000   0.000000  -0.000000   0.000000   0.000000   0.000005
    27  H   -0.000000   0.000000  -0.000000  -0.000000   0.000000   0.000007
    28  H    0.000000  -0.000000   0.000000   0.000000   0.000000  -0.000007
    29  H    0.000000  -0.000000  -0.000000   0.000000  -0.000000   0.000023
    30  H   -0.000028   0.000000  -0.000000  -0.000000   0.000001  -0.000236
              25         26         27         28         29         30
     1  O   -0.000007  -0.000000   0.000000   0.000000   0.000000   0.000231
     2  S   -0.000152  -0.000000  -0.000000  -0.000000  -0.000180  -0.006097
     3  N    0.000004   0.000000  -0.000000  -0.000000  -0.000002   0.003750
     4  C   -0.000002   0.000000   0.000000  -0.000000  -0.000001   0.000058
     5  C   -0.000001  -0.000000   0.000000   0.000000   0.000000  -0.000048
     6  C    0.000000   0.000000  -0.000000  -0.000000   0.000000   0.000000
     7  C    0.000000   0.000000  -0.000000  -0.000000  -0.000000   0.000000
     8  C   -0.000000  -0.000000   0.000000  -0.000000   0.000000   0.000001
     9  C    0.000000   0.000000  -0.000000  -0.000000  -0.000000   0.000043
    10  C    0.016478   0.000070   0.000013   0.000029   0.016361  -0.082936
    11  C   -0.066177  -0.000235  -0.000542   0.000806  -0.001976   0.012631
    12  C    0.460885  -0.003707   0.007477  -0.008647   0.014614  -0.001697
    13  C   -0.077083  -0.011461  -0.018783  -0.018884  -0.075691   0.014413
    14  C   -0.013669   0.389681   0.391992   0.392245  -0.013636  -0.000251
    15  C    0.014676  -0.003434  -0.008804   0.007383   0.459632  -0.047224
    16  C   -0.002077  -0.000213   0.000768  -0.000562  -0.066393   0.447870
    17  O    0.000001  -0.000000   0.000000   0.000000  -0.000005   0.008391
    18  H   -0.000000  -0.000000   0.000000  -0.000000  -0.000004  -0.000270
    19  H    0.000002  -0.000000  -0.000000   0.000000   0.000000  -0.000028
    20  H   -0.000000   0.000000   0.000000  -0.000000  -0.000000   0.000000
    21  H   -0.000000  -0.000000  -0.000000   0.000000  -0.000000  -0.000000
    22  H    0.000000   0.000000  -0.000000   0.000000   0.000000  -0.000000
    23  H    0.000000   0.000000   0.000000   0.000000  -0.000000   0.000001
    24  H   -0.011437   0.000005   0.000007  -0.000007   0.000023  -0.000236
    25  H    0.667060   0.000742   0.000158   0.004442  -0.000226   0.000025
    26  H    0.000742   0.597218  -0.017206  -0.017092   0.000687   0.000005
    27  H    0.000158  -0.017206   0.620996  -0.022333   0.004531  -0.000001
    28  H    0.004442  -0.017092  -0.022333   0.619267   0.000160   0.000008
    29  H   -0.000226   0.000687   0.004531   0.000160   0.667285  -0.012002
    30  H    0.000025   0.000005  -0.000001   0.000008  -0.012002   0.646232
 Mulliken charges:
               1
     1  O   -0.460404
     2  S    0.925357
     3  N   -0.307538
     4  C    0.140620
     5  C   -0.056165
     6  C   -0.003752
     7  C   -0.011993
     8  C   -0.005817
     9  C   -0.051886
    10  C   -0.072278
    11  C    0.004624
    12  C   -0.023215
    13  C   -0.076277
    14  C    0.030182
    15  C   -0.030556
    16  C    0.033556
    17  O   -0.472502
    18  H    0.166493
    19  H    0.024625
    20  H    0.014237
    21  H    0.010509
    22  H    0.014882
    23  H   -0.007603
    24  H    0.034737
    25  H    0.006357
    26  H    0.064941
    27  H    0.041726
    28  H    0.043185
    29  H    0.006825
    30  H    0.017131
 Sum of Mulliken charges =  -0.00000
 Mulliken charges with hydrogens summed into heavy atoms:
               1
     1  O   -0.460404
     2  S    0.925357
     3  N   -0.141044
     4  C    0.140620
     5  C   -0.031540
     6  C    0.010484
     7  C   -0.001484
     8  C    0.009065
     9  C   -0.059489
    10  C   -0.072278
    11  C    0.039361
    12  C   -0.016859
    13  C   -0.076277
    14  C    0.180035
    15  C   -0.023731
    16  C    0.050687
    17  O   -0.472502
 Electronic spatial extent (au):  <R**2>=           4871.6884
 Charge=             -0.0000 electrons
 Dipole moment (field-independent basis, Debye):
    X=             -1.3862    Y=             -3.6706    Z=             -1.9172  Tot=              4.3670
 Quadrupole moment (field-independent basis, Debye-Ang):
   XX=            -92.0502   YY=           -115.2852   ZZ=            -99.3162
   XY=              4.0446   XZ=             -2.7721   YZ=             -5.7822
 Traceless Quadrupole moment (field-independent basis, Debye-Ang):
   XX=             10.1670   YY=            -13.0680   ZZ=              2.9010
   XY=              4.0446   XZ=             -2.7721   YZ=             -5.7822
 Octapole moment (field-independent basis, Debye-Ang**2):
  XXX=            -33.4420  YYY=            -16.1043  ZZZ=             -8.7323  XYY=              4.7684
  XXY=            -34.6510  XXZ=            -13.4059  XZZ=              0.4873  YZZ=             -1.5689
  YYZ=              2.2908  XYZ=             -5.6335
 Hexadecapole moment (field-independent basis, Debye-Ang**3):
 XXXX=          -4309.9886 YYYY=          -1485.2633 ZZZZ=           -678.6238 XXXY=              2.8757
 XXXZ=             -3.4600 YYYX=             38.9619 YYYZ=              3.2380 ZZZX=             -4.5657
 ZZZY=            -31.8387 XXYY=           -902.5017 XXZZ=           -802.6824 YYZZ=           -343.4688
 XXYZ=             -9.6252 YYXZ=            -11.1521 ZZXY=             -2.2235
 N-N= 1.310136749210D+03 E-N=-5.209007132623D+03  KE= 1.097857258606D+03
   1 Symmetry operations used in ECPInt.
 ECPInt:  NShTT=   10296 NPrTT=   38220 LenC2=    9423 LenP2D=   24686.
 LDataN:  DoStor=T MaxTD1= 5 Len=  102
 Calling FoFJK, ICntrl=      2127 FMM=F ISym2X=0 I1Cent= 0 IOpClX= 0 NMat=1 NMatS=1 NMatT=0.
 ***** Axes restored to original set *****
 -------------------------------------------------------------------
 Center     Atomic                   Forces (Hartrees/Bohr)
 Number     Number              X              Y              Z
 -------------------------------------------------------------------
      1        8          -0.010475330   -0.000447743   -0.054027579
      2       16          -0.026705774    0.021041997    0.009136432
      3        7          -0.009100079    0.025873764    0.016097674
      4        6           0.017573287   -0.013208802    0.009547929
      5        6          -0.011563452    0.005204125   -0.004735364
      6        6           0.004984918   -0.004645223   -0.002811580
      7        6           0.005342014   -0.004315187    0.004044609
      8        6           0.002521356   -0.001439307    0.001486149
      9        6          -0.011757416    0.008414499   -0.002757872
     10        6           0.007790847    0.012736797    0.007493014
     11        6           0.003024407    0.002755086    0.011302591
     12        6           0.000081348   -0.000812227   -0.003446834
     13        6          -0.004167839   -0.001572886    0.002785327
     14        6          -0.000086468   -0.005407205   -0.000354159
     15        6           0.003885712    0.002218310    0.000434106
     16        6          -0.002211252    0.001882756   -0.012549817
     17        8           0.022344301   -0.039201244    0.032122302
     18        1           0.007873892    0.003951157   -0.015687391
     19        1          -0.003206646    0.001292759    0.007430841
     20        1          -0.000265753    0.000015279    0.010216351
     21        1           0.007714458   -0.006067813    0.004062773
     22        1           0.006325593   -0.004643724   -0.006880530
     23        1          -0.000132477    0.000276597   -0.012992866
     24        1           0.004328516    0.002842681    0.008857580
     25        1          -0.002107068   -0.003885186    0.010860205
     26        1          -0.006908538    0.003249637    0.000923030
     27        1          -0.001815401   -0.002998847   -0.005152137
     28        1          -0.000614434   -0.003421425    0.005107752
     29        1          -0.004458667   -0.002889026   -0.010472541
     30        1           0.001785945    0.003200402   -0.010039997
 -------------------------------------------------------------------
 Cartesian Forces:  Max     0.054027579 RMS     0.011375724

 GradGradGradGradGradGradGradGradGradGradGradGradGradGradGradGradGradGrad
 Berny optimization.
 FormGI is forming the generalized inverse of G from B-inverse, IUseBI=4.
 Internal  Forces:  Max     0.054671421 RMS     0.010129127
 Search for a local minimum.
 Step number   1 out of a maximum of  162
 All quantities printed in internal units (Hartrees-Bohrs-Radians)
 Mixed Optimization -- RFO/linear search
 Second derivative matrix not updated -- first step.
 ITU=  0
     Eigenvalues ---    0.00432   0.00927   0.01153   0.01611   0.01745
     Eigenvalues ---    0.01771   0.02011   0.02143   0.02248   0.02269
     Eigenvalues ---    0.02278   0.02300   0.02309   0.02340   0.02346
     Eigenvalues ---    0.02348   0.02368   0.02384   0.02387   0.02394
     Eigenvalues ---    0.02395   0.02422   0.02477   0.07314   0.07341
     Eigenvalues ---    0.10231   0.11356   0.12062   0.13696   0.15989
     Eigenvalues ---    0.15999   0.15999   0.15999   0.16000   0.16000
     Eigenvalues ---    0.16000   0.16000   0.16000   0.16000   0.16000
     Eigenvalues ---    0.16000   0.17278   0.21999   0.22000   0.22000
     Eigenvalues ---    0.22826   0.22976   0.23459   0.23996   0.24984
     Eigenvalues ---    0.24990   0.25000   0.25000   0.26487   0.33691
     Eigenvalues ---    0.34622   0.34769   0.34772   0.34779   0.36281
     Eigenvalues ---    0.36286   0.36287   0.36289   0.36299   0.36440
     Eigenvalues ---    0.36442   0.36512   0.36722   0.42653   0.43521
     Eigenvalues ---    0.44024   0.44278   0.46622   0.47123   0.47452
     Eigenvalues ---    0.47821   0.48069   0.49075   0.49249   0.49273
     Eigenvalues ---    0.50047   0.50100   0.76548   0.76683
 RFO step:  Lambda=-4.01956418D-02 EMin= 4.31860657D-03
 Linear search not attempted -- first point.
 Maximum step size (   0.300) exceeded in Quadratic search.
    -- Step size scaled by   0.953
 Iteration  1 RMS(Cart)=  0.19204876 RMS(Int)=  0.00791423
 Iteration  2 RMS(Cart)=  0.03843611 RMS(Int)=  0.00092079
 Iteration  3 RMS(Cart)=  0.00060607 RMS(Int)=  0.00089597
 Iteration  4 RMS(Cart)=  0.00000124 RMS(Int)=  0.00089597
 Iteration  5 RMS(Cart)=  0.00000001 RMS(Int)=  0.00089597
 Variable       Old X    -DE/DX   Delta X   Delta X   Delta X     New X
                                 (Linear)    (Quad)   (Total)
    R1        2.83532  -0.05382   0.00000  -0.06365  -0.06365   2.77167
    R2        3.23294  -0.00014   0.00000  -0.00033  -0.00033   3.23260
    R3        3.39271  -0.00364   0.00000  -0.01137  -0.01137   3.38135
    R4        2.83455  -0.05467   0.00000  -0.06455  -0.06455   2.77000
    R5        2.63436   0.02577   0.00000   0.04848   0.04848   2.68284
    R6        1.89227   0.01690   0.00000   0.03128   0.03128   1.92355
    R7        2.64350   0.00763   0.00000   0.01430   0.01431   2.65780
    R8        2.64405   0.00557   0.00000   0.01000   0.00999   2.65405
    R9        2.59671   0.01956   0.00000   0.03469   0.03471   2.63142
   R10        2.02968   0.00700   0.00000   0.01638   0.01638   2.04606
   R11        2.60866   0.01217   0.00000   0.02249   0.02249   2.63115
   R12        2.03644   0.01015   0.00000   0.02399   0.02399   2.06042
   R13        2.60919   0.01139   0.00000   0.02076   0.02076   2.62995
   R14        2.03617   0.01062   0.00000   0.02509   0.02509   2.06126
   R15        2.59868   0.01557   0.00000   0.02714   0.02713   2.62581
   R16        2.03633   0.01039   0.00000   0.02455   0.02455   2.06088
   R17        2.03288   0.01295   0.00000   0.03045   0.03045   2.06333
   R18        2.59651   0.01700   0.00000   0.03041   0.03041   2.62693
   R19        2.59625   0.01938   0.00000   0.03451   0.03452   2.63077
   R20        2.60790   0.01294   0.00000   0.02327   0.02328   2.63117
   R21        2.03637   0.01023   0.00000   0.02419   0.02419   2.06056
   R22        2.62176   0.01361   0.00000   0.02454   0.02454   2.64629
   R23        2.03396   0.01164   0.00000   0.02741   0.02741   2.06137
   R24        2.81155   0.01274   0.00000   0.03218   0.03218   2.84374
   R25        2.62208   0.01614   0.00000   0.02914   0.02913   2.65122
   R26        2.06036   0.00766   0.00000   0.01882   0.01882   2.07918
   R27        2.06047   0.00607   0.00000   0.01492   0.01492   2.07539
   R28        2.06052   0.00602   0.00000   0.01478   0.01478   2.07530
   R29        2.60831   0.00944   0.00000   0.01689   0.01689   2.62521
   R30        2.03399   0.01166   0.00000   0.02745   0.02745   2.06144
   R31        2.03635   0.01056   0.00000   0.02496   0.02496   2.06131
    A1        2.00738  -0.00338   0.00000  -0.01010  -0.01524   1.99215
    A2        1.86069  -0.00160   0.00000   0.02627   0.02535   1.88604
    A3        2.12805  -0.00156   0.00000  -0.03804  -0.04159   2.08647
    A4        1.67273   0.02874   0.00000   0.11760   0.11637   1.78910
    A5        1.85069  -0.01565   0.00000  -0.07644  -0.07976   1.77092
    A6        1.88676   0.00191   0.00000   0.02586   0.02860   1.91536
    A7        2.14055   0.04132   0.00000   0.15349   0.15175   2.29231
    A8        1.83326  -0.01233   0.00000  -0.02370  -0.02534   1.80792
    A9        2.04495  -0.01650   0.00000  -0.05107  -0.05411   1.99084
   A10        2.15069   0.01989   0.00000   0.06595   0.06579   2.21648
   A11        2.07874  -0.02201   0.00000  -0.07167  -0.07172   2.00702
   A12        2.05345   0.00209   0.00000   0.00513   0.00504   2.05850
   A13        2.11463  -0.00424   0.00000  -0.01523  -0.01522   2.09941
   A14        2.07112   0.00630   0.00000   0.02762   0.02760   2.09872
   A15        2.09679  -0.00204   0.00000  -0.01212  -0.01213   2.08466
   A16        2.09636   0.00449   0.00000   0.01851   0.01853   2.11488
   A17        2.09297  -0.00350   0.00000  -0.01522  -0.01523   2.07774
   A18        2.09383  -0.00099   0.00000  -0.00328  -0.00329   2.09053
   A19        2.09203  -0.00499   0.00000  -0.01627  -0.01627   2.07576
   A20        2.09545   0.00283   0.00000   0.00976   0.00976   2.10521
   A21        2.09569   0.00215   0.00000   0.00652   0.00652   2.10221
   A22        2.09801   0.00059   0.00000   0.00222   0.00221   2.10022
   A23        2.09246   0.00074   0.00000   0.00382   0.00383   2.09628
   A24        2.09271  -0.00133   0.00000  -0.00605  -0.00604   2.08667
   A25        2.11186   0.00206   0.00000   0.00574   0.00572   2.11758
   A26        2.06999   0.00007   0.00000   0.00238   0.00239   2.07238
   A27        2.10127  -0.00212   0.00000  -0.00807  -0.00806   2.09321
   A28        2.09143  -0.00065   0.00000  -0.00318  -0.00318   2.08824
   A29        2.09226  -0.00274   0.00000  -0.01002  -0.01002   2.08224
   A30        2.09950   0.00339   0.00000   0.01320   0.01320   2.11270
   A31        2.09398  -0.00398   0.00000  -0.01313  -0.01313   2.08085
   A32        2.07877   0.00276   0.00000   0.01021   0.01021   2.08898
   A33        2.11040   0.00123   0.00000   0.00296   0.00295   2.11336
   A34        2.10375   0.00230   0.00000   0.00774   0.00773   2.11148
   A35        2.09634  -0.00243   0.00000  -0.00997  -0.00997   2.08637
   A36        2.08309   0.00013   0.00000   0.00224   0.00224   2.08533
   A37        2.10520   0.00042   0.00000   0.00229   0.00230   2.10749
   A38        2.07150  -0.00047   0.00000  -0.00327  -0.00329   2.06821
   A39        2.10595   0.00006   0.00000   0.00110   0.00110   2.10705
   A40        1.93301   0.00009   0.00000  -0.00112  -0.00112   1.93189
   A41        1.93986   0.00113   0.00000   0.00615   0.00612   1.94598
   A42        1.93951   0.00106   0.00000   0.00582   0.00580   1.94531
   A43        1.88519  -0.00116   0.00000  -0.00699  -0.00699   1.87819
   A44        1.88519  -0.00113   0.00000  -0.00686  -0.00685   1.87833
   A45        1.87882  -0.00012   0.00000   0.00241   0.00236   1.88117
   A46        2.10503   0.00240   0.00000   0.00774   0.00773   2.11276
   A47        2.08246   0.00016   0.00000   0.00263   0.00263   2.08510
   A48        2.09569  -0.00257   0.00000  -0.01037  -0.01036   2.08533
   A49        2.09249  -0.00363   0.00000  -0.01224  -0.01224   2.08025
   A50        2.08158   0.00351   0.00000   0.01417   0.01417   2.09575
   A51        2.10909   0.00013   0.00000  -0.00191  -0.00192   2.10717
    D1        0.22316   0.01555   0.00000   0.15377   0.15318   0.37635
    D2       -2.17122   0.01240   0.00000   0.09836   0.09575  -2.07547
    D3       -1.72107   0.00281   0.00000   0.06308   0.06270  -1.65837
    D4        2.16774  -0.00034   0.00000   0.00768   0.00526   2.17300
    D5        2.62905  -0.00575   0.00000   0.01157   0.01559   2.64464
    D6        0.23467  -0.00890   0.00000  -0.04383  -0.04185   0.19282
    D7       -0.06599  -0.00317   0.00000  -0.02210  -0.02365  -0.08965
    D8        3.07665  -0.00338   0.00000  -0.02547  -0.02701   3.04964
    D9        1.99872   0.00405   0.00000   0.02059   0.02111   2.01983
   D10       -1.14182   0.00385   0.00000   0.01721   0.01775  -1.12407
   D11       -2.38203  -0.00140   0.00000  -0.01108  -0.01007  -2.39210
   D12        0.76061  -0.00160   0.00000  -0.01445  -0.01343   0.74719
   D13        0.17262  -0.00065   0.00000   0.02240   0.02323   0.19585
   D14       -2.99610  -0.00231   0.00000  -0.00426  -0.00343  -2.99953
   D15        2.48454   0.00870   0.00000   0.10943   0.10861   2.59315
   D16       -0.68418   0.00704   0.00000   0.08278   0.08195  -0.60223
   D17        3.10716  -0.00128   0.00000  -0.01665  -0.01762   3.08953
   D18       -0.07288  -0.00078   0.00000  -0.00869  -0.00936  -0.08225
   D19       -0.00768   0.00071   0.00000   0.01078   0.01080   0.00312
   D20        3.09547   0.00122   0.00000   0.01874   0.01906   3.11453
   D21       -3.10859   0.00030   0.00000   0.00882   0.00780  -3.10079
   D22        0.02104   0.00069   0.00000   0.01417   0.01332   0.03437
   D23        0.00739  -0.00096   0.00000  -0.01532  -0.01521  -0.00782
   D24        3.13702  -0.00057   0.00000  -0.00997  -0.00968   3.12734
   D25        0.00210  -0.00006   0.00000  -0.00030  -0.00043   0.00167
   D26        3.13484   0.00006   0.00000   0.00061   0.00062   3.13546
   D27       -3.10049  -0.00075   0.00000  -0.00924  -0.00949  -3.10998
   D28        0.03225  -0.00063   0.00000  -0.00833  -0.00844   0.02381
   D29        0.00402  -0.00039   0.00000  -0.00606  -0.00592  -0.00190
   D30        3.14048  -0.00008   0.00000  -0.00140  -0.00130   3.13918
   D31       -3.12871  -0.00049   0.00000  -0.00691  -0.00693  -3.13564
   D32        0.00775  -0.00018   0.00000  -0.00224  -0.00230   0.00544
   D33       -0.00431   0.00012   0.00000   0.00149   0.00155  -0.00276
   D34        3.13902   0.00030   0.00000   0.00483   0.00470  -3.13946
   D35       -3.14077  -0.00019   0.00000  -0.00319  -0.00307   3.13934
   D36        0.00256  -0.00002   0.00000   0.00016   0.00008   0.00264
   D37       -0.00152   0.00059   0.00000   0.00952   0.00928   0.00775
   D38       -3.13095   0.00017   0.00000   0.00400   0.00361  -3.12733
   D39        3.13833   0.00041   0.00000   0.00618   0.00615  -3.13870
   D40        0.00891  -0.00000   0.00000   0.00066   0.00049   0.00940
   D41       -3.13435   0.00030   0.00000   0.00427   0.00426  -3.13009
   D42        0.01630  -0.00006   0.00000  -0.00123  -0.00125   0.01505
   D43        0.00619   0.00050   0.00000   0.00764   0.00766   0.01385
   D44       -3.12635   0.00014   0.00000   0.00214   0.00215  -3.12420
   D45        3.13424  -0.00021   0.00000  -0.00289  -0.00290   3.13134
   D46       -0.01430   0.00002   0.00000   0.00062   0.00062  -0.01367
   D47       -0.00629  -0.00041   0.00000  -0.00627  -0.00630  -0.01259
   D48        3.12835  -0.00019   0.00000  -0.00276  -0.00277   3.12558
   D49        0.00485  -0.00048   0.00000  -0.00748  -0.00746  -0.00261
   D50       -3.13337  -0.00048   0.00000  -0.00732  -0.00730  -3.14066
   D51        3.13723  -0.00011   0.00000  -0.00184  -0.00184   3.13538
   D52       -0.00099  -0.00011   0.00000  -0.00168  -0.00168  -0.00267
   D53       -3.12197   0.00015   0.00000   0.00215   0.00216  -3.11980
   D54       -0.01545   0.00039   0.00000   0.00599   0.00600  -0.00945
   D55        0.01628   0.00015   0.00000   0.00196   0.00197   0.01825
   D56        3.12280   0.00038   0.00000   0.00580   0.00581   3.12860
   D57        1.54317   0.00013   0.00000   0.00222   0.00223   1.54540
   D58       -2.64431  -0.00052   0.00000  -0.00327  -0.00329  -2.64760
   D59       -0.55231   0.00079   0.00000   0.00776   0.00779  -0.54452
   D60       -1.56265  -0.00010   0.00000  -0.00160  -0.00161  -1.56426
   D61        0.53305  -0.00075   0.00000  -0.00710  -0.00712   0.52593
   D62        2.62506   0.00056   0.00000   0.00393   0.00395   2.62901
   D63        0.01535  -0.00030   0.00000  -0.00461  -0.00461   0.01074
   D64       -3.12323  -0.00034   0.00000  -0.00514  -0.00514  -3.12837
   D65        3.12185  -0.00005   0.00000  -0.00075  -0.00075   3.12110
   D66       -0.01673  -0.00009   0.00000  -0.00127  -0.00128  -0.01801
   D67       -0.00464   0.00030   0.00000   0.00473   0.00471   0.00007
   D68       -3.13917   0.00006   0.00000   0.00110   0.00110  -3.13808
   D69        3.13392   0.00035   0.00000   0.00528   0.00527   3.13919
   D70       -0.00061   0.00010   0.00000   0.00165   0.00165   0.00104
         Item               Value     Threshold  Converged?
 Maximum Force            0.054671     0.000450     NO 
 RMS     Force            0.010129     0.000300     NO 
 Maximum Displacement     0.610937     0.001800     NO 
 RMS     Displacement     0.223396     0.001200     NO 
 Predicted change in Energy=-2.302999D-02
 GradGradGradGradGradGradGradGradGradGradGradGradGradGradGradGradGradGrad

                          Input orientation:                          
 ---------------------------------------------------------------------
 Center     Atomic      Atomic             Coordinates (Angstroms)
 Number     Number       Type             X           Y           Z
 ---------------------------------------------------------------------
      1          8           0        0.217307    2.106049    1.157766
      2         16           0       -0.090409    1.616198   -0.190040
      3          7           0        1.129612    0.629468   -0.871313
      4          6           0        2.172749   -0.122143   -0.269242
      5          6           0        2.327565   -0.410124    1.098676
      6          6           0        3.376428   -1.216960    1.532169
      7          6           0        4.292673   -1.753624    0.631551
      8          6           0        4.147032   -1.474183   -0.724012
      9          6           0        3.100561   -0.674672   -1.167232
     10          6           0       -1.476102    0.490697   -0.068340
     11          6           0       -1.978635    0.151458    1.182573
     12          6           0       -3.048239   -0.735877    1.267658
     13          6           0       -3.622588   -1.285140    0.114646
     14          6           0       -4.796322   -2.221939    0.211097
     15          6           0       -3.103507   -0.912657   -1.134400
     16          6           0       -2.035661   -0.029463   -1.232122
     17          8           0       -0.326236    2.576734   -1.271886
     18          1           0        1.414069    1.141448   -1.703830
     19          1           0        1.648546    0.016545    1.826131
     20          1           0        3.480721   -1.422414    2.597875
     21          1           0        5.112235   -2.382724    0.981306
     22          1           0        4.852562   -1.886167   -1.446397
     23          1           0        2.984718   -0.470579   -2.233582
     24          1           0       -1.533796    0.584631    2.078930
     25          1           0       -3.447224   -1.004977    2.246587
     26          1           0       -5.742965   -1.661284    0.201463
     27          1           0       -4.818950   -2.926749   -0.630852
     28          1           0       -4.766868   -2.808653    1.138969
     29          1           0       -3.547054   -1.321362   -2.043362
     30          1           0       -1.638303    0.259121   -2.206115
 ---------------------------------------------------------------------
                    Distance matrix (angstroms):
                    1          2          3          4          5
     1  O    0.000000
     2  S    1.466705   0.000000
     3  N    2.670160   1.710620   0.000000
     4  C    3.290129   2.854818   1.419698   0.000000
     5  C    3.284480   3.407839   2.529170   1.406449   0.000000
     6  C    4.600284   4.797056   3.772824   2.427457   1.392485
     7  C    5.637604   5.589465   4.235880   2.822629   2.425870
     8  C    5.639317   5.271764   3.681286   2.435697   2.786552
     9  C    4.631542   4.047874   2.381804   1.404461   2.408703
    10  C    2.642032   1.789332   2.730159   3.705408   4.079373
    11  C    2.939932   2.755890   3.756081   4.406429   4.343475
    12  C    4.330405   4.050420   4.888129   5.476993   5.388315
    13  C    5.228102   4.581144   5.217398   5.923332   6.094118
    14  C    6.690600   6.085870   6.664745   7.294369   7.404068
    15  C    5.039287   4.045452   4.512943   5.404839   5.893700
    16  C    3.917632   2.752843   3.253203   4.318153   4.961377
    17  O    2.533810   1.465822   2.464102   3.812369   4.645809
    18  H    3.248295   2.186413   1.017901   2.056769   3.331049
    19  H    2.619387   3.106091   2.814458   2.164397   1.082730
    20  H    5.017354   5.455145   4.666176   3.409084   2.145250
    21  H    6.643836   6.665654   5.326048   3.913397   3.414575
    22  H    6.648687   6.186918   4.529845   3.417436   3.877075
    23  H    5.079253   4.241121   2.550940   2.153910   3.396976
    24  H    2.495920   2.880229   3.974882   4.444313   4.106159
    25  H    4.928773   4.906722   5.774093   6.220361   5.917748
    26  H    7.115627   6.545728   7.323299   8.077688   8.216072
    27  H    7.341123   6.572045   6.934687   7.541911   7.771572
    28  H    6.999761   6.573799   7.115503   7.573551   7.489028
    29  H    6.013716   4.900251   5.201023   6.107518   6.724128
    30  H    4.262643   2.881352   3.095190   4.291964   5.205538
                    6          7          8          9         10
     6  C    0.000000
     7  C    1.392345   0.000000
     8  C    2.397988   1.391708   0.000000
     9  C    2.767118   2.412652   1.389519   0.000000
    10  C    5.387464   6.229413   5.992520   4.848865   0.000000
    11  C    5.538184   6.577406   6.618276   5.657059   1.390111
    12  C    6.448081   7.438375   7.502251   6.613636   2.400206
    13  C    7.141445   7.945943   7.817037   6.871435   2.791860
    14  C    8.339607   9.110758   9.023145   8.164226   4.296550
    15  C    7.013754   7.650443   7.283820   6.208717   2.398819
    16  C    6.192104   6.818637   6.369544   5.176996   1.392142
    17  O    5.997046   6.611307   6.059721   4.724990   2.668757
    18  H    4.459218   4.703382   3.907769   2.535840   3.383991
    19  H    2.143251   3.398812   3.868842   3.397993   3.684734
    20  H    1.090329   2.152996   3.388449   3.857418   5.944643
    21  H    2.162287   1.090770   2.159902   3.403012   7.263917
    22  H    3.390968   2.156134   1.090570   2.148292   6.899312
    23  H    3.858937   3.400873   2.153368   1.091867   5.050864
    24  H    5.258800   6.442831   6.660856   5.796609   2.150098
    25  H    6.864223   7.941965   8.168068   7.391668   3.388400
    26  H    9.226675  10.045274   9.934966   9.003037   4.786433
    27  H    8.646748   9.273163   9.083361   8.250952   4.813521
    28  H    8.306706   9.134869   9.203755   8.471651   4.813777
    29  H    7.792941   8.294777   7.807880   6.736216   3.387198
    30  H    6.426593   6.876042   6.218606   4.940453   2.156390
                   11         12         13         14         15
    11  C    0.000000
    12  C    1.392356   0.000000
    13  C    2.430404   1.400358   0.000000
    14  C    3.810005   2.525964   1.504841   0.000000
    15  C    2.786762   2.409188   1.402963   2.527885   0.000000
    16  C    2.422135   2.788052   2.430811   3.809340   1.389199
    17  O    3.825801   4.983169   5.263314   6.723702   4.461836
    18  H    4.563096   5.680342   5.879039   7.317669   4.995207
    19  H    3.686301   4.789344   5.692839   7.011096   5.675400
    20  H    5.855315   6.698367   7.526105   8.651322   7.585630
    21  H    7.532797   8.329913   8.846068   9.939747   8.610211
    22  H    7.597938   8.432788   8.638649   9.795968   8.021477
    23  H    6.057385   6.980375   7.059332   8.341960   6.202428
    24  H    1.090402   2.166897   3.423084   4.691451   3.877029
    25  H    2.150865   1.090829   2.157410   2.728421   3.399668
    26  H    4.291712   3.042153   2.155231   1.100255   3.051510
    27  H    4.564127   3.397010   2.163777   1.098248   2.693115
    28  H    4.066743   2.695672   2.163263   1.098202   3.395552
    29  H    3.877602   3.399186   2.159634   2.730256   1.090865
    30  H    3.407437   3.878793   3.421704   4.687393   2.160661
                   16         17         18         19         20
    16  C    0.000000
    17  O    3.117047   0.000000
    18  H    3.673443   2.296798   0.000000
    19  H    4.788362   4.477951   3.712279   0.000000
    20  H    6.858546   6.742489   5.417481   2.454191   0.000000
    21  H    7.844076   7.697407   5.771151   4.297368   2.489444
    22  H    7.137288   6.838705   4.588677   4.959382   4.295713
    23  H    5.138259   4.601455   2.312186   4.301618   4.949240
    24  H    3.404709   4.081010   4.827963   3.242519   5.426132
    25  H    3.878860   5.911758   6.621564   5.214131   6.949394
    26  H    4.296755   7.033669   7.918875   7.751715   9.532902
    27  H    4.062325   7.133283   7.520109   7.518527   9.031735
    28  H    4.561300   7.384702   7.866943   7.043541   8.489569
[...]
     7  C    4.963727   0.439093   0.035568  -0.000158  -0.000705  -0.000195
     8  C    0.439093   4.933749   0.408377  -0.001762   0.001199   0.002006
     9  C    0.035568   0.408377   5.115213  -0.000172  -0.014245  -0.000563
    10  C   -0.000158  -0.001762  -0.000172   5.294020   0.316253   0.049806
    11  C   -0.000705   0.001199  -0.014245   0.316253   5.142070   0.357378
    12  C   -0.000195   0.002006  -0.000563   0.049806   0.357378   5.100234
    13  C    0.000042   0.000056  -0.000462  -0.090531   0.033035   0.412536
    14  C   -0.000001  -0.000016   0.000008  -0.004307   0.013799  -0.073667
    15  C    0.000020  -0.000051   0.000795   0.015626  -0.050397  -0.014084
    16  C   -0.000059  -0.000680  -0.001915   0.368115  -0.069589  -0.046391
    17  O   -0.000003  -0.000001  -0.000524  -0.096280   0.008736  -0.000586
    18  H    0.000136   0.001086   0.008837  -0.000736   0.000707  -0.000043
    19  H    0.010216  -0.004442   0.011287   0.001828  -0.000442  -0.000158
    20  H   -0.058354   0.010553  -0.003504  -0.000016  -0.000004   0.000008
    21  H    0.443934  -0.056088   0.012198   0.000004  -0.000018  -0.000002
    22  H   -0.057144   0.438886  -0.053929   0.000005   0.000029   0.000022
    23  H    0.010390  -0.031468   0.439954   0.000787  -0.000269  -0.000258
    24  H    0.000105   0.000168  -0.001669  -0.046334   0.436249  -0.049471
    25  H    0.000008   0.000072  -0.000080   0.010712  -0.048554   0.444517
    26  H    0.000000   0.000000   0.000000   0.000161  -0.000731  -0.004877
    27  H    0.000000  -0.000001   0.000001   0.000065  -0.000710   0.007944
    28  H   -0.000000   0.000001  -0.000002   0.000055   0.001934  -0.006656
    29  H   -0.000000   0.000003  -0.000002   0.011284  -0.003857   0.012871
    30  H   -0.000003   0.000006  -0.000132  -0.045627   0.008280  -0.002425
              13         14         15         16         17         18
     1  O   -0.000113  -0.000000  -0.000265   0.006938  -0.043929   0.002676
     2  S   -0.000535   0.000005   0.005743  -0.039180   0.584232  -0.016602
     3  N    0.000226  -0.000004  -0.001190   0.000037  -0.048057   0.365621
     4  C   -0.000717   0.000007   0.000250   0.001024   0.001635  -0.051469
     5  C    0.000219   0.000006   0.000048   0.000326  -0.000743   0.004524
     6  C   -0.000039  -0.000001  -0.000008   0.000171  -0.000000  -0.000720
     7  C    0.000042  -0.000001   0.000020  -0.000059  -0.000003   0.000136
     8  C    0.000056  -0.000016  -0.000051  -0.000680  -0.000001   0.001086
     9  C   -0.000462   0.000008   0.000795  -0.001915  -0.000524   0.008837
    10  C   -0.090531  -0.004307   0.015626   0.368115  -0.096280  -0.000736
    11  C    0.033035   0.013799  -0.050397  -0.069589   0.008736   0.000707
    12  C    0.412536  -0.073667  -0.014084  -0.046391  -0.000586  -0.000043
    13  C    4.972686   0.297549   0.432323   0.016213   0.000166   0.000064
    14  C    0.297549   4.958421  -0.073386   0.013151   0.000001   0.000000
    15  C    0.432323  -0.073386   5.062902   0.404479   0.002760  -0.000166
    16  C    0.016213   0.013151   0.404479   5.106090   0.026777   0.000145
    17  O    0.000166   0.000001   0.002760   0.026777   8.022374   0.004370
    18  H    0.000064   0.000000  -0.000166   0.000145   0.004370   0.429408
    19  H    0.000015   0.000000   0.000007  -0.000172  -0.000133  -0.000050
    20  H   -0.000000  -0.000000  -0.000000   0.000001  -0.000000   0.000013
    21  H   -0.000001   0.000000   0.000000  -0.000000   0.000000  -0.000002
    22  H   -0.000005   0.000000  -0.000003  -0.000001  -0.000000  -0.000040
    23  H   -0.000009  -0.000000   0.000310   0.000380  -0.000176   0.003563
    24  H    0.008917  -0.000031  -0.002425   0.008176   0.000384  -0.000098
    25  H   -0.063184  -0.006640   0.012778  -0.003657   0.000003   0.000000
    26  H   -0.017376   0.390170  -0.004584  -0.000662  -0.000000  -0.000000
    27  H   -0.054904   0.427652  -0.006510   0.001946   0.000000   0.000000
    28  H   -0.053273   0.427606   0.006948  -0.000639   0.000000  -0.000000
    29  H   -0.062062  -0.006797   0.443194  -0.048867  -0.000028  -0.000009
    30  H    0.008424  -0.000057  -0.048533   0.432616   0.013554   0.000364
              19         20         21         22         23         24
     1  O    0.008971  -0.000038   0.000001  -0.000000  -0.000017   0.008186
     2  S   -0.002920  -0.000003   0.000003  -0.000007  -0.000121  -0.004118
     3  N   -0.001405  -0.000119   0.000008  -0.000360   0.002897   0.000355
     4  C   -0.044800   0.013945  -0.003964   0.015211  -0.080502   0.000129
     5  C    0.434639  -0.057683   0.011297  -0.003858   0.012038   0.000014
     6  C   -0.048923   0.446325  -0.056275   0.010719  -0.003893   0.000350
     7  C    0.010216  -0.058354   0.443934  -0.057144   0.010390   0.000105
     8  C   -0.004442   0.010553  -0.056088   0.438886  -0.031468   0.000168
     9  C    0.011287  -0.003504   0.012198  -0.053929   0.439954  -0.001669
    10  C    0.001828  -0.000016   0.000004   0.000005   0.000787  -0.046334
    11  C   -0.000442  -0.000004  -0.000018   0.000029  -0.000269   0.436249
    12  C   -0.000158   0.000008  -0.000002   0.000022  -0.000258  -0.049471
    13  C    0.000015  -0.000000  -0.000001  -0.000005  -0.000009   0.008917
    14  C    0.000000  -0.000000   0.000000   0.000000  -0.000000  -0.000031
    15  C    0.000007  -0.000000   0.000000  -0.000003   0.000310  -0.002425
    16  C   -0.000172   0.000001  -0.000000  -0.000001   0.000380   0.008176
    17  O   -0.000133  -0.000000   0.000000  -0.000000  -0.000176   0.000384
    18  H   -0.000050   0.000013  -0.000002  -0.000040   0.003563  -0.000098
    19  H    0.476179  -0.006494  -0.000017   0.000015   0.000012  -0.000091
    20  H   -0.006494   0.534759  -0.006847  -0.000125   0.000028  -0.000017
    21  H   -0.000017  -0.006847   0.538790  -0.006650  -0.000098  -0.000005
    22  H    0.000015  -0.000125  -0.006650   0.541628  -0.007507   0.000004
    23  H    0.000012   0.000028  -0.000098  -0.007507   0.538597  -0.000053
    24  H   -0.000091  -0.000017  -0.000005   0.000004  -0.000053   0.481728
    25  H   -0.000007   0.000001  -0.000000  -0.000000  -0.000002  -0.005596
    26  H    0.000000   0.000000  -0.000000  -0.000000   0.000000   0.000008
    27  H   -0.000000  -0.000000   0.000000  -0.000000   0.000000   0.000002
    28  H   -0.000000   0.000000  -0.000000   0.000000  -0.000000  -0.000022
    29  H   -0.000000   0.000000   0.000000   0.000000  -0.000003   0.000026
    30  H   -0.000005   0.000000  -0.000000   0.000000  -0.000067  -0.000066
              25         26         27         28         29         30
     1  O   -0.000011  -0.000000   0.000000   0.000000   0.000004   0.000543
     2  S   -0.000100  -0.000001   0.000001   0.000001  -0.000114  -0.004414
     3  N    0.000031   0.000000  -0.000000  -0.000000   0.000017   0.000275
     4  C    0.000037  -0.000000  -0.000001   0.000003  -0.000007  -0.000183
     5  C   -0.000101  -0.000000   0.000000   0.000000  -0.000002  -0.000018
     6  C    0.000057   0.000000  -0.000000   0.000000   0.000000   0.000007
     7  C    0.000008   0.000000   0.000000  -0.000000  -0.000000  -0.000003
     8  C    0.000072   0.000000  -0.000001   0.000001   0.000003   0.000006
     9  C   -0.000080   0.000000   0.000001  -0.000002  -0.000002  -0.000132
    10  C    0.010712   0.000161   0.000065   0.000055   0.011284  -0.045627
    11  C   -0.048554  -0.000731  -0.000710   0.001934  -0.003857   0.008280
    12  C    0.444517  -0.004877   0.007944  -0.006656   0.012871  -0.002425
    13  C   -0.063184  -0.017376  -0.054904  -0.053273  -0.062062   0.008424
    14  C   -0.006640   0.390170   0.427652   0.427606  -0.006797  -0.000057
    15  C    0.012778  -0.004584  -0.006510   0.006948   0.443194  -0.048533
    16  C   -0.003657  -0.000662   0.001946  -0.000639  -0.048867   0.432616
    17  O    0.000003  -0.000000   0.000000   0.000000  -0.000028   0.013554
    18  H    0.000000  -0.000000   0.000000  -0.000000  -0.000009   0.000364
    19  H   -0.000007   0.000000  -0.000000  -0.000000  -0.000000  -0.000005
    20  H    0.000001   0.000000  -0.000000   0.000000   0.000000   0.000000
    21  H   -0.000000  -0.000000   0.000000  -0.000000   0.000000  -0.000000
    22  H   -0.000000  -0.000000  -0.000000   0.000000   0.000000   0.000000
    23  H   -0.000002   0.000000   0.000000  -0.000000  -0.000003  -0.000067
    24  H   -0.005596   0.000008   0.000002  -0.000022   0.000026  -0.000066
    25  H    0.533618   0.000256   0.000074   0.000876  -0.000049   0.000031
    26  H    0.000256   0.544764  -0.023387  -0.024257   0.000224   0.000007
    27  H    0.000074  -0.023387   0.542006  -0.023656   0.001100  -0.000019
    28  H    0.000876  -0.024257  -0.023656   0.540738   0.000057   0.000003
    29  H   -0.000049   0.000224   0.001100   0.000057   0.533416  -0.005563
    30  H    0.000031   0.000007  -0.000019   0.000003  -0.005563   0.477701
 Mulliken charges:
               1
     1  O   -0.461030
     2  S    0.856456
     3  N   -0.316464
     4  C    0.199927
     5  C   -0.270588
     6  C   -0.072232
     7  C   -0.137598
     8  C   -0.096904
     9  C   -0.217400
    10  C    0.000973
    11  C   -0.135604
    12  C   -0.195656
    13  C    0.160741
    14  C   -0.363469
    15  C   -0.186582
    16  C   -0.174774
    17  O   -0.474531
    18  H    0.248420
    19  H    0.166890
    20  H    0.127570
    21  H    0.123730
    22  H    0.123108
    23  H    0.115488
    24  H    0.165193
    25  H    0.124908
    26  H    0.140285
    27  H    0.128397
    28  H    0.130284
    29  H    0.125165
    30  H    0.165297
 Sum of Mulliken charges =  -0.00000
 Mulliken charges with hydrogens summed into heavy atoms:
               1
     1  O   -0.461030
     2  S    0.856456
     3  N   -0.068045
     4  C    0.199927
     5  C   -0.103698
     6  C    0.055338
     7  C   -0.013868
     8  C    0.026204
     9  C   -0.101912
    10  C    0.000973
    11  C    0.029589
    12  C   -0.070748
    13  C    0.160741
    14  C    0.035497
    15  C   -0.061417
    16  C   -0.009477
    17  O   -0.474531
 Electronic spatial extent (au):  <R**2>=           4366.5264
 Charge=              0.0000 electrons
 Dipole moment (field-independent basis, Debye):
    X=             -1.8222    Y=             -5.3823    Z=             -1.7647  Tot=              5.9501
 Quadrupole moment (field-independent basis, Debye-Ang):
   XX=            -96.8180   YY=           -114.0116   ZZ=           -101.0978
   XY=              0.2826   XZ=              2.6673   YZ=             -4.5450
 Traceless Quadrupole moment (field-independent basis, Debye-Ang):
   XX=              7.1578   YY=            -10.0358   ZZ=              2.8780
   XY=              0.2826   XZ=              2.6673   YZ=             -4.5450
 Octapole moment (field-independent basis, Debye-Ang**2):
  XXX=            -41.9482  YYY=            -42.3723  ZZZ=            -11.7704  XYY=              3.5015
  XXY=            -16.3247  XXZ=              7.5868  XZZ=              2.8437  YZZ=             -0.3989
  YYZ=             -0.7602  XYZ=             -0.8841
 Hexadecapole moment (field-independent basis, Debye-Ang**3):
 XXXX=          -3343.3048 YYYY=          -1978.1840 ZZZZ=           -577.6985 XXXY=             53.3248
 XXXZ=            112.7886 YYYX=            -18.4124 YYYZ=             17.6620 ZZZX=             13.6172
 ZZZY=            -24.0132 XXYY=           -821.9335 XXZZ=           -639.4771 YYZZ=           -410.8816
 XXYZ=            -31.6073 YYXZ=            -12.7851 ZZXY=             -2.1724
 N-N= 1.331935981490D+03 E-N=-5.259243891318D+03  KE= 1.102023903797D+03
 Breneman (CHELPG) radii used.
 Read replacement radii for each type of atom:
 Atom Element Radius
    1     8    1.70
    2    16    2.00
    3     7    1.70
    4     6    1.50
    5     6    1.50
    6     6    1.50
    7     6    1.50
    8     6    1.50
    9     6    1.50
   10     6    1.50
   11     6    1.50
   12     6    1.50
   13     6    1.50
   14     6    1.50
   15     6    1.50
   16     6    1.50
   17     8    1.70
   18     1    1.45
   19     1    1.45
   20     1    1.45
   21     1    1.45
   22     1    1.45
   23     1    1.45
   24     1    1.45
   25     1    1.45
   26     1    1.45
   27     1    1.45
   28     1    1.45
   29     1    1.45
   30     1    1.45
 Generate Potential Derived Charges using the Breneman model, NDens= 1.
 Grid spacing= 0.300 Box extension= 2.800
 NStep X,Y,Z=   49     42     34   Total possible points=       69972
 Number of Points to Fit=   18718

 **********************************************************************

            Electrostatic Properties Using The SCF Density.

 **********************************************************************

       Atomic Center    1 is at   0.760023  2.053036  1.477377
       Atomic Center    2 is at   0.211304  1.955931  0.139109
       Atomic Center    3 is at   1.389763  1.267727 -0.841710
       Atomic Center    4 is at   1.950887  0.004407 -0.532404
       Atomic Center    5 is at   2.685293 -0.167032  0.646364
       Atomic Center    6 is at   3.219158 -1.416717  0.949159
       Atomic Center    7 is at   3.052552 -2.492042  0.076104
       Atomic Center    8 is at   2.334262 -2.314462 -1.105078
       Atomic Center    9 is at   1.772197 -1.075499 -1.403416
       Atomic Center   10 is at  -1.098910  0.752267  0.173456
       Atomic Center   11 is at  -1.042907 -0.301517  1.084590
       Atomic Center   12 is at  -2.036148 -1.274922  1.051363
       Atomic Center   13 is at  -3.088688 -1.207204  0.129550
       Atomic Center   14 is at  -4.177548 -2.246547  0.128506
       Atomic Center   15 is at  -3.122116 -0.132095 -0.768047
       Atomic Center   16 is at  -2.134298  0.847640 -0.754213
       Atomic Center   17 is at  -0.244726  3.115733 -0.602870
       Atomic Center   18 is at   1.147193  1.412278 -1.818006
       Atomic Center   19 is at   2.820952  0.683290  1.314645
       Atomic Center   20 is at   3.787212 -1.545896  1.872966
       Atomic Center   21 is at   3.485114 -3.465726  0.314549
       Atomic Center   22 is at   2.196845 -3.149060 -1.795849
       Atomic Center   23 is at   1.185344 -0.942206 -2.315794
       Atomic Center   24 is at  -0.230714 -0.351138  1.811513
       Atomic Center   25 is at  -1.993649 -2.105305  1.760466
       Atomic Center   26 is at  -4.981372 -1.962832  0.826930
       Atomic Center   27 is at  -4.629216 -2.356291 -0.867356
       Atomic Center   28 is at  -3.796931 -3.227653  0.445735
       Atomic Center   29 is at  -3.939423 -0.058303 -1.489873
       Atomic Center   30 is at  -2.165334  1.692054 -1.445344
   18718 points will be used for fitting atomic charges
 Fitting point charges to electrostatic potential
 Charges from ESP fit, RMS=   0.00359 RRMS=   0.21954:
 ESP charges:
               1
     1  O   -0.469728
     2  S    0.935028
     3  N   -0.647566
     4  C    0.411719
     5  C   -0.219362
     6  C   -0.057043
     7  C   -0.144635
     8  C   -0.053608
     9  C   -0.271226
    10  C   -0.065157
    11  C   -0.036401
    12  C   -0.230872
    13  C    0.239485
    14  C   -0.271809
    15  C   -0.212076
    16  C   -0.067802
    17  O   -0.485466
    18  H    0.354969
    19  H    0.160403
    20  H    0.097519
    21  H    0.103773
    22  H    0.103903
    23  H    0.111469
    24  H    0.099602
    25  H    0.129029
    26  H    0.090202
    27  H    0.077355
    28  H    0.078776
    29  H    0.126855
    30  H    0.112662
 Sum of ESP charges =   0.00000
 ESP charges with hydrogens summed into heavy atoms:
               1
     1  O   -0.469728
     2  S    0.935028
     3  N   -0.292597
     4  C    0.411719
     5  C   -0.058959
     6  C    0.040477
     7  C   -0.040862
     8  C    0.050295
     9  C   -0.159757
    10  C   -0.065157
    11  C    0.063202
    12  C   -0.101843
    13  C    0.239485
    14  C   -0.025475
    15  C   -0.085222
    16  C    0.044860
    17  O   -0.485466
 Charge=   0.00000 Dipole=    -1.7024    -5.2541    -1.7356 Tot=     5.7893
 -----------------------------------------------------------------

              Electrostatic Properties (Atomic Units)

 -----------------------------------------------------------------
    Center     Electric         -------- Electric Field --------
               Potential          X             Y             Z
 -----------------------------------------------------------------
    1 Atom    -22.373376
    2 Atom    -59.026799
    3 Atom    -18.345602
    4 Atom    -14.712677
    5 Atom    -14.763165
    6 Atom    -14.758979
    7 Atom    -14.761226
    8 Atom    -14.756711
    9 Atom    -14.755803
   10 Atom    -14.732022
   11 Atom    -14.745692
   12 Atom    -14.752981
   13 Atom    -14.736846
   14 Atom    -14.755044
   15 Atom    -14.752124
   16 Atom    -14.744873
   17 Atom    -22.373239
   18 Atom     -1.001975
   19 Atom     -1.101925
   20 Atom     -1.099706
   21 Atom     -1.099250
   22 Atom     -1.096082
   23 Atom     -1.087786
   24 Atom     -1.088677
   25 Atom     -1.091440
   26 Atom     -1.097640
   27 Atom     -1.100365
   28 Atom     -1.100253
   29 Atom     -1.090247
   30 Atom     -1.086167
 -----------------------------------------------------------------
 Unable to Open any file for archive entry.
 1\1\GINC-NOTCH225\SP\RwB97XD\def2TZVP\C13H13N1O2S1\U1366379\17-Feb-202
 6\0\\#N Guess=Read Geom=Check Integral(Ultrafine) Density Pop=(ChelpG,
 ReadRadii) NMR wB97XD def2TZVP\\prod_5l_30\\0,1\O,0,0.2583843344,2.419
 1459743,1.1295831988\S,0,-0.0332688491,2.009708209,-0.230116106\N,0,1.
 3583928634,1.3048630594,-0.8553101569\C,0,1.9692620051,0.1999835049,-0
 .2129795426\C,0,2.4957525742,0.3413483891,1.0758419773\C,0,3.079813964
 1,-0.7548301169,1.7048674344\C,0,3.1698517836,-1.9847631888,1.05259114
 39\C,0,2.6590171758,-2.1185787377,-0.2372951363\C,0,2.0475160713,-1.03
 55438007,-0.8642367481\C,0,-1.2128656497,0.6793287597,-0.1573913378\C,
 0,-1.2228142332,-0.1733365898,0.9456159865\C,0,-2.1009494671,-1.252189
 2304,0.9557902502\C,0,-2.9751993642,-1.4869802131,-0.1131928362\C,0,-3
 .9466874946,-2.6361023339,-0.0734564689\C,0,-2.9474830671,-0.608219654
 5,-1.2039126894\C,0,-2.0718062135,0.4725588189,-1.2349626037\O,0,-0.45
 49982352,2.9470742868,-1.2534088506\H,0,1.2804386146,1.2358139911,-1.8
 662718012\H,0,2.4323048014,1.3103470552,1.5708837903\H,0,3.4845999957,
 -0.6399271449,2.7127059114\H,0,3.6407426051,-2.8363114705,1.5477215199
 \H,0,2.7232850993,-3.0766072373,-0.7575393667\H,0,1.6219060976,-1.1466
 724889,-1.8647884143\H,0,-0.5512055314,0.0132811419,1.7850515855\H,0,-
 2.1088163801,-1.9259280048,1.8161303473\H,0,-4.8841206229,-2.330973775
 5,0.4190272265\H,0,-4.2027540229,-2.9827258218,-1.0844315618\H,0,-3.53
 99777444,-3.4868484264,0.4912476609\H,0,-3.6272225256,-0.7709690013,-2
 .0441124231\H,0,-2.0571785846,1.164714047,-2.0789819895\\Version=ES64L
 -G16RevC.01\State=1-A\HF=-1106.6304771\RMSD=3.940e-09\Dipole=-0.385334
 2,-2.2816904,-0.3541551\Quadrupole=4.2780908,-8.0089375,3.7308467,2.39
 97332,2.2652315,-0.779452\PG=C01 [X(C13H13N1O2S1)]\\@
 The archive entry for this job was punched.


 THERE IS AN OLD, OLD RECIPE IN MAINE FOR STEWING COOT. PLACE THE
 BIRD IN A KETTLE OF WATER WITH A RED BUILDING BRICK FREE OF MORTAR AND
 BLEMISHES. PARBOIL THE COOT AND BRICK TOGETHER FOR THREE HOURS.
 POUR OFF THE WATER, REFILL THE KETTLE, AND AGAIN PARBOIL FOR THREE HOURS.
 ONCE AGAIN POUR OFF THE WATER, FOR THE LAST TIME ADD FRESH WATER,
 AND LET THE COOT AND BRICK SIMMER TOGETHER OVERNIGHT. IN THE MORNING,
 THROW AWAY THE COOT AND EAT THE BRICK.
 Job cpu time:       0 days  1 hours 45 minutes 52.1 seconds.
 Elapsed time:       0 days  0 hours 13 minutes 38.2 seconds.
 File lengths (MBytes):  RWF=    226 Int=      0 D2E=      0 Chk=     34 Scr=      2
 Normal termination of Gaussian 16 at Tue Feb 17 17:29:20 2026.
