 Entering Gaussian System, Link 0=g16
 Input=prod_5k_3.com
 Output=prod_5k_3.log
 Initial command:
 /uufs/chpc.utah.edu/sys/installdir/gaussian16/C01/AVX/g16/l1.exe "/scratch/general/vast/u1366379/GAUSSSCRDIR/11028683-notchpeak.peaks/Gau-3702082.inp" -scrdir="/scratch/general/vast/u1366379/GAUSSSCRDIR/11028683-notchpeak.peaks/"
 Entering Link 1 = /uufs/chpc.utah.edu/sys/installdir/gaussian16/C01/AVX/g16/l1.exe PID=   3702096.
  
 Copyright (c) 1988-2019, Gaussian, Inc.  All Rights Reserved.
  
 This is part of the Gaussian(R) 16 program.  It is based on
 the Gaussian(R) 09 system (copyright 2009, Gaussian, Inc.),
 the Gaussian(R) 03 system (copyright 2003, Gaussian, Inc.),
 the Gaussian(R) 98 system (copyright 1998, Gaussian, Inc.),
 the Gaussian(R) 94 system (copyright 1995, Gaussian, Inc.),
 the Gaussian 92(TM) system (copyright 1992, Gaussian, Inc.),
 the Gaussian 90(TM) system (copyright 1990, Gaussian, Inc.),
 the Gaussian 88(TM) system (copyright 1988, Gaussian, Inc.),
 the Gaussian 86(TM) system (copyright 1986, Carnegie Mellon
 University), and the Gaussian 82(TM) system (copyright 1983,
 Carnegie Mellon University). Gaussian is a federally registered
 trademark of Gaussian, Inc.
  
 This software contains proprietary and confidential information,
 including trade secrets, belonging to Gaussian, Inc.
  
 This software is provided under written license and may be
 used, copied, transmitted, or stored only in accord with that
 written license.
  
 The following legend is applicable only to US Government
 contracts under FAR:
  
                    RESTRICTED RIGHTS LEGEND
  
 Use, reproduction and disclosure by the US Government is
 subject to restrictions as set forth in subparagraphs (a)
 and (c) of the Commercial Computer Software - Restricted
 Rights clause in FAR 52.227-19.
  
 Gaussian, Inc.
 340 Quinnipiac St., Bldg. 40, Wallingford CT 06492
  
  
 ---------------------------------------------------------------
 Warning -- This program may not be used in any manner that
 competes with the business of Gaussian, Inc. or will provide
 assistance to any competitor of Gaussian, Inc.  The licensee
 of this program is prohibited from giving any competitor of
 Gaussian, Inc. access to this program.  By using this program,
 the user acknowledges that Gaussian, Inc. is engaged in the
 business of creating and licensing software in the field of
 computational chemistry and represents and warrants to the
 licensee that it is not a competitor of Gaussian, Inc. and that
 it will not use this program in any manner prohibited above.
 ---------------------------------------------------------------
  

 Cite this work as:
 Gaussian 16, Revision C.01,
 M. J. Frisch, G. W. Trucks, H. B. Schlegel, G. E. Scuseria, 
 M. A. Robb, J. R. Cheeseman, G. Scalmani, V. Barone, 
 G. A. Petersson, H. Nakatsuji, X. Li, M. Caricato, A. V. Marenich, 
 J. Bloino, B. G. Janesko, R. Gomperts, B. Mennucci, H. P. Hratchian, 
 J. V. Ortiz, A. F. Izmaylov, J. L. Sonnenberg, D. Williams-Young, 
 F. Ding, F. Lipparini, F. Egidi, J. Goings, B. Peng, A. Petrone, 
 T. Henderson, D. Ranasinghe, V. G. Zakrzewski, J. Gao, N. Rega, 
 G. Zheng, W. Liang, M. Hada, M. Ehara, K. Toyota, R. Fukuda, 
 J. Hasegawa, M. Ishida, T. Nakajima, Y. Honda, O. Kitao, H. Nakai, 
 T. Vreven, K. Throssell, J. A. Montgomery, Jr., J. E. Peralta, 
 F. Ogliaro, M. J. Bearpark, J. J. Heyd, E. N. Brothers, K. N. Kudin, 
 V. N. Staroverov, T. A. Keith, R. Kobayashi, J. Normand, 
 K. Raghavachari, A. P. Rendell, J. C. Burant, S. S. Iyengar, 
 J. Tomasi, M. Cossi, J. M. Millam, M. Klene, C. Adamo, R. Cammi, 
 J. W. Ochterski, R. L. Martin, K. Morokuma, O. Farkas, 
 J. B. Foresman, and D. J. Fox, Gaussian, Inc., Wallingford CT, 2019.
 
 ******************************************
 Gaussian 16:  ES64L-G16RevC.01  3-Jul-2019
                17-Feb-2026 
 ******************************************
 %NProcShared=8
 Will use up to    8 processors via shared memory.
 %Mem=8GB
 %chk=prod_5k_3.chk
 ------------------------------------------------------
 #N OPT FREQ=NORAMAN Integral(Ultrafine) wB97XD def2SVP
 ------------------------------------------------------
 1/18=20,19=15,26=4,38=1/1,3;
 2/9=110,12=2,17=6,18=5,40=1/2;
 3/5=43,7=101,11=2,25=1,30=1,71=1,74=-58,75=-5/1,2,3;
 4//1;
 5/5=2,38=5/2;
 6/7=2,8=2,9=2,10=2,28=1/1;
 7//1,2,3,16;
 1/18=20,19=15,26=4/3(2);
 2/9=110/2;
 99//99;
 2/9=110/2;
 3/5=43,7=101,11=2,25=1,30=1,71=1,74=-58,75=-5/1,2,3;
 4/5=5,16=3,69=1/1;
 5/5=2,38=5/2;
 7//1,2,3,16;
 1/18=20,19=15,26=4/3(-5);
 2/9=110/2;
 6/7=2,8=2,9=2,10=2,19=2,28=1/1;
 99/9=1/99;
 ---------
 prod_5k_3
 ---------
 Symbolic Z-matrix:
 Charge =  0 Multiplicity = 1
 C                     1.42975  -0.1274    0.29623 
 N                     0.07771  -0.32745   0.746 
 C                    -1.04368   0.41075   0.24274 
 C                    -1.16569   1.79363   0.36951 
 C                    -2.28654   2.44217  -0.09623 
 C                    -3.30284   1.72485  -0.69616 
 C                    -3.19488   0.35427  -0.83074 
 C                    -2.07664  -0.31462  -0.36585 
 C                    -1.90077  -1.79343  -0.56628 
 C                    -1.16925  -2.5109    0.5905 
 C                    -0.26114  -1.59457   1.4258 
 C                     2.07888   1.09708   0.45324 
 C                     3.3682    1.27448   0.0036 
 C                     4.0381    0.23548  -0.61258 
 C                     3.41277  -0.98535  -0.77449 
 C                     2.12424  -1.16642  -0.3248 
 H                    -0.39279   2.34948   0.86669 
 H                    -2.37388   3.51115   0.01175 
 H                    -4.17903   2.23472  -1.06225 
 H                    -3.97993  -0.20449  -1.31104 
 H                    -1.34168  -1.93733  -1.49915 
 H                    -2.88068  -2.2542   -0.7429 
 H                    -1.90711  -2.98849   1.24865 
 H                    -0.57767  -3.34317   0.1865 
 H                    -0.75645  -1.32156   2.36388 
 H                     0.66543  -2.09973   1.71792 
 H                     1.57468   1.89843   0.96063 
 H                     3.8576    2.22582   0.13562 
 H                     5.0468    0.37677  -0.96522 
 H                     3.9334   -1.79655  -1.25697 
 H                     1.62911  -2.11069  -0.46868 
 

 GradGradGradGradGradGradGradGradGradGradGradGradGradGradGradGradGradGrad
 Berny optimization.
 Initialization pass.
                           ----------------------------
                           !    Initial Parameters    !
                           ! (Angstroms and Degrees)  !
 --------------------------                            --------------------------
 ! Name  Definition              Value          Derivative Info.                !
 --------------------------------------------------------------------------------
 ! R1    R(1,2)                  1.4389         estimate D2E/DX2                !
 ! R2    R(1,12)                 1.3948         estimate D2E/DX2                !
 ! R3    R(1,16)                 1.3955         estimate D2E/DX2                !
 ! R4    R(2,3)                  1.4338         estimate D2E/DX2                !
 ! R5    R(2,11)                 1.4773         estimate D2E/DX2                !
 ! R6    R(3,4)                  1.394          estimate D2E/DX2                !
 ! R7    R(3,8)                  1.4013         estimate D2E/DX2                !
 ! R8    R(4,5)                  1.3762         estimate D2E/DX2                !
 ! R9    R(4,17)                 1.074          estimate D2E/DX2                !
 ! R10   R(5,6)                  1.3811         estimate D2E/DX2                !
 ! R11   R(5,18)                 1.078          estimate D2E/DX2                !
 ! R12   R(6,7)                  1.3814         estimate D2E/DX2                !
 ! R13   R(6,19)                 1.0778         estimate D2E/DX2                !
 ! R14   R(7,8)                  1.3835         estimate D2E/DX2                !
 ! R15   R(7,20)                 1.0767         estimate D2E/DX2                !
 ! R16   R(8,9)                  1.5027         estimate D2E/DX2                !
 ! R17   R(9,10)                 1.5453         estimate D2E/DX2                !
 ! R18   R(9,21)                 1.0971         estimate D2E/DX2                !
 ! R19   R(9,22)                 1.0971         estimate D2E/DX2                !
 ! R20   R(10,11)                1.5369         estimate D2E/DX2                !
 ! R21   R(10,23)                1.098          estimate D2E/DX2                !
 ! R22   R(10,24)                1.0981         estimate D2E/DX2                !
 ! R23   R(11,25)                1.0954         estimate D2E/DX2                !
 ! R24   R(11,26)                1.095          estimate D2E/DX2                !
 ! R25   R(12,13)                1.377          estimate D2E/DX2                !
 ! R26   R(12,27)                1.0742         estimate D2E/DX2                !
 ! R27   R(13,14)                1.3813         estimate D2E/DX2                !
 ! R28   R(13,28)                1.078          estimate D2E/DX2                !
 ! R29   R(14,15)                1.3812         estimate D2E/DX2                !
 ! R30   R(14,29)                1.0779         estimate D2E/DX2                !
 ! R31   R(15,16)                1.3767         estimate D2E/DX2                !
 ! R32   R(15,30)                1.0779         estimate D2E/DX2                !
 ! R33   R(16,31)                1.0759         estimate D2E/DX2                !
 ! A1    A(2,1,12)             121.6139         estimate D2E/DX2                !
 ! A2    A(2,1,16)             120.2125         estimate D2E/DX2                !
 ! A3    A(12,1,16)            118.1716         estimate D2E/DX2                !
 ! A4    A(1,2,3)              123.6161         estimate D2E/DX2                !
 ! A5    A(1,2,11)             118.5947         estimate D2E/DX2                !
 ! A6    A(3,2,11)             115.0698         estimate D2E/DX2                !
 ! A7    A(2,3,4)              123.1806         estimate D2E/DX2                !
 ! A8    A(2,3,8)              117.5469         estimate D2E/DX2                !
 ! A9    A(4,3,8)              119.2414         estimate D2E/DX2                !
 ! A10   A(3,4,5)              120.5312         estimate D2E/DX2                !
 ! A11   A(3,4,17)             119.5058         estimate D2E/DX2                !
 ! A12   A(5,4,17)             119.9263         estimate D2E/DX2                !
 ! A13   A(4,5,6)              120.1058         estimate D2E/DX2                !
 ! A14   A(4,5,18)             119.9623         estimate D2E/DX2                !
 ! A15   A(6,5,18)             119.9312         estimate D2E/DX2                !
 ! A16   A(5,6,7)              120.0092         estimate D2E/DX2                !
 ! A17   A(5,6,19)             120.0041         estimate D2E/DX2                !
 ! A18   A(7,6,19)             119.9864         estimate D2E/DX2                !
 ! A19   A(6,7,8)              120.6727         estimate D2E/DX2                !
 ! A20   A(6,7,20)             120.0917         estimate D2E/DX2                !
 ! A21   A(8,7,20)             119.2321         estimate D2E/DX2                !
 ! A22   A(3,8,7)              119.4393         estimate D2E/DX2                !
 ! A23   A(3,8,9)              118.7567         estimate D2E/DX2                !
 ! A24   A(7,8,9)              121.7082         estimate D2E/DX2                !
 ! A25   A(8,9,10)             114.3603         estimate D2E/DX2                !
 ! A26   A(8,9,21)             107.5871         estimate D2E/DX2                !
 ! A27   A(8,9,22)             109.2837         estimate D2E/DX2                !
 ! A28   A(10,9,21)            109.5355         estimate D2E/DX2                !
 ! A29   A(10,9,22)            110.3842         estimate D2E/DX2                !
 ! A30   A(21,9,22)            105.2597         estimate D2E/DX2                !
 ! A31   A(9,10,11)            114.1881         estimate D2E/DX2                !
 ! A32   A(9,10,23)            109.4219         estimate D2E/DX2                !
 ! A33   A(9,10,24)            109.3601         estimate D2E/DX2                !
 ! A34   A(11,10,23)           109.3061         estimate D2E/DX2                !
 ! A35   A(11,10,24)           109.4825         estimate D2E/DX2                !
 ! A36   A(23,10,24)           104.6478         estimate D2E/DX2                !
 ! A37   A(2,11,10)            113.3792         estimate D2E/DX2                !
 ! A38   A(2,11,25)            106.4999         estimate D2E/DX2                !
 ! A39   A(2,11,26)            108.9266         estimate D2E/DX2                !
 ! A40   A(10,11,25)           110.2959         estimate D2E/DX2                !
 ! A41   A(10,11,26)           111.7105         estimate D2E/DX2                !
 ! A42   A(25,11,26)           105.6131         estimate D2E/DX2                !
 ! A43   A(1,12,13)            120.8059         estimate D2E/DX2                !
 ! A44   A(1,12,27)            119.3182         estimate D2E/DX2                !
 ! A45   A(13,12,27)           119.8447         estimate D2E/DX2                !
 ! A46   A(12,13,14)           120.1905         estimate D2E/DX2                !
 ! A47   A(12,13,28)           119.9222         estimate D2E/DX2                !
 ! A48   A(14,13,28)           119.887          estimate D2E/DX2                !
 ! A49   A(13,14,15)           119.8402         estimate D2E/DX2                !
 ! A50   A(13,14,29)           120.0798         estimate D2E/DX2                !
 ! A51   A(15,14,29)           120.08           estimate D2E/DX2                !
 ! A52   A(14,15,16)           120.1135         estimate D2E/DX2                !
 ! A53   A(14,15,30)           119.9331         estimate D2E/DX2                !
 ! A54   A(16,15,30)           119.9531         estimate D2E/DX2                !
 ! A55   A(1,16,15)            120.8778         estimate D2E/DX2                !
 ! A56   A(1,16,31)            118.9432         estimate D2E/DX2                !
 ! A57   A(15,16,31)           120.1649         estimate D2E/DX2                !
 ! D1    D(12,1,2,3)            61.4723         estimate D2E/DX2                !
 ! D2    D(12,1,2,11)         -138.1582         estimate D2E/DX2                !
 ! D3    D(16,1,2,3)          -117.9916         estimate D2E/DX2                !
 ! D4    D(16,1,2,11)           42.3779         estimate D2E/DX2                !
 ! D5    D(2,1,12,13)         -179.2944         estimate D2E/DX2                !
 ! D6    D(2,1,12,27)            2.7403         estimate D2E/DX2                !
 ! D7    D(16,1,12,13)           0.1801         estimate D2E/DX2                !
 ! D8    D(16,1,12,27)        -177.7853         estimate D2E/DX2                !
 ! D9    D(2,1,16,15)          179.2332         estimate D2E/DX2                !
 ! D10   D(2,1,16,31)            0.5997         estimate D2E/DX2                !
 ! D11   D(12,1,16,15)          -0.2489         estimate D2E/DX2                !
 ! D12   D(12,1,16,31)        -178.8824         estimate D2E/DX2                !
 ! D13   D(1,2,3,4)            -61.7177         estimate D2E/DX2                !
 ! D14   D(1,2,3,8)            120.3298         estimate D2E/DX2                !
 ! D15   D(11,2,3,4)           137.2875         estimate D2E/DX2                !
 ! D16   D(11,2,3,8)           -40.665          estimate D2E/DX2                !
 ! D17   D(1,2,11,10)         -110.201          estimate D2E/DX2                !
 ! D18   D(1,2,11,25)          128.3205         estimate D2E/DX2                !
 ! D19   D(1,2,11,26)           14.8478         estimate D2E/DX2                !
 ! D20   D(3,2,11,10)           51.8079         estimate D2E/DX2                !
 ! D21   D(3,2,11,25)          -69.6706         estimate D2E/DX2                !
 ! D22   D(3,2,11,26)          176.8568         estimate D2E/DX2                !
 ! D23   D(2,3,4,5)           -177.9009         estimate D2E/DX2                !
 ! D24   D(2,3,4,17)            -0.1042         estimate D2E/DX2                !
 ! D25   D(8,3,4,5)              0.0186         estimate D2E/DX2                !
 ! D26   D(8,3,4,17)           177.8153         estimate D2E/DX2                !
 ! D27   D(2,3,8,7)            178.153          estimate D2E/DX2                !
 ! D28   D(2,3,8,9)             -5.3451         estimate D2E/DX2                !
 ! D29   D(4,3,8,7)              0.1168         estimate D2E/DX2                !
 ! D30   D(4,3,8,9)            176.6188         estimate D2E/DX2                !
 ! D31   D(3,4,5,6)             -0.047          estimate D2E/DX2                !
 ! D32   D(3,4,5,18)           179.6428         estimate D2E/DX2                !
 ! D33   D(17,4,5,6)          -177.8344         estimate D2E/DX2                !
 ! D34   D(17,4,5,18)            1.8553         estimate D2E/DX2                !
 ! D35   D(4,5,6,7)             -0.0611         estimate D2E/DX2                !
 ! D36   D(4,5,6,19)          -179.8686         estimate D2E/DX2                !
 ! D37   D(18,5,6,7)          -179.7509         estimate D2E/DX2                !
 ! D38   D(18,5,6,19)            0.4416         estimate D2E/DX2                !
 ! D39   D(5,6,7,8)              0.1994         estimate D2E/DX2                !
 ! D40   D(5,6,7,20)          -179.111          estimate D2E/DX2                !
 ! D41   D(19,6,7,8)          -179.993          estimate D2E/DX2                !
 ! D42   D(19,6,7,20)            0.6966         estimate D2E/DX2                !
 ! D43   D(6,7,8,3)             -0.2264         estimate D2E/DX2                !
 ! D44   D(6,7,8,9)           -176.6215         estimate D2E/DX2                !
 ! D45   D(20,7,8,3)           179.0899         estimate D2E/DX2                !
 ! D46   D(20,7,8,9)             2.6947         estimate D2E/DX2                !
 ! D47   D(3,8,9,10)            37.6671         estimate D2E/DX2                !
 ! D48   D(3,8,9,21)           -84.2431         estimate D2E/DX2                !
 ! D49   D(3,8,9,22)           161.9653         estimate D2E/DX2                !
 ! D50   D(7,8,9,10)          -145.9138         estimate D2E/DX2                !
 ! D51   D(7,8,9,21)            92.176          estimate D2E/DX2                !
 ! D52   D(7,8,9,22)           -21.6157         estimate D2E/DX2                !
 ! D53   D(8,9,10,11)          -24.0079         estimate D2E/DX2                !
 ! D54   D(8,9,10,23)           98.8579         estimate D2E/DX2                !
 ! D55   D(8,9,10,24)         -147.057          estimate D2E/DX2                !
 ! D56   D(21,9,10,11)          96.8292         estimate D2E/DX2                !
 ! D57   D(21,9,10,23)        -140.305          estimate D2E/DX2                !
 ! D58   D(21,9,10,24)         -26.2198         estimate D2E/DX2                !
 ! D59   D(22,9,10,11)        -147.7177         estimate D2E/DX2                !
 ! D60   D(22,9,10,23)         -24.8519         estimate D2E/DX2                !
 ! D61   D(22,9,10,24)          89.2333         estimate D2E/DX2                !
 ! D62   D(9,10,11,2)          -17.9215         estimate D2E/DX2                !
 ! D63   D(9,10,11,25)         101.4047         estimate D2E/DX2                !
 ! D64   D(9,10,11,26)        -141.4585         estimate D2E/DX2                !
 ! D65   D(23,10,11,2)        -140.8502         estimate D2E/DX2                !
 ! D66   D(23,10,11,25)        -21.5241         estimate D2E/DX2                !
 ! D67   D(23,10,11,26)         95.6128         estimate D2E/DX2                !
 ! D68   D(24,10,11,2)         105.0612         estimate D2E/DX2                !
 ! D69   D(24,10,11,25)       -135.6127         estimate D2E/DX2                !
 ! D70   D(24,10,11,26)        -18.4759         estimate D2E/DX2                !
 ! D71   D(1,12,13,14)           0.022          estimate D2E/DX2                !
 ! D72   D(1,12,13,28)        -179.7751         estimate D2E/DX2                !
 ! D73   D(27,12,13,14)        177.9767         estimate D2E/DX2                !
 ! D74   D(27,12,13,28)         -1.8204         estimate D2E/DX2                !
 ! D75   D(12,13,14,15)         -0.1609         estimate D2E/DX2                !
 ! D76   D(12,13,14,29)        179.9068         estimate D2E/DX2                !
 ! D77   D(28,13,14,15)        179.6363         estimate D2E/DX2                !
 ! D78   D(28,13,14,29)         -0.296          estimate D2E/DX2                !
 ! D79   D(13,14,15,16)          0.0926         estimate D2E/DX2                !
 ! D80   D(13,14,15,30)        179.8722         estimate D2E/DX2                !
 ! D81   D(29,14,15,16)       -179.9751         estimate D2E/DX2                !
 ! D82   D(29,14,15,30)         -0.1955         estimate D2E/DX2                !
 ! D83   D(14,15,16,1)           0.1154         estimate D2E/DX2                !
 ! D84   D(14,15,16,31)        178.7323         estimate D2E/DX2                !
 ! D85   D(30,15,16,1)        -179.6642         estimate D2E/DX2                !
 ! D86   D(30,15,16,31)         -1.0473         estimate D2E/DX2                !
 --------------------------------------------------------------------------------
 Trust Radius=3.00D-01 FncErr=1.00D-07 GrdErr=1.00D-06 EigMax=2.50D+02 EigMin=1.00D-04
 Number of steps in this run=    186 maximum allowed number of steps=    186.
 GradGradGradGradGradGradGradGradGradGradGradGradGradGradGradGradGradGrad

                          Input orientation:                          
 ---------------------------------------------------------------------
 Center     Atomic      Atomic             Coordinates (Angstroms)
 Number     Number       Type             X           Y           Z
 ---------------------------------------------------------------------
      1          6           0        1.429750   -0.127400    0.296230
      2          7           0        0.077710   -0.327450    0.746000
      3          6           0       -1.043680    0.410750    0.242740
      4          6           0       -1.165690    1.793630    0.369510
      5          6           0       -2.286540    2.442170   -0.096230
      6          6           0       -3.302840    1.724850   -0.696160
      7          6           0       -3.194880    0.354270   -0.830740
      8          6           0       -2.076640   -0.314620   -0.365850
      9          6           0       -1.900770   -1.793430   -0.566280
     10          6           0       -1.169250   -2.510900    0.590500
     11          6           0       -0.261140   -1.594570    1.425800
     12          6           0        2.078880    1.097080    0.453240
     13          6           0        3.368200    1.274480    0.003600
     14          6           0        4.038100    0.235480   -0.612580
     15          6           0        3.412770   -0.985350   -0.774490
     16          6           0        2.124240   -1.166420   -0.324800
     17          1           0       -0.392790    2.349480    0.866690
     18          1           0       -2.373880    3.511150    0.011750
     19          1           0       -4.179030    2.234720   -1.062250
     20          1           0       -3.979930   -0.204490   -1.311040
     21          1           0       -1.341680   -1.937330   -1.499150
     22          1           0       -2.880680   -2.254200   -0.742900
     23          1           0       -1.907110   -2.988490    1.248650
     24          1           0       -0.577670   -3.343170    0.186500
     25          1           0       -0.756450   -1.321560    2.363880
     26          1           0        0.665430   -2.099730    1.717920
     27          1           0        1.574680    1.898430    0.960630
     28          1           0        3.857600    2.225820    0.135620
     29          1           0        5.046800    0.376770   -0.965220
     30          1           0        3.933400   -1.796550   -1.256970
     31          1           0        1.629110   -2.110690   -0.468680
 ---------------------------------------------------------------------
                    Distance matrix (angstroms):
                    1          2          3          4          5
     1  C    0.000000
     2  N    1.438862   0.000000
     3  C    2.531861   1.433780   0.000000
     4  C    3.229866   2.487322   1.394028   0.000000
     5  C    4.535143   3.737623   2.405466   1.376162   0.000000
     6  C    5.178134   4.209499   2.777084   2.389099   1.381061
     7  C    4.784273   3.696038   2.404831   2.762240   2.392470
     8  C    3.573258   2.424376   1.401267   2.411494   2.777885
     9  C    3.822557   2.790262   2.499505   3.779292   4.279027
    10  C    3.538710   2.519235   2.944952   4.310200   5.123752
    11  C    2.507514   1.477342   2.456279   3.662493   4.765930
    12  C    1.394766   2.473798   3.204019   3.319552   4.600878
    13  C    2.410081   3.734255   4.501989   4.578162   5.774907
    14  C    2.785876   4.224609   5.156237   5.520123   6.718420
    15  C    2.411408   3.723889   4.779519   5.476656   6.685063
    16  C    1.395549   2.457391   3.584032   4.479688   5.703433
    17  H    3.127621   2.720642   2.138141   1.074026   2.126522
    18  H    5.271392   4.613487   3.381607   2.130162   1.077964
    19  H    6.235663   5.287184   3.854904   3.365221   2.134888
    20  H    5.643926   4.550931   3.378508   3.838838   3.368700
    21  H    3.765642   3.105975   2.938786   4.176473   4.694781
    22  H    4.917609   3.831613   3.383491   4.534708   4.777769
    23  H    4.497508   3.357574   3.648589   4.918461   5.607561
    24  H    3.792486   3.136420   3.783153   5.173584   6.039067
    25  H    3.237386   2.074033   2.753658   3.721478   4.749629
    26  H    2.548622   2.104999   3.376348   4.508820   5.712628
    27  H    2.136918   2.691009   3.095863   2.805358   4.040003
    28  H    3.384951   4.602100   5.227667   5.047270   6.152318
    29  H    3.863741   5.302457   6.209208   6.510302   7.668044
    30  H    3.386260   4.586555   5.647356   6.444808   7.615886
    31  H    2.135011   2.657486   3.742671   4.874134   6.016608
                    6          7          8          9         10
     6  C    0.000000
     7  C    1.381397   0.000000
     8  C    2.402521   1.383473   0.000000
     9  C    3.789586   2.521364   1.502658   0.000000
    10  C    4.914192   3.785802   2.561564   1.545323   0.000000
    11  C    4.977269   4.182915   2.853826   2.587724   1.536896
    12  C    5.538784   5.478405   4.464544   5.023155   4.856615
    13  C    6.722743   6.679590   5.684014   6.123633   5.938182
    14  C    7.490968   7.237244   6.144390   6.276049   6.008868
    15  C    7.242288   6.742313   5.545312   5.378666   5.018507
    16  C    6.160402   5.555314   4.286565   4.080706   3.673211
    17  H    3.361704   3.835862   3.384071   4.635851   4.929753
    18  H    2.134238   3.368935   3.855833   5.356913   6.168563
    19  H    1.077821   2.135004   3.377003   4.654293   5.857582
    20  H    2.135154   1.076664   2.127916   2.720718   4.103085
    21  H    4.231135   3.022011   2.111332   1.097058   2.173787
    22  H    4.001655   2.628793   2.133218   1.097145   2.184684
    23  H    5.286390   4.142011   3.128088   2.173058   1.098040
    24  H    5.821552   4.642804   3.424050   2.172318   1.098115
    25  H    5.012840   4.354302   3.195036   3.180875   2.174813
    26  H    6.016840   5.236390   3.879132   3.449170   2.192302
    27  H    5.154152   5.323734   4.470937   5.295284   5.206567
    28  H    7.225976   7.360301   6.474605   7.057327   6.921897
    29  H    8.462045   8.242808   7.181968   7.289558   7.028384
    30  H    8.067090   7.457887   6.253862   5.874913   5.473617
    31  H    6.251979   5.429364   4.119348   3.545452   3.018750
                   11         12         13         14         15
    11  C    0.000000
    12  C    3.696829   0.000000
    13  C    4.840063   1.376951   0.000000
    14  C    5.097798   2.390998   1.381291   0.000000
    15  C    4.325510   2.760996   2.390448   1.381187   0.000000
    16  C    2.989641   2.393916   2.759217   2.389770   1.376705
    17  H    3.985658   2.801535   4.005695   5.127380   5.319478
    18  H    5.703647   5.084262   6.162324   7.227260   7.370346
    19  H    6.016952   6.538530   7.682368   8.468789   8.251490
    20  H    4.822034   6.443287   7.609904   8.060411   7.453163
    21  H    3.136939   4.971891   5.895503   5.869339   4.902672
    22  H    3.464154   6.104020   7.215078   7.354251   6.420163
    23  H    2.164166   5.763044   6.895793   7.014534   6.033804
    24  H    2.166485   5.181142   6.076680   5.894964   4.733543
    25  H    1.095381   4.188014   5.415079   5.854178   5.229225
    26  H    1.095013   3.717102   4.650715   4.717980   3.873219
    27  H    3.973370   1.074162   2.126484   3.362860   3.834762
    28  H    5.764023   2.130442   1.077956   2.133972   3.367163
    29  H    6.146331   3.367406   2.135929   1.077865   2.135838
    30  H    4.983193   3.838901   3.367449   2.134326   1.077909
    31  H    2.725524   3.367791   3.834952   3.365777   2.131045
                   16         17         18         19         20
    16  C    0.000000
    17  H    4.485158   0.000000
    18  H    6.498154   2.450534   0.000000
    19  H    7.200194   4.250834   2.457909   0.000000
    20  H    6.257705   4.912519   4.258539   2.459936   0.000000
    21  H    3.739786   4.987417   5.747538   5.064330   3.162038
    22  H    5.138803   5.474874   5.836575   4.683813   2.394252
    23  H    4.695473   5.561743   6.632731   6.146853   4.312685
    24  H    3.507134   5.736123   7.087920   6.755888   4.865112
    25  H    3.943532   3.981251   5.612814   6.008290   5.014350
    26  H    2.678040   4.651870   6.605331   7.070049   5.860538
    27  H    3.368628   2.020695   4.369481   6.108217   6.358966
    28  H    3.837162   4.314576   6.363864   8.125417   8.332233
    29  H    3.366442   6.069318   8.114512   9.411553   9.052033
    30  H    2.130508   6.357312   8.340450   9.060937   8.072073
    31  H    1.075872   5.075865   6.918080   7.278008   5.983686
                   21         22         23         24         25
    21  H    0.000000
    22  H    1.743801   0.000000
    23  H    2.995839   2.335228   0.000000
    24  H    2.324116   2.711733   1.738209   0.000000
    25  H    3.955334   3.877403   2.312231   2.976551   0.000000
    26  H    3.795313   4.319073   2.761896   2.331671   1.744865
    27  H    5.410058   6.324285   6.007313   5.718939   4.215639
    28  H    6.858338   8.139213   7.852372   7.119541   6.232055
    29  H    6.815630   8.355619   8.036359   6.840985   6.902532
    30  H    5.282513   6.848752   6.466097   4.982509   5.943977
    31  H    3.149209   4.520398   4.027978   2.611158   3.786426
                   26         27         28         29         30
    26  H    0.000000
    27  H    4.169593   0.000000
    28  H    5.603928   2.449398   0.000000
    29  H    5.703393   4.252054   2.458665   0.000000
    30  H    4.429618   4.912656   4.257289   2.459288   0.000000
    31  H    2.389565   4.256634   4.912908   4.256127   2.455573
                   31
    31  H    0.000000
 Stoichiometry    C15H15N
 Framework group  C1[X(C15H15N)]
 Deg. of freedom    87
 Full point group                 C1      NOp   1
 Largest Abelian subgroup         C1      NOp   1
 Largest concise Abelian subgroup C1      NOp   1
                         Standard orientation:                         
 ---------------------------------------------------------------------
 Center     Atomic      Atomic             Coordinates (Angstroms)
 Number     Number       Type             X           Y           Z
 ---------------------------------------------------------------------
      1          6           0       -1.444830   -0.002756    0.275542
      2          7           0       -0.122447    0.351935    0.718063
      3          6           0        1.067022   -0.320338    0.283395
      4          6           0        1.309033   -1.672567    0.520508
      5          6           0        2.489490   -2.252920    0.116114
      6          6           0        3.446939   -1.496966   -0.531306
      7          6           0        3.220124   -0.156308   -0.775123
      8          6           0        2.040478    0.444418   -0.373174
      9          6           0        1.737407    1.881306   -0.691733
     10          6           0        0.928600    2.619090    0.398923
     11          6           0        0.093098    1.693667    1.297577
     12          6           0       -1.985306   -1.264220    0.524473
     13          6           0       -3.247226   -1.590809    0.080750
     14          6           0       -3.997409   -0.667357   -0.620982
     15          6           0       -3.480243    0.587973   -0.874684
     16          6           0       -2.219435    0.918139   -0.431209
     17          1           0        0.581209   -2.254513    1.054494
     18          1           0        2.669474   -3.298046    0.309307
     19          1           0        4.370010   -1.953671   -0.849204
     20          1           0        3.959547    0.430938   -1.292424
     21          1           0        1.181358    1.901061   -1.637225
     22          1           0        2.675172    2.412487   -0.897087
     23          1           0        1.611704    3.210836    1.022539
     24          1           0        0.271635    3.360920   -0.074301
     25          1           0        0.596969    1.540429    2.258042
     26          1           0       -0.878662    2.135391    1.541739
     27          1           0       -1.419602   -1.975044    1.097651
     28          1           0       -3.652415   -2.568762    0.284266
     29          1           0       -4.984439   -0.925414   -0.968791
     30          1           0       -4.063543    1.309064   -1.423936
     31          1           0       -1.807742    1.888654   -0.645942
 ---------------------------------------------------------------------
 Rotational constants (GHZ):           0.9665924           0.3962207           0.3132357
 Standard basis: def2SVP (5D, 7F)
 There are   315 symmetry adapted cartesian basis functions of A   symmetry.
 There are   299 symmetry adapted basis functions of A   symmetry.
   299 basis functions,   505 primitive gaussians,   315 cartesian basis functions
    56 alpha electrons       56 beta electrons
       nuclear repulsion energy      1033.7501159911 Hartrees.
 NAtoms=   31 NActive=   31 NUniq=   31 SFac= 1.00D+00 NAtFMM=   60 NAOKFM=F Big=F
 Integral buffers will be    131072 words long.
 Raffenetti 2 integral format.
 Two-electron integral symmetry is turned on.
 Nuclear repulsion after empirical dispersion term =     1033.7272808164 Hartrees.
 One-electron integrals computed using PRISM.
   1 Symmetry operations used in ECPInt.
 ECPInt:  NShTT=   10011 NPrTT=   36031 LenC2=    9561 LenP2D=   25151.
 LDataN:  DoStor=T MaxTD1= 4 Len=   56
 NBasis=   299 RedAO= T EigKep=  2.15D-04  NBF=   299
 NBsUse=   299 1.00D-06 EigRej= -1.00D+00 NBFU=   299
 ExpMin= 1.22D-01 ExpMax= 1.71D+03 ExpMxC= 2.58D+02 IAcc=3 IRadAn=         5 AccDes= 0.00D+00
 Harris functional with IExCor= 4639 and IRadAn=       5 diagonalized for initial guess.
 HarFok:  IExCor= 4639 AccDes= 0.00D+00 IRadAn=         5 IDoV= 1 UseB2=F ITyADJ=14
 ICtDFT=  3500011 ScaDFX=  1.000000  1.000000  1.000000  1.000000
 FoFCou: FMM=F IPFlag=           0 FMFlag=      100000 FMFlg1=           0
         NFxFlg=           0 DoJE=T BraDBF=F KetDBF=T FulRan=T
         wScrn=  0.000000 ICntrl=       500 IOpCl=  0 I1Cent=   200000004 NGrid=           0
         NMat0=    1 NMatS0=      1 NMatT0=    0 NMatD0=    1 NMtDS0=    0 NMtDT0=    0
 Petite list used in FoFCou.
 Requested convergence on RMS density matrix=1.00D-08 within 128 cycles.
 Requested convergence on MAX density matrix=1.00D-06.
 Requested convergence on             energy=1.00D-06.
 No special actions if energy rises.
 Integral accuracy reduced to 1.0D-05 until final iterations.
 Initial convergence to 1.0D-05 achieved.  Increase integral accuracy.
 SCF Done:  E(RwB97XD) =  -634.714874905     A.U. after   16 cycles
            NFock= 16  Conv=0.48D-08     -V/T= 2.0109

 **********************************************************************

            Population analysis using the SCF Density.

 **********************************************************************

 Orbital symmetries:
       Occupied  (A) (A) (A) (A) (A) (A) (A) (A) (A) (A) (A) (A)
                 (A) (A) (A) (A) (A) (A) (A) (A) (A) (A) (A) (A)
                 (A) (A) (A) (A) (A) (A) (A) (A) (A) (A) (A) (A)
                 (A) (A) (A) (A) (A) (A) (A) (A) (A) (A) (A) (A)
                 (A) (A) (A) (A) (A) (A) (A) (A)
       Virtual   (A) (A) (A) (A) (A) (A) (A) (A) (A) (A) (A) (A)
                 (A) (A) (A) (A) (A) (A) (A) (A) (A) (A) (A) (A)
                 (A) (A) (A) (A) (A) (A) (A) (A) (A) (A) (A) (A)
                 (A) (A) (A) (A) (A) (A) (A) (A) (A) (A) (A) (A)
                 (A) (A) (A) (A) (A) (A) (A) (A) (A) (A) (A) (A)
                 (A) (A) (A) (A) (A) (A) (A) (A) (A) (A) (A) (A)
                 (A) (A) (A) (A) (A) (A) (A) (A) (A) (A) (A) (A)
                 (A) (A) (A) (A) (A) (A) (A) (A) (A) (A) (A) (A)
                 (A) (A) (A) (A) (A) (A) (A) (A) (A) (A) (A) (A)
                 (A) (A) (A) (A) (A) (A) (A) (A) (A) (A) (A) (A)
                 (A) (A) (A) (A) (A) (A) (A) (A) (A) (A) (A) (A)
                 (A) (A) (A) (A) (A) (A) (A) (A) (A) (A) (A) (A)
                 (A) (A) (A) (A) (A) (A) (A) (A) (A) (A) (A) (A)
                 (A) (A) (A) (A) (A) (A) (A) (A) (A) (A) (A) (A)
                 (A) (A) (A) (A) (A) (A) (A) (A) (A) (A) (A) (A)
                 (A) (A) (A) (A) (A) (A) (A) (A) (A) (A) (A) (A)
                 (A) (A) (A) (A) (A) (A) (A) (A) (A) (A) (A) (A)
                 (A) (A) (A) (A) (A) (A) (A) (A) (A) (A) (A) (A)
                 (A) (A) (A) (A) (A) (A) (A) (A) (A) (A) (A) (A)
                 (A) (A) (A) (A) (A) (A) (A) (A) (A) (A) (A) (A)
                 (A) (A) (A)
 The electronic state is 1-A.
 Alpha  occ. eigenvalues --  -14.45063 -10.33757 -10.33144 -10.32865 -10.30144
 Alpha  occ. eigenvalues --  -10.29906 -10.29841 -10.29727 -10.29651 -10.29440
 Alpha  occ. eigenvalues --  -10.29269 -10.29246 -10.29224 -10.29174 -10.29128
 Alpha  occ. eigenvalues --  -10.28973  -1.03504  -0.95758  -0.93840  -0.89020
 Alpha  occ. eigenvalues --   -0.84663  -0.84155  -0.83846  -0.81765  -0.75565
 Alpha  occ. eigenvalues --   -0.71585  -0.70831  -0.69496  -0.67735  -0.63932
 Alpha  occ. eigenvalues --   -0.62201  -0.59507  -0.57936  -0.56283  -0.54927
 Alpha  occ. eigenvalues --   -0.54357  -0.53402  -0.52245  -0.51376  -0.51096
 Alpha  occ. eigenvalues --   -0.50327  -0.48297  -0.47548  -0.46743  -0.45741
 Alpha  occ. eigenvalues --   -0.44607  -0.44405  -0.43272  -0.42353  -0.41519
 Alpha  occ. eigenvalues --   -0.40378  -0.36345  -0.33405  -0.32420  -0.31967
 Alpha  occ. eigenvalues --   -0.26931
 Alpha virt. eigenvalues --    0.05998   0.06808   0.07121   0.07223   0.12750
 Alpha virt. eigenvalues --    0.14445   0.15507   0.16520   0.17656   0.18712
 Alpha virt. eigenvalues --    0.19660   0.20289   0.20990   0.21131   0.22774
 Alpha virt. eigenvalues --    0.23417   0.23748   0.24412   0.25567   0.26128
 Alpha virt. eigenvalues --    0.27334   0.29370   0.30319   0.31454   0.33667
 Alpha virt. eigenvalues --    0.35004   0.36363   0.36791   0.37980   0.38530
 Alpha virt. eigenvalues --    0.40084   0.40926   0.42206   0.42464   0.43323
 Alpha virt. eigenvalues --    0.45019   0.45681   0.48235   0.48896   0.49825
 Alpha virt. eigenvalues --    0.50122   0.50750   0.53066   0.53675   0.54434
 Alpha virt. eigenvalues --    0.55066   0.55933   0.56415   0.57161   0.57513
 Alpha virt. eigenvalues --    0.58582   0.58778   0.59217   0.59577   0.61039
 Alpha virt. eigenvalues --    0.62883   0.63891   0.64471   0.64657   0.65982
 Alpha virt. eigenvalues --    0.66650   0.67804   0.69187   0.70126   0.71333
 Alpha virt. eigenvalues --    0.72937   0.73278   0.73799   0.73860   0.74620
 Alpha virt. eigenvalues --    0.74758   0.75210   0.75274   0.75938   0.77204
 Alpha virt. eigenvalues --    0.77285   0.77662   0.78491   0.78722   0.80269
 Alpha virt. eigenvalues --    0.80690   0.81361   0.82249   0.83274   0.83822
 Alpha virt. eigenvalues --    0.84389   0.85418   0.85787   0.86451   0.87499
 Alpha virt. eigenvalues --    0.88038   0.90531   0.90691   0.92393   0.94312
 Alpha virt. eigenvalues --    0.95318   0.98387   0.99693   1.02008   1.02391
 Alpha virt. eigenvalues --    1.04772   1.06620   1.08840   1.09891   1.16099
 Alpha virt. eigenvalues --    1.16729   1.18656   1.20455   1.25495   1.27682
 Alpha virt. eigenvalues --    1.28535   1.29347   1.29871   1.31550   1.33412
 Alpha virt. eigenvalues --    1.34882   1.36174   1.36332   1.37908   1.38466
 Alpha virt. eigenvalues --    1.39655   1.40235   1.41734   1.42256   1.45862
 Alpha virt. eigenvalues --    1.47549   1.49524   1.52838   1.59243   1.62071
 Alpha virt. eigenvalues --    1.62495   1.64974   1.67236   1.69848   1.72337
 Alpha virt. eigenvalues --    1.76248   1.77450   1.78293   1.79030   1.79840
 Alpha virt. eigenvalues --    1.81275   1.81665   1.82573   1.83143   1.84422
 Alpha virt. eigenvalues --    1.84575   1.85300   1.86015   1.86758   1.87191
 Alpha virt. eigenvalues --    1.87719   1.87766   1.88607   1.89663   1.90037
 Alpha virt. eigenvalues --    1.91027   1.91971   1.92978   1.93678   1.94185
 Alpha virt. eigenvalues --    1.94992   1.97177   1.97472   2.01354   2.02596
 Alpha virt. eigenvalues --    2.03278   2.03915   2.04943   2.05477   2.06607
 Alpha virt. eigenvalues --    2.08124   2.09064   2.10005   2.11253   2.12728
 Alpha virt. eigenvalues --    2.14865   2.15769   2.19766   2.20366   2.21094
 Alpha virt. eigenvalues --    2.21516   2.24646   2.25804   2.26140   2.26866
 Alpha virt. eigenvalues --    2.27439   2.29785   2.31335   2.32282   2.35780
 Alpha virt. eigenvalues --    2.37736   2.38636   2.39424   2.40639   2.41564
 Alpha virt. eigenvalues --    2.42196   2.42928   2.44380   2.45869   2.46255
 Alpha virt. eigenvalues --    2.47162   2.51019   2.51846   2.58458   2.61269
 Alpha virt. eigenvalues --    2.62471   2.64580   2.65416   2.68587   2.69684
 Alpha virt. eigenvalues --    2.71551   2.72800   2.74605   2.75587   2.76419
 Alpha virt. eigenvalues --    2.78157   2.82709   2.84633   2.85208   2.85737
 Alpha virt. eigenvalues --    2.87014   2.90179   2.91996   2.92309   2.95872
 Alpha virt. eigenvalues --    2.99227   3.00461   3.01621   3.04742   3.05885
 Alpha virt. eigenvalues --    3.06988   3.09837   3.13285   3.15602   3.17578
 Alpha virt. eigenvalues --    3.21962   3.25922   3.28084   3.29675   3.41243
 Alpha virt. eigenvalues --    3.42507   3.76683   3.79500
          Condensed to atoms (all electrons):
               1          2          3          4          5          6
     1  C    5.067524   0.317038  -0.043424  -0.009954   0.000440  -0.000028
     2  N    0.317038   6.816306   0.342154  -0.067257   0.007494  -0.000136
     3  C   -0.043424   0.342154   5.115649   0.336724   0.105852  -0.147640
     4  C   -0.009954  -0.067257   0.336724   5.079106   0.273750   0.081592
     5  C    0.000440   0.007494   0.105852   0.273750   5.087540   0.280883
     6  C   -0.000028  -0.000136  -0.147640   0.081592   0.280883   5.062553
     7  C   -0.000025   0.006037   0.057232  -0.128920   0.085279   0.310701
     8  C    0.001292  -0.099058   0.271565   0.054677  -0.153524   0.077889
     9  C   -0.001288  -0.004822  -0.101869   0.012302  -0.000786   0.012191
    10  C    0.001658  -0.064214  -0.027719  -0.001204   0.000153  -0.000691
    11  C   -0.047702   0.350239  -0.045806   0.002699   0.000015   0.000101
    12  C    0.291468  -0.072263  -0.009933   0.004218   0.000111  -0.000007
    13  C    0.113850   0.007710   0.000306   0.000131  -0.000052   0.000002
    14  C   -0.164959  -0.000452  -0.000032  -0.000011   0.000002  -0.000000
    15  C    0.114462   0.010032   0.000254  -0.000008  -0.000003   0.000000
    16  C    0.296205  -0.081096  -0.000555  -0.000060   0.000059  -0.000012
    17  H   -0.002192  -0.008933  -0.076496   0.464105  -0.079173   0.016170
    18  H   -0.000005  -0.000137   0.015747  -0.064746   0.450042  -0.072841
    19  H    0.000000   0.000011  -0.001539   0.014445  -0.072017   0.452345
    20  H    0.000002  -0.000169   0.017588  -0.002507   0.015102  -0.071996
    21  H    0.000577   0.003610  -0.009260  -0.000091   0.000074  -0.000404
    22  H    0.000001   0.000484   0.012839  -0.000552   0.000085   0.000312
    23  H   -0.000156   0.004183  -0.001875   0.000088  -0.000027   0.000005
    24  H    0.000420   0.001423   0.003147   0.000064  -0.000001   0.000013
    25  H    0.004298  -0.034474   0.006556   0.001876  -0.000056  -0.000027
    26  H   -0.007412  -0.015869   0.004836  -0.000280  -0.000002   0.000000
    27  H   -0.070876  -0.007809  -0.002783  -0.001790   0.001302  -0.000059
    28  H    0.015617  -0.000132  -0.000002   0.000007  -0.000002   0.000000
    29  H   -0.001557   0.000010   0.000000   0.000000   0.000000   0.000000
    30  H    0.015346  -0.000156  -0.000003   0.000000   0.000000  -0.000000
    31  H   -0.071064  -0.013337  -0.000632  -0.000034  -0.000000   0.000001
               7          8          9         10         11         12
     1  C   -0.000025   0.001292  -0.001288   0.001658  -0.047702   0.291468
     2  N    0.006037  -0.099058  -0.004822  -0.064214   0.350239  -0.072263
     3  C    0.057232   0.271565  -0.101869  -0.027719  -0.045806  -0.009933
     4  C   -0.128920   0.054677   0.012302  -0.001204   0.002699   0.004218
     5  C    0.085279  -0.153524  -0.000786   0.000153   0.000015   0.000111
     6  C    0.310701   0.077889   0.012191  -0.000691   0.000101  -0.000007
     7  C    5.046783   0.344566  -0.061681   0.010077   0.000423  -0.000033
     8  C    0.344566   5.341938   0.380196  -0.031842  -0.016779   0.000254
     9  C   -0.061681   0.380196   4.650794   0.394964  -0.054279  -0.000029
    10  C    0.010077  -0.031842   0.394964   4.739680   0.411910  -0.000739
    11  C    0.000423  -0.016779  -0.054279   0.411910   4.503952   0.003314
    12  C   -0.000033   0.000254  -0.000029  -0.000739   0.003314   5.127415
    13  C   -0.000001   0.000079  -0.000005   0.000032  -0.000126   0.270111
    14  C    0.000000  -0.000012   0.000001  -0.000007   0.000091   0.089551
    15  C   -0.000000  -0.000085   0.000050  -0.000092  -0.000829  -0.148578
    16  C    0.000008   0.001214  -0.000307  -0.001516   0.001016   0.062011
    17  H   -0.002680   0.019969  -0.000206   0.000068  -0.000098  -0.000937
    18  H    0.014307  -0.001905   0.000021  -0.000001   0.000003   0.000005
    19  H   -0.069718   0.015844  -0.000303   0.000007  -0.000001   0.000000
    20  H    0.454506  -0.070966  -0.019821   0.000723  -0.000054   0.000000
    21  H   -0.002077  -0.007760   0.363141  -0.007351  -0.006102   0.000044
    22  H   -0.010973  -0.010923   0.361003  -0.020477   0.006002   0.000000
    23  H    0.000331  -0.000129  -0.010563   0.359773  -0.013550   0.000016
    24  H   -0.000587   0.002529  -0.009276   0.349722  -0.011179   0.000025
    25  H   -0.000364  -0.003030  -0.004993  -0.029738   0.384054   0.000432
    26  H    0.000044   0.001789   0.004882  -0.018589   0.385972  -0.000405
    27  H    0.000024  -0.000038  -0.000019   0.000015   0.000054   0.458141
    28  H   -0.000000   0.000000   0.000000  -0.000000   0.000004  -0.064443
    29  H    0.000000   0.000000   0.000000   0.000000   0.000000   0.014276
    30  H    0.000000   0.000002  -0.000002   0.000009  -0.000016  -0.002258
    31  H   -0.000003  -0.000148  -0.000409  -0.003374   0.007126   0.017533
              13         14         15         16         17         18
     1  C    0.113850  -0.164959   0.114462   0.296205  -0.002192  -0.000005
     2  N    0.007710  -0.000452   0.010032  -0.081096  -0.008933  -0.000137
     3  C    0.000306  -0.000032   0.000254  -0.000555  -0.076496   0.015747
     4  C    0.000131  -0.000011  -0.000008  -0.000060   0.464105  -0.064746
     5  C   -0.000052   0.000002  -0.000003   0.000059  -0.079173   0.450042
     6  C    0.000002  -0.000000   0.000000  -0.000012   0.016170  -0.072841
     7  C   -0.000001   0.000000  -0.000000   0.000008  -0.002680   0.014307
     8  C    0.000079  -0.000012  -0.000085   0.001214   0.019969  -0.001905
     9  C   -0.000005   0.000001   0.000050  -0.000307  -0.000206   0.000021
    10  C    0.000032  -0.000007  -0.000092  -0.001516   0.000068  -0.000001
    11  C   -0.000126   0.000091  -0.000829   0.001016  -0.000098   0.000003
    12  C    0.270111   0.089551  -0.148578   0.062011  -0.000937   0.000005
    13  C    5.061584   0.280663   0.096509  -0.147127   0.001317  -0.000002
    14  C    0.280663   5.097567   0.280413   0.087619  -0.000057   0.000000
    15  C    0.096509   0.280413   5.076350   0.257381   0.000015   0.000000
    16  C   -0.147127   0.087619   0.257381   5.145349  -0.000110   0.000000
    17  H    0.001317  -0.000057   0.000015  -0.000110   0.704907  -0.014427
    18  H   -0.000002   0.000000   0.000000   0.000000  -0.014427   0.679581
    19  H    0.000000   0.000000  -0.000000   0.000000  -0.000267  -0.012421
    20  H    0.000000  -0.000000  -0.000000   0.000001   0.000024  -0.000288
    21  H   -0.000004  -0.000000   0.000065   0.000599   0.000001   0.000000
    22  H    0.000000   0.000000  -0.000000  -0.000018   0.000005  -0.000000
    23  H   -0.000000  -0.000000   0.000006   0.000026  -0.000001   0.000000
    24  H   -0.000003   0.000002   0.000043  -0.001569  -0.000003   0.000000
    25  H   -0.000031   0.000001   0.000047   0.000442  -0.000142   0.000002
    26  H    0.000015  -0.000112   0.000701   0.003555   0.000002  -0.000000
    27  H   -0.072539   0.015859  -0.002847   0.016806  -0.003155   0.000038
    28  H    0.450411  -0.072374   0.014399  -0.002246   0.000045  -0.000000
    29  H   -0.068950   0.452279  -0.069625   0.014597   0.000000  -0.000000
    30  H    0.014392  -0.072035   0.450002  -0.065018   0.000000  -0.000000
    31  H   -0.002864   0.015918  -0.074991   0.454757  -0.000015   0.000000
              19         20         21         22         23         24
     1  C    0.000000   0.000002   0.000577   0.000001  -0.000156   0.000420
     2  N    0.000011  -0.000169   0.003610   0.000484   0.004183   0.001423
     3  C   -0.001539   0.017588  -0.009260   0.012839  -0.001875   0.003147
     4  C    0.014445  -0.002507  -0.000091  -0.000552   0.000088   0.000064
     5  C   -0.072017   0.015102   0.000074   0.000085  -0.000027  -0.000001
     6  C    0.452345  -0.071996  -0.000404   0.000312   0.000005   0.000013
     7  C   -0.069718   0.454506  -0.002077  -0.010973   0.000331  -0.000587
     8  C    0.015844  -0.070966  -0.007760  -0.010923  -0.000129   0.002529
     9  C   -0.000303  -0.019821   0.363141   0.361003  -0.010563  -0.009276
    10  C    0.000007   0.000723  -0.007351  -0.020477   0.359773   0.349722
    11  C   -0.000001  -0.000054  -0.006102   0.006002  -0.013550  -0.011179
    12  C    0.000000   0.000000   0.000044   0.000000   0.000016   0.000025
    13  C    0.000000   0.000000  -0.000004   0.000000  -0.000000  -0.000003
    14  C    0.000000  -0.000000  -0.000000   0.000000  -0.000000   0.000002
    15  C   -0.000000  -0.000000   0.000065  -0.000000   0.000006   0.000043
    16  C    0.000000   0.000001   0.000599  -0.000018   0.000026  -0.001569
    17  H   -0.000267   0.000024   0.000001   0.000005  -0.000001  -0.000003
    18  H   -0.012421  -0.000288   0.000000  -0.000000   0.000000   0.000000
    19  H    0.679991  -0.012480   0.000009  -0.000004  -0.000000  -0.000000
    20  H   -0.012480   0.692897   0.000605   0.007148  -0.000115  -0.000010
    21  H    0.000009   0.000605   0.647483  -0.023347   0.007011  -0.016478
    22  H   -0.000004   0.007148  -0.023347   0.669885  -0.017386   0.003666
    23  H   -0.000000  -0.000115   0.007011  -0.017386   0.677248  -0.027782
    24  H   -0.000000  -0.000010  -0.016478   0.003666  -0.027782   0.688578
    25  H   -0.000000  -0.000007  -0.000200   0.000239  -0.012804   0.007883
    26  H    0.000000  -0.000002   0.000253  -0.000330   0.004297  -0.017292
    27  H    0.000000   0.000000  -0.000001   0.000000  -0.000001  -0.000002
    28  H   -0.000000  -0.000000   0.000000   0.000000   0.000000   0.000000
    29  H   -0.000000   0.000000  -0.000000  -0.000000  -0.000000  -0.000000
    30  H    0.000000   0.000000  -0.000001  -0.000000  -0.000000  -0.000007
    31  H    0.000000  -0.000001   0.000292   0.000030   0.000030   0.003537
              25         26         27         28         29         30
     1  C    0.004298  -0.007412  -0.070876   0.015617  -0.001557   0.015346
     2  N   -0.034474  -0.015869  -0.007809  -0.000132   0.000010  -0.000156
     3  C    0.006556   0.004836  -0.002783  -0.000002   0.000000  -0.000003
     4  C    0.001876  -0.000280  -0.001790   0.000007   0.000000   0.000000
     5  C   -0.000056  -0.000002   0.001302  -0.000002   0.000000   0.000000
     6  C   -0.000027   0.000000  -0.000059   0.000000   0.000000  -0.000000
     7  C   -0.000364   0.000044   0.000024  -0.000000   0.000000   0.000000
     8  C   -0.003030   0.001789  -0.000038   0.000000   0.000000   0.000002
     9  C   -0.004993   0.004882  -0.000019   0.000000   0.000000  -0.000002
    10  C   -0.029738  -0.018589   0.000015  -0.000000   0.000000   0.000009
    11  C    0.384054   0.385972   0.000054   0.000004   0.000000  -0.000016
    12  C    0.000432  -0.000405   0.458141  -0.064443   0.014276  -0.002258
    13  C   -0.000031   0.000015  -0.072539   0.450411  -0.068950   0.014392
    14  C    0.000001  -0.000112   0.015859  -0.072374   0.452279  -0.072035
    15  C    0.000047   0.000701  -0.002847   0.014399  -0.069625   0.450002
    16  C    0.000442   0.003555   0.016806  -0.002246   0.014597  -0.065018
    17  H   -0.000142   0.000002  -0.003155   0.000045   0.000000   0.000000
    18  H    0.000002  -0.000000   0.000038  -0.000000  -0.000000  -0.000000
    19  H   -0.000000   0.000000   0.000000  -0.000000  -0.000000   0.000000
    20  H   -0.000007  -0.000002   0.000000  -0.000000   0.000000   0.000000
    21  H   -0.000200   0.000253  -0.000001   0.000000  -0.000000  -0.000001
    22  H    0.000239  -0.000330   0.000000   0.000000  -0.000000  -0.000000
    23  H   -0.012804   0.004297  -0.000001   0.000000  -0.000000  -0.000000
    24  H    0.007883  -0.017292  -0.000002   0.000000  -0.000000  -0.000007
    25  H    0.671469  -0.025733  -0.000093   0.000000  -0.000000  -0.000002
    26  H   -0.025733   0.640188  -0.000007   0.000001  -0.000001   0.000039
    27  H   -0.000093  -0.000007   0.692920  -0.014362  -0.000249   0.000028
    28  H    0.000000   0.000001  -0.014362   0.675781  -0.012302  -0.000271
    29  H   -0.000000  -0.000001  -0.000249  -0.012302   0.675259  -0.012370
    30  H   -0.000002   0.000039   0.000028  -0.000271  -0.012370   0.676840
    31  H    0.000340  -0.002088  -0.000176   0.000023  -0.000247  -0.013836
              31
     1  C   -0.071064
     2  N   -0.013337
     3  C   -0.000632
     4  C   -0.000034
     5  C   -0.000000
     6  C    0.000001
     7  C   -0.000003
     8  C   -0.000148
     9  C   -0.000409
    10  C   -0.003374
    11  C    0.007126
    12  C    0.017533
    13  C   -0.002864
    14  C    0.015918
    15  C   -0.074991
    16  C    0.454757
    17  H   -0.000015
    18  H    0.000000
    19  H    0.000000
    20  H   -0.000001
    21  H    0.000292
    22  H    0.000030
    23  H    0.000030
    24  H    0.003537
    25  H    0.000340
    26  H   -0.002088
    27  H   -0.000176
    28  H    0.000023
    29  H   -0.000247
    30  H   -0.013836
    31  H    0.699822
 Mulliken charges:
               1
     1  C    0.180444
     2  N   -0.396416
     3  C    0.179121
     4  C   -0.048368
     5  C   -0.002539
     6  C   -0.000917
     7  C   -0.053255
     8  C   -0.117603
     9  C    0.091114
    10  C   -0.061237
    11  C    0.139545
    12  C   -0.039301
    13  C   -0.005407
    14  C   -0.009914
    15  C   -0.003671
    16  C   -0.042010
    17  H   -0.017735
    18  H    0.007029
    19  H    0.006098
    20  H   -0.010181
    21  H    0.049310
    22  H    0.022310
    23  H    0.031374
    24  H    0.023138
    25  H    0.034053
    26  H    0.041550
    27  H   -0.008384
    28  H    0.009846
    29  H    0.008879
    30  H    0.009318
    31  H   -0.016191
 Sum of Mulliken charges =  -0.00000
 Mulliken charges with hydrogens summed into heavy atoms:
               1
     1  C    0.180444
     2  N   -0.396416
     3  C    0.179121
     4  C   -0.066103
     5  C    0.004490
     6  C    0.005181
     7  C   -0.063437
     8  C   -0.117603
     9  C    0.162734
    10  C   -0.006724
    11  C    0.215148
    12  C   -0.047685
    13  C    0.004439
    14  C   -0.001035
    15  C    0.005647
    16  C   -0.058201
 Electronic spatial extent (au):  <R**2>=           3619.0481
 Charge=             -0.0000 electrons
 Dipole moment (field-independent basis, Debye):
    X=              0.0194    Y=              0.9975    Z=             -0.0342  Tot=              0.9983
 Quadrupole moment (field-independent basis, Debye-Ang):
   XX=            -89.6984   YY=            -85.6157   ZZ=            -96.2541
   XY=              1.0567   XZ=             -0.1124   YZ=             -2.4286
 Traceless Quadrupole moment (field-independent basis, Debye-Ang):
   XX=              0.8244   YY=              4.9070   ZZ=             -5.7313
   XY=              1.0567   XZ=             -0.1124   YZ=             -2.4286
 Octapole moment (field-independent basis, Debye-Ang**2):
  XXX=             -4.1537  YYY=             -4.1965  ZZZ=              4.2088  XYY=              0.0587
  XXY=             -5.6541  XXZ=            -23.3274  XZZ=              0.8746  YZZ=              7.9845
  YYZ=              6.7106  XYZ=              3.9087
 Hexadecapole moment (field-independent basis, Debye-Ang**3):
 XXXX=          -3173.9350 YYYY=          -1276.1871 ZZZZ=           -379.9633 XXXY=             17.3341
 XXXZ=             13.2852 YYYX=             -6.9502 YYYZ=            -17.9625 ZZZX=              0.8765
 ZZZY=             -0.5909 XXYY=           -715.7305 XXZZ=           -630.6175 YYZZ=           -282.0576
 XXYZ=             -8.7824 YYXZ=             -0.4135 ZZXY=              2.2597
 N-N= 1.033727280816D+03 E-N=-3.536260078139D+03  KE= 6.278771110092D+02
   1 Symmetry operations used in ECPInt.
 ECPInt:  NShTT=   10011 NPrTT=   36031 LenC2=    9561 LenP2D=   25151.
 LDataN:  DoStor=T MaxTD1= 5 Len=  102
 Calling FoFJK, ICntrl=      2127 FMM=F ISym2X=0 I1Cent= 0 IOpClX= 0 NMat=1 NMatS=1 NMatT=0.
 ***** Axes restored to original set *****
 -------------------------------------------------------------------
 Center     Atomic                   Forces (Hartrees/Bohr)
 Number     Number              X              Y              Z
 -------------------------------------------------------------------
      1        6          -0.024596320    0.000476034    0.002852688
      2        7           0.008842643   -0.002589683   -0.001067870
      3        6           0.016173631   -0.009318416    0.005845348
      4        6           0.006002775   -0.007478213    0.003901838
      5        6          -0.002510001    0.002933077   -0.003147007
      6        6          -0.004073926    0.001735008   -0.002551332
      7        6           0.001132767    0.001796151    0.002662251
      8        6           0.005996413   -0.008304882    0.003335670
      9        6           0.001782498   -0.001913741    0.004346564
     10        6          -0.000781948   -0.004739511   -0.001672807
     11        6          -0.002823942    0.015693717   -0.010987070
     12        6          -0.008334102   -0.003097601    0.003520326
     13        6           0.003106476    0.000376785   -0.003069447
     14        6           0.005846234    0.001453238   -0.001995610
     15        6           0.003485085   -0.000852686    0.000693281
     16        6          -0.007551807    0.000809054    0.003312883
     17        1           0.007739566    0.006010362    0.004965077
     18        1          -0.000354142    0.010144929    0.001423838
     19        1          -0.008658820    0.004763013   -0.003401396
     20        1          -0.009046534   -0.006289313   -0.004999366
     21        1           0.004245856   -0.000184442   -0.002700983
     22        1          -0.001262213   -0.001808833    0.000087644
     23        1          -0.001434756    0.000898074    0.002638170
     24        1           0.000975827   -0.000915907   -0.003039534
     25        1          -0.004517146    0.000436423    0.003860374
     26        1           0.001989916   -0.000197479   -0.001424873
     27        1          -0.004755760    0.008354683    0.005145184
     28        1           0.004230352    0.009232063    0.001779535
     29        1           0.009702877    0.001318299   -0.003369469
     30        1           0.004492817   -0.008111640   -0.004762209
     31        1          -0.005044315   -0.010628562   -0.002181700
 -------------------------------------------------------------------
 Cartesian Forces:  Max     0.024596320 RMS     0.005852575

 GradGradGradGradGradGradGradGradGradGradGradGradGradGradGradGradGradGrad
 Berny optimization.
 FormGI is forming the generalized inverse of G from B-inverse, IUseBI=4.
 Internal  Forces:  Max     0.018942102 RMS     0.004721222
 Search for a local minimum.
 Step number   1 out of a maximum of  186
 All quantities printed in internal units (Hartrees-Bohrs-Radians)
 Mixed Optimization -- RFO/linear search
 Second derivative matrix not updated -- first step.
 ITU=  0
     Eigenvalues ---    0.00349   0.00935   0.01178   0.01192   0.01533
     Eigenvalues ---    0.01856   0.01892   0.01914   0.02181   0.02263
     Eigenvalues ---    0.02272   0.02284   0.02301   0.02321   0.02333
     Eigenvalues ---    0.02337   0.02337   0.02348   0.02353   0.02367
     Eigenvalues ---    0.02372   0.02375   0.02903   0.03579   0.03857
     Eigenvalues ---    0.04829   0.05548   0.05643   0.08466   0.08610
     Eigenvalues ---    0.09667   0.09761   0.11040   0.12498   0.15988
     Eigenvalues ---    0.15991   0.15996   0.15999   0.16000   0.16000
     Eigenvalues ---    0.16000   0.16000   0.16000   0.18929   0.21959
     Eigenvalues ---    0.22000   0.22000   0.22001   0.22591   0.23282
     Eigenvalues ---    0.23467   0.23696   0.24585   0.24999   0.27273
     Eigenvalues ---    0.27970   0.31013   0.33427   0.33891   0.33900
     Eigenvalues ---    0.34000   0.34010   0.34198   0.34240   0.36241
     Eigenvalues ---    0.36242   0.36248   0.36253   0.36259   0.36400
     Eigenvalues ---    0.36498   0.36709   0.36726   0.38577   0.39742
     Eigenvalues ---    0.41175   0.43033   0.43473   0.43722   0.46532
     Eigenvalues ---    0.47291   0.47811   0.47912   0.48737   0.49073
     Eigenvalues ---    0.49427   0.49687
 RFO step:  Lambda=-1.06906974D-02 EMin= 3.48682396D-03
 Linear search not attempted -- first point.
 Iteration  1 RMS(Cart)=  0.04417980 RMS(Int)=  0.00055580
 Iteration  2 RMS(Cart)=  0.00083233 RMS(Int)=  0.00011774
 Iteration  3 RMS(Cart)=  0.00000027 RMS(Int)=  0.00011773
 Variable       Old X    -DE/DX   Delta X   Delta X   Delta X     New X
                                 (Linear)    (Quad)   (Total)
    R1        2.71906  -0.01894   0.00000  -0.04641  -0.04641   2.67264
    R2        2.63573   0.00702   0.00000   0.01417   0.01416   2.64989
    R3        2.63721   0.00828   0.00000   0.01686   0.01686   2.65406
    R4        2.70945  -0.01560   0.00000  -0.04018  -0.04026   2.66920
    R5        2.79177  -0.01131   0.00000  -0.03321  -0.03319   2.75858
    R6        2.63433   0.00637   0.00000   0.01238   0.01237   2.64670
    R7        2.64801   0.00569   0.00000   0.01113   0.01092   2.65893
    R8        2.60057   0.01650   0.00000   0.03287   0.03287   2.63344
    R9        2.02961   0.01098   0.00000   0.02905   0.02905   2.05866
   R10        2.60983   0.01238   0.00000   0.02614   0.02616   2.63599
   R11        2.03706   0.01023   0.00000   0.02742   0.02742   2.06448
   R12        2.61046   0.01183   0.00000   0.02465   0.02466   2.63512
   R13        2.03679   0.01045   0.00000   0.02799   0.02799   2.06478
   R14        2.61438   0.01316   0.00000   0.02614   0.02613   2.64051
   R15        2.03460   0.01209   0.00000   0.03227   0.03227   2.06687
   R16        2.83961   0.00285   0.00000   0.01244   0.01233   2.85194
   R17        2.92024  -0.00526   0.00000  -0.01590  -0.01577   2.90447
   R18        2.07314   0.00449   0.00000   0.01279   0.01279   2.08592
   R19        2.07330   0.00187   0.00000   0.00534   0.00534   2.07864
   R20        2.90431   0.00097   0.00000   0.00186   0.00207   2.90638
   R21        2.07499   0.00215   0.00000   0.00616   0.00616   2.08116
   R22        2.07514   0.00234   0.00000   0.00669   0.00669   2.08183
   R23        2.06997   0.00546   0.00000   0.01547   0.01547   2.08544
   R24        2.06927   0.00139   0.00000   0.00395   0.00395   2.07322
   R25        2.60206   0.01690   0.00000   0.03332   0.03332   2.63538
   R26        2.02987   0.01090   0.00000   0.02884   0.02884   2.05871
   R27        2.61026   0.01274   0.00000   0.02608   0.02608   2.63635
   R28        2.03704   0.01029   0.00000   0.02757   0.02757   2.06461
   R29        2.61007   0.01323   0.00000   0.02704   0.02705   2.63712
   R30        2.03687   0.01036   0.00000   0.02775   0.02775   2.06462
   R31        2.60160   0.01594   0.00000   0.03139   0.03139   2.63299
   R32        2.03695   0.01041   0.00000   0.02788   0.02788   2.06484
   R33        2.03310   0.01194   0.00000   0.03179   0.03179   2.06489
    A1        2.12256   0.00030   0.00000   0.00226   0.00221   2.12477
    A2        2.09810  -0.00232   0.00000  -0.00780  -0.00785   2.09026
    A3        2.06248   0.00203   0.00000   0.00571   0.00562   2.06810
    A4        2.15751  -0.00296   0.00000  -0.01260  -0.01259   2.14491
    A5        2.06987   0.00250   0.00000   0.01362   0.01324   2.08311
    A6        2.00835   0.00037   0.00000  -0.01099  -0.01118   1.99716
    A7        2.14991  -0.00192   0.00000   0.00099   0.00115   2.15105
    A8        2.05158  -0.00019   0.00000  -0.00928  -0.00943   2.04215
    A9        2.08115   0.00210   0.00000   0.00833   0.00832   2.08947
   A10        2.10367  -0.00033   0.00000  -0.00361  -0.00372   2.09995
   A11        2.08577   0.00056   0.00000   0.00432   0.00432   2.09009
   A12        2.09311  -0.00021   0.00000  -0.00017  -0.00018   2.09293
   A13        2.09624  -0.00016   0.00000   0.00200   0.00193   2.09817
   A14        2.09374  -0.00053   0.00000  -0.00463  -0.00465   2.08909
   A15        2.09319   0.00069   0.00000   0.00255   0.00253   2.09572
   A16        2.09456  -0.00289   0.00000  -0.00874  -0.00876   2.08579
   A17        2.09447   0.00163   0.00000   0.00542   0.00543   2.09990
   A18        2.09416   0.00127   0.00000   0.00333   0.00334   2.09749
   A19        2.10614   0.00146   0.00000   0.00618   0.00611   2.11224
   A20        2.09600  -0.00079   0.00000  -0.00348  -0.00348   2.09251
   A21        2.08099  -0.00068   0.00000  -0.00283  -0.00283   2.07817
   A22        2.08461  -0.00018   0.00000  -0.00409  -0.00413   2.08048
   A23        2.07270  -0.00073   0.00000  -0.00361  -0.00376   2.06894
   A24        2.12421   0.00091   0.00000   0.00684   0.00693   2.13114
   A25        1.99596  -0.00151   0.00000  -0.00550  -0.00572   1.99024
   A26        1.87775   0.00067   0.00000  -0.00094  -0.00084   1.87691
   A27        1.90736   0.00135   0.00000   0.01149   0.01143   1.91879
   A28        1.91176  -0.00051   0.00000  -0.00883  -0.00889   1.90287
   A29        1.92657  -0.00039   0.00000  -0.00490  -0.00474   1.92183
   A30        1.83713   0.00059   0.00000   0.01004   0.00998   1.84711
   A31        1.99296  -0.00411   0.00000  -0.02630  -0.02630   1.96666
   A32        1.90977   0.00222   0.00000   0.00738   0.00714   1.91691
   A33        1.90869  -0.00049   0.00000  -0.00522  -0.00517   1.90352
   A34        1.90775   0.00016   0.00000  -0.00550  -0.00551   1.90224
   A35        1.91083   0.00232   0.00000   0.01524   0.01496   1.92579
   A36        1.82645   0.00031   0.00000   0.01834   0.01833   1.84478
   A37        1.97884   0.00559   0.00000   0.01736   0.01702   1.99586
   A38        1.85877  -0.00054   0.00000   0.01518   0.01520   1.87397
   A39        1.90113  -0.00270   0.00000  -0.02288  -0.02274   1.87839
   A40        1.92503  -0.00124   0.00000  -0.00462  -0.00466   1.92037
   A41        1.94972  -0.00310   0.00000  -0.01680  -0.01687   1.93284
   A42        1.84330   0.00184   0.00000   0.01285   0.01289   1.85619
   A43        2.10846  -0.00081   0.00000  -0.00458  -0.00462   2.10384
   A44        2.08250   0.00084   0.00000   0.00495   0.00496   2.08745
   A45        2.09168  -0.00002   0.00000  -0.00011  -0.00011   2.09158
   A46        2.09772   0.00132   0.00000   0.00706   0.00700   2.10472
   A47        2.09304  -0.00132   0.00000  -0.00742  -0.00745   2.08558
   A48        2.09242   0.00000   0.00000   0.00031   0.00027   2.09270
   A49        2.09161  -0.00306   0.00000  -0.01070  -0.01070   2.08090
   A50        2.09579   0.00156   0.00000   0.00553   0.00553   2.10132
   A51        2.09579   0.00150   0.00000   0.00517   0.00517   2.10096
   A52        2.09638   0.00074   0.00000   0.00453   0.00449   2.10086
   A53        2.09323   0.00022   0.00000   0.00116   0.00113   2.09436
   A54        2.09358  -0.00096   0.00000  -0.00574  -0.00577   2.08781
   A55        2.10972  -0.00021   0.00000  -0.00201  -0.00205   2.10767
   A56        2.07595   0.00080   0.00000   0.00516   0.00516   2.08111
   A57        2.09727  -0.00059   0.00000  -0.00296  -0.00296   2.09431
    D1        1.07289   0.00002   0.00000   0.01193   0.01199   1.08489
    D2       -2.41132  -0.00016   0.00000  -0.02479  -0.02492  -2.43623
    D3       -2.05934  -0.00061   0.00000  -0.00907  -0.00894  -2.06828
    D4        0.73963  -0.00078   0.00000  -0.04579  -0.04585   0.69378
    D5       -3.12928  -0.00011   0.00000  -0.00532  -0.00545  -3.13473
    D6        0.04783  -0.00039   0.00000  -0.01378  -0.01389   0.03394
    D7        0.00314   0.00048   0.00000   0.01519   0.01516   0.01830
    D8       -3.10294   0.00020   0.00000   0.00674   0.00672  -3.09622
    D9        3.12821   0.00081   0.00000   0.02552   0.02542  -3.12956
   D10        0.01047   0.00050   0.00000   0.01655   0.01646   0.02692
   D11       -0.00434   0.00022   0.00000   0.00525   0.00518   0.00083
   D12       -3.12209  -0.00009   0.00000  -0.00372  -0.00378  -3.12587
   D13       -1.07718   0.00052   0.00000  -0.03694  -0.03651  -1.11369
   D14        2.10015   0.00072   0.00000  -0.03843  -0.03788   2.06227
   D15        2.39612   0.00028   0.00000  -0.00582  -0.00566   2.39046
   D16       -0.70974   0.00048   0.00000  -0.00730  -0.00703  -0.71677
   D17       -1.92337   0.00364   0.00000   0.08287   0.08335  -1.84002
   D18        2.23961   0.00213   0.00000   0.06757   0.06763   2.30725
   D19        0.25914   0.00154   0.00000   0.05586   0.05607   0.31522
   D20        0.90422   0.00278   0.00000   0.04839   0.04866   0.95288
   D21       -1.21598   0.00128   0.00000   0.03309   0.03295  -1.18304
   D22        3.08673   0.00069   0.00000   0.02138   0.02138   3.10812
   D23       -3.10496  -0.00047   0.00000  -0.01526  -0.01519  -3.12014
   D24       -0.00182   0.00016   0.00000   0.00069   0.00079  -0.00103
   D25        0.00032  -0.00073   0.00000  -0.01410  -0.01414  -0.01381
   D26        3.10346  -0.00009   0.00000   0.00185   0.00184   3.10531
   D27        3.10936  -0.00035   0.00000  -0.00663  -0.00663   3.10272
   D28       -0.09329  -0.00035   0.00000  -0.02203  -0.02180  -0.11509
   D29        0.00204  -0.00006   0.00000  -0.00791  -0.00781  -0.00577
   D30        3.08258  -0.00007   0.00000  -0.02331  -0.02298   3.05960
   D31       -0.00082   0.00092   0.00000   0.02373   0.02376   0.02294
   D32        3.13536   0.00034   0.00000   0.00752   0.00755  -3.14028
   D33       -3.10380   0.00026   0.00000   0.00762   0.00766  -3.09614
   D34        0.03238  -0.00031   0.00000  -0.00860  -0.00855   0.02383
   D35       -0.00107  -0.00031   0.00000  -0.01116  -0.01116  -0.01222
   D36       -3.13930  -0.00056   0.00000  -0.01485  -0.01488   3.12901
   D37       -3.13725   0.00027   0.00000   0.00508   0.00514  -3.13211
   D38        0.00771   0.00002   0.00000   0.00139   0.00142   0.00912
   D39        0.00348  -0.00049   0.00000  -0.01107  -0.01110  -0.00762
   D40       -3.12608  -0.00016   0.00000   0.00185   0.00181  -3.12426
   D41       -3.14147  -0.00024   0.00000  -0.00738  -0.00738   3.13434
   D42        0.01216   0.00009   0.00000   0.00554   0.00553   0.01769
   D43       -0.00395   0.00067   0.00000   0.02046   0.02049   0.01654
   D44       -3.08263   0.00074   0.00000   0.03672   0.03663  -3.04600
   D45        3.12571   0.00034   0.00000   0.00764   0.00768   3.13339
   D46        0.04703   0.00041   0.00000   0.02391   0.02382   0.07085
   D47        0.65742   0.00021   0.00000   0.03202   0.03187   0.68929
   D48       -1.47032   0.00135   0.00000   0.04760   0.04748  -1.42283
   D49        2.82683  -0.00036   0.00000   0.03057   0.03038   2.85721
   D50       -2.54668   0.00016   0.00000   0.01585   0.01582  -2.53086
   D51        1.60877   0.00130   0.00000   0.03142   0.03143   1.64021
   D52       -0.37726  -0.00041   0.00000   0.01440   0.01433  -0.36294
   D53       -0.41902   0.00025   0.00000  -0.00114  -0.00134  -0.42035
   D54        1.72540  -0.00077   0.00000  -0.02136  -0.02149   1.70390
   D55       -2.56663   0.00053   0.00000   0.00165   0.00146  -2.56517
   D56        1.68999  -0.00028   0.00000  -0.01263  -0.01272   1.67727
   D57       -2.44878  -0.00131   0.00000  -0.03286  -0.03288  -2.48166
   D58       -0.45762  -0.00000   0.00000  -0.00984  -0.00992  -0.46755
   D59       -2.57816  -0.00009   0.00000  -0.00841  -0.00849  -2.58665
   D60       -0.43375  -0.00112   0.00000  -0.02864  -0.02864  -0.46239
   D61        1.55741   0.00019   0.00000  -0.00562  -0.00569   1.55173
   D62       -0.31279  -0.00057   0.00000  -0.03182  -0.03176  -0.34455
   D63        1.76985   0.00160   0.00000  -0.00409  -0.00396   1.76589
   D64       -2.46892   0.00118   0.00000  -0.00149  -0.00128  -2.47020
   D65       -2.45830  -0.00067   0.00000  -0.01863  -0.01880  -2.47710
   D66       -0.37567   0.00150   0.00000   0.00909   0.00900  -0.36666
   D67        1.66876   0.00108   0.00000   0.01169   0.01168   1.68044
   D68        1.83366  -0.00238   0.00000  -0.04575  -0.04590   1.78776
   D69       -2.36689  -0.00021   0.00000  -0.01802  -0.01810  -2.38499
   D70       -0.32246  -0.00063   0.00000  -0.01542  -0.01542  -0.33789
   D71        0.00038  -0.00073   0.00000  -0.02201  -0.02202  -0.02164
   D72       -3.13767  -0.00016   0.00000  -0.00496  -0.00499   3.14053
   D73        3.10628  -0.00043   0.00000  -0.01340  -0.01346   3.09282
   D74       -0.03177   0.00014   0.00000   0.00364   0.00357  -0.02820
   D75       -0.00281   0.00029   0.00000   0.00820   0.00822   0.00541
   D76        3.13997   0.00037   0.00000   0.01109   0.01110  -3.13212
   D77        3.13525  -0.00028   0.00000  -0.00885  -0.00890   3.12635
   D78       -0.00517  -0.00020   0.00000  -0.00596  -0.00601  -0.01118
   D79        0.00162   0.00040   0.00000   0.01212   0.01213   0.01374
   D80        3.13936  -0.00011   0.00000  -0.00291  -0.00296   3.13640
   D81       -3.14116   0.00032   0.00000   0.00923   0.00924  -3.13192
   D82       -0.00341  -0.00020   0.00000  -0.00580  -0.00585  -0.00926
   D83        0.00201  -0.00066   0.00000  -0.01890  -0.01893  -0.01692
   D84        3.11947  -0.00033   0.00000  -0.00971  -0.00979   3.10967
   D85       -3.13573  -0.00015   0.00000  -0.00388  -0.00392  -3.13965
   D86       -0.01828   0.00018   0.00000   0.00530   0.00522  -0.01305
         Item               Value     Threshold  Converged?
 Maximum Force            0.018942     0.000450     NO 
 RMS     Force            0.004721     0.000300     NO 
 Maximum Displacement     0.213255     0.001800     NO 
 RMS     Displacement     0.044349     0.001200     NO 
 Predicted change in Energy=-5.727583D-03
 GradGradGradGradGradGradGradGradGradGradGradGradGradGradGradGradGradGrad

                          Input orientation:                          
 ---------------------------------------------------------------------
 Center     Atomic      Atomic             Coordinates (Angstroms)
 Number     Number       Type             X           Y           Z
 ---------------------------------------------------------------------
      1          6           0        1.391185   -0.120292    0.304483
      2          7           0        0.070431   -0.310503    0.773181
      3          6           0       -1.032671    0.417513    0.274931
      4          6           0       -1.164089    1.804746    0.416073
      5          6           0       -2.291590    2.458379   -0.077393
      6          6           0       -3.311495    1.731820   -0.691936
      7          6           0       -3.187509    0.348975   -0.821736
      8          6           0       -2.053175   -0.319420   -0.353780
      9          6           0       -1.837645   -1.794613   -0.588256
     10          6           0       -1.130921   -2.515890    0.570453
     11          6           0       -0.281707   -1.565209    1.430953
     12          6           0        2.053409    1.107956    0.443046
     13          6           0        3.353148    1.270256   -0.035693
     14          6           0        4.026138    0.206610   -0.637382
     15          6           0        3.381242   -1.024654   -0.761982
     16          6           0        2.074569   -1.184859   -0.305616
     17          1           0       -0.390271    2.371306    0.932795
     18          1           0       -2.383043    3.540975    0.037166
     19          1           0       -4.201561    2.241254   -1.068902
     20          1           0       -3.975941   -0.224885   -1.317039
     21          1           0       -1.228830   -1.900595   -1.502882
     22          1           0       -2.797964   -2.283635   -0.808666
     23          1           0       -1.876286   -3.010964    1.212476
     24          1           0       -0.504758   -3.325099    0.162112
     25          1           0       -0.822403   -1.310447    2.358644
     26          1           0        0.651782   -2.051094    1.741031
     27          1           0        1.556044    1.933149    0.951505
     28          1           0        3.852632    2.234974    0.080463
     29          1           0        5.047547    0.334835   -1.003366
     30          1           0        3.894770   -1.864868   -1.235527
     31          1           0        1.564981   -2.142988   -0.433233
 ---------------------------------------------------------------------
                    Distance matrix (angstroms):
                    1          2          3          4          5
     1  C    0.000000
     2  N    1.414301   0.000000
     3  C    2.482979   1.412478   0.000000
     4  C    3.201194   2.475044   1.400574   0.000000
     5  C    4.512007   3.737556   2.423664   1.393558   0.000000
     6  C    5.151540   4.213677   2.802726   2.417510   1.394904
     7  C    4.738461   3.686848   2.418823   2.783104   2.409627
[...]
    18  H    0.011149  -0.002697   0.000035  -0.000004   0.000016  -0.000019
    19  H   -0.067989   0.015591  -0.000070   0.000013  -0.000005   0.000003
    20  H    0.451061  -0.079438  -0.008287   0.000441  -0.000004  -0.000006
    21  H    0.001951  -0.042981   0.399670  -0.031186   0.010708  -0.000052
    22  H    0.003642  -0.044861   0.418080  -0.026218  -0.006769   0.000025
    23  H   -0.000943   0.012023  -0.054000   0.428086  -0.037336  -0.000073
    24  H    0.001741  -0.003937  -0.030426   0.412789  -0.039387   0.001011
    25  H    0.000597  -0.003619  -0.008487  -0.049720   0.411927  -0.000704
    26  H    0.000059   0.000898   0.010208  -0.019899   0.413983   0.001528
    27  H    0.000199  -0.000902  -0.000042  -0.000130   0.000439   0.439662
    28  H   -0.000000   0.000021   0.000001  -0.000002   0.000020  -0.056054
    29  H   -0.000000   0.000000   0.000000   0.000000  -0.000003   0.011784
    30  H    0.000000  -0.000003  -0.000000  -0.000006   0.000038  -0.004133
    31  H    0.000003  -0.000024  -0.000099   0.000712   0.000713   0.007612
              13         14         15         16         17         18
     1  C   -0.014475  -0.080773  -0.016668   0.456362   0.002406   0.000099
     2  N    0.005385   0.001216   0.003409  -0.058367  -0.004588  -0.000155
     3  C   -0.001846  -0.000035   0.000923  -0.015133  -0.052929   0.013368
     4  C    0.000068   0.000351  -0.000203   0.007744   0.439636  -0.057138
     5  C    0.000171   0.000049  -0.000068   0.000172  -0.039252   0.441568
     6  C   -0.000003  -0.000001   0.000002   0.000025   0.007546  -0.058020
     7  C    0.000019   0.000001  -0.000005   0.000042  -0.001735   0.011149
     8  C   -0.000856   0.000029   0.000172  -0.002098   0.008628  -0.002697
     9  C   -0.000021  -0.000008   0.000017  -0.000503  -0.000060   0.000035
    10  C   -0.000329   0.000072   0.000063   0.003284  -0.000042  -0.000004
    11  C   -0.000091  -0.000056  -0.000345  -0.002344  -0.000163   0.000016
    12  C    0.413694   0.028074  -0.062259   0.010499  -0.009131  -0.000019
    13  C    4.933285   0.428769   0.002160  -0.053579   0.000832   0.000009
    14  C    0.428769   4.962638   0.447248   0.014518  -0.000502  -0.000001
    15  C    0.002160   0.447248   4.899146   0.441184   0.000630   0.000001
    16  C   -0.053579   0.014518   0.441184   5.092579  -0.000498   0.000001
    17  H    0.000832  -0.000502   0.000630  -0.000498   0.507670  -0.006849
    18  H    0.000009  -0.000001   0.000001   0.000001  -0.006849   0.551799
    19  H   -0.000000  -0.000000  -0.000000  -0.000000  -0.000112  -0.007193
    20  H   -0.000000   0.000000  -0.000000  -0.000000   0.000018  -0.000195
    21  H    0.000001   0.000000  -0.000000   0.000014   0.000005  -0.000000
    22  H   -0.000001   0.000000   0.000001  -0.000017   0.000019  -0.000000
    23  H    0.000012  -0.000001  -0.000005  -0.000222  -0.000001   0.000000
    24  H    0.000039  -0.000001  -0.000034  -0.000050   0.000012  -0.000000
    25  H    0.000214  -0.000046  -0.000358   0.000300   0.000053   0.000000
    26  H   -0.000136  -0.000236   0.000971  -0.007318  -0.000006  -0.000000
    27  H   -0.043224   0.008790  -0.002625   0.008970  -0.002499   0.000024
    28  H    0.442645  -0.058120   0.011064  -0.003786   0.000052   0.000000
    29  H   -0.056653   0.444295  -0.056022   0.011138  -0.000001  -0.000000
    30  H    0.011391  -0.057034   0.442535  -0.056945   0.000000   0.000000
    31  H   -0.002251   0.008066  -0.041615   0.434219  -0.000041  -0.000000
              19         20         21         22         23         24
     1  C   -0.000000   0.000051   0.000383  -0.000247   0.000050   0.001354
     2  N    0.000016  -0.000177   0.000717  -0.000429   0.006527   0.002821
     3  C   -0.004830   0.023255   0.007926  -0.013605   0.000752  -0.000706
     4  C    0.014171  -0.004762  -0.000931  -0.000840   0.000121  -0.000482
     5  C   -0.063183   0.012564   0.000315   0.000468  -0.000007   0.000075
     6  C    0.456150  -0.060615  -0.000082  -0.000249   0.000006  -0.000096
     7  C   -0.067989   0.451061   0.001951   0.003642  -0.000943   0.001741
     8  C    0.015591  -0.079438  -0.042981  -0.044861   0.012023  -0.003937
     9  C   -0.000070  -0.008287   0.399670   0.418080  -0.054000  -0.030426
    10  C    0.000013   0.000441  -0.031186  -0.026218   0.428086   0.412789
    11  C   -0.000005  -0.000004   0.010708  -0.006769  -0.037336  -0.039387
    12  C    0.000003  -0.000006  -0.000052   0.000025  -0.000073   0.001011
    13  C   -0.000000  -0.000000   0.000001  -0.000001   0.000012   0.000039
    14  C   -0.000000   0.000000   0.000000   0.000000  -0.000001  -0.000001
    15  C   -0.000000  -0.000000  -0.000000   0.000001  -0.000005  -0.000034
    16  C   -0.000000  -0.000000   0.000014  -0.000017  -0.000222  -0.000050
    17  H   -0.000112   0.000018   0.000005   0.000019  -0.000001   0.000012
    18  H   -0.007193  -0.000195  -0.000000  -0.000000   0.000000  -0.000000
    19  H    0.554483  -0.007705  -0.000042  -0.000014  -0.000000  -0.000001
    20  H   -0.007705   0.565683   0.002645   0.000424  -0.000029  -0.000005
    21  H   -0.000042   0.002645   0.574674  -0.032577  -0.000972  -0.006474
    22  H   -0.000014   0.000424  -0.032577   0.595472  -0.007961   0.006121
    23  H   -0.000000  -0.000029  -0.000972  -0.007961   0.575819  -0.024695
    24  H   -0.000001  -0.000005  -0.006474   0.006121  -0.024695   0.579163
    25  H   -0.000001   0.000005   0.000722  -0.000464   0.001394   0.006886
    26  H    0.000000  -0.000001  -0.000352   0.000217  -0.005601  -0.005257
    27  H    0.000000  -0.000000  -0.000002   0.000004  -0.000000   0.000234
    28  H    0.000000  -0.000000  -0.000000  -0.000000  -0.000000  -0.000002
    29  H    0.000000   0.000000  -0.000000  -0.000000  -0.000000  -0.000000
    30  H    0.000000  -0.000000   0.000000  -0.000000   0.000000   0.000000
    31  H    0.000000  -0.000000   0.000001  -0.000002  -0.000002  -0.000008
              25         26         27         28         29         30
     1  C    0.008389  -0.006394  -0.049791   0.013694  -0.003622   0.013856
     2  N   -0.046046  -0.033504   0.000318  -0.000238   0.000012  -0.000181
     3  C   -0.002843   0.008614  -0.000008   0.000160   0.000003  -0.000002
     4  C    0.001629  -0.000852  -0.002315  -0.000131   0.000001   0.000005
     5  C    0.000066   0.000020   0.000753  -0.000019  -0.000000   0.000000
     6  C   -0.000233   0.000005  -0.000104  -0.000000   0.000000  -0.000000
     7  C    0.000597   0.000059   0.000199  -0.000000  -0.000000   0.000000
     8  C   -0.003619   0.000898  -0.000902   0.000021   0.000000  -0.000003
     9  C   -0.008487   0.010208  -0.000042   0.000001   0.000000  -0.000000
    10  C   -0.049720  -0.019899  -0.000130  -0.000002   0.000000  -0.000006
    11  C    0.411927   0.413983   0.000439   0.000020  -0.000003   0.000038
    12  C   -0.000704   0.001528   0.439662  -0.056054   0.011784  -0.004133
    13  C    0.000214  -0.000136  -0.043224   0.442645  -0.056653   0.011391
    14  C   -0.000046  -0.000236   0.008790  -0.058120   0.444295  -0.057034
    15  C   -0.000358   0.000971  -0.002625   0.011064  -0.056022   0.442535
    16  C    0.000300  -0.007318   0.008970  -0.003786   0.011138  -0.056945
    17  H    0.000053  -0.000006  -0.002499   0.000052  -0.000001   0.000000
    18  H    0.000000  -0.000000   0.000024   0.000000  -0.000000   0.000000
    19  H   -0.000001   0.000000   0.000000   0.000000   0.000000   0.000000
    20  H    0.000005  -0.000001  -0.000000  -0.000000   0.000000  -0.000000
    21  H    0.000722  -0.000352  -0.000002  -0.000000  -0.000000   0.000000
    22  H   -0.000464   0.000217   0.000004  -0.000000  -0.000000  -0.000000
    23  H    0.001394  -0.005601  -0.000000  -0.000000  -0.000000   0.000000
    24  H    0.006886  -0.005257   0.000234  -0.000002  -0.000000   0.000000
    25  H    0.621015  -0.038535   0.000017  -0.000001  -0.000000   0.000020
    26  H   -0.038535   0.541273  -0.000094   0.000006  -0.000001  -0.000010
    27  H    0.000017  -0.000094   0.499404  -0.006997  -0.000074   0.000020
    28  H   -0.000001   0.000006  -0.006997   0.543984  -0.006849  -0.000148
    29  H   -0.000000  -0.000001  -0.000074  -0.006849   0.543938  -0.006923
    30  H    0.000020  -0.000010   0.000020  -0.000148  -0.006923   0.545971
    31  H   -0.000352  -0.004158  -0.000140   0.000027  -0.000093  -0.007011
              31
     1  C   -0.049567
     2  N   -0.000837
     3  C   -0.000765
     4  C    0.000088
     5  C    0.000006
     6  C   -0.000001
     7  C    0.000003
     8  C   -0.000024
     9  C   -0.000099
    10  C    0.000712
    11  C    0.000713
    12  C    0.007612
    13  C   -0.002251
    14  C    0.008066
    15  C   -0.041615
    16  C    0.434219
    17  H   -0.000041
    18  H   -0.000000
    19  H    0.000000
    20  H   -0.000000
    21  H    0.000001
    22  H   -0.000002
    23  H   -0.000002
    24  H   -0.000008
    25  H   -0.000352
    26  H   -0.004158
    27  H   -0.000140
    28  H    0.000027
    29  H   -0.000093
    30  H   -0.007011
    31  H    0.516574
 Mulliken charges:
               1
     1  C    0.202191
     2  N    0.000739
     3  C    0.147355
     4  C   -0.292877
     5  C   -0.101225
     6  C   -0.148310
     7  C   -0.164183
     8  C   -0.032981
     9  C   -0.216900
    10  C   -0.152124
    11  C   -0.177666
    12  C   -0.305059
    13  C   -0.065227
    14  C   -0.147300
    15  C   -0.069321
    16  C   -0.280189
    17  H    0.150901
    18  H    0.114203
    19  H    0.110718
    20  H    0.105078
    21  H    0.115920
    22  H    0.109782
    23  H    0.107057
    24  H    0.099312
    25  H    0.098176
    26  H    0.144570
    27  H    0.150113
    28  H    0.120674
    29  H    0.119071
    30  H    0.118558
    31  H    0.138944
 Sum of Mulliken charges =  -0.00000
 Mulliken charges with hydrogens summed into heavy atoms:
               1
     1  C    0.202191
     2  N    0.000739
     3  C    0.147355
     4  C   -0.141976
     5  C    0.012978
     6  C   -0.037592
     7  C   -0.059106
     8  C   -0.032981
     9  C    0.008802
    10  C    0.054245
    11  C    0.065080
    12  C   -0.154946
    13  C    0.055447
    14  C   -0.028229
    15  C    0.049238
    16  C   -0.141245
 Electronic spatial extent (au):  <R**2>=           3687.1621
 Charge=             -0.0000 electrons
 Dipole moment (field-independent basis, Debye):
    X=             -0.3360    Y=              1.4159    Z=             -0.1089  Tot=              1.4593
 Quadrupole moment (field-independent basis, Debye-Ang):
   XX=            -89.1074   YY=            -88.7160   ZZ=            -95.8736
   XY=              2.8775   XZ=             -1.8100   YZ=              2.7655
 Traceless Quadrupole moment (field-independent basis, Debye-Ang):
   XX=              2.1250   YY=              2.5163   ZZ=             -4.6413
   XY=              2.8775   XZ=             -1.8100   YZ=              2.7655
 Octapole moment (field-independent basis, Debye-Ang**2):
  XXX=             -9.1169  YYY=              4.7514  ZZZ=             -2.9419  XYY=              8.2516
  XXY=             -2.7777  XXZ=              0.6945  XZZ=             -9.1050  YZZ=              6.4190
  YYZ=              2.0396  XYZ=            -11.6180
 Hexadecapole moment (field-independent basis, Debye-Ang**3):
 XXXX=          -3259.7861 YYYY=          -1266.8839 ZZZZ=           -332.0426 XXXY=             32.3667
 XXXZ=            -45.7296 YYYX=            -11.6824 YYYZ=             -4.4363 ZZZX=             -8.1284
 ZZZY=             18.2916 XXYY=           -787.9274 XXZZ=           -655.6052 YYZZ=           -276.3741
 XXYZ=             34.3842 YYXZ=             12.8469 ZZXY=             17.6580
 N-N= 1.031209882006D+03 E-N=-3.536469832573D+03  KE= 6.317643354940D+02
 Breneman (CHELPG) radii used.
 Read replacement radii for each type of atom:
 Atom Element Radius
    1     6    1.50
    2     7    1.70
    3     6    1.50
    4     6    1.50
    5     6    1.50
    6     6    1.50
    7     6    1.50
    8     6    1.50
    9     6    1.50
   10     6    1.50
   11     6    1.50
   12     6    1.50
   13     6    1.50
   14     6    1.50
   15     6    1.50
   16     6    1.50
   17     1    1.45
   18     1    1.45
   19     1    1.45
   20     1    1.45
   21     1    1.45
   22     1    1.45
   23     1    1.45
   24     1    1.45
   25     1    1.45
   26     1    1.45
   27     1    1.45
   28     1    1.45
   29     1    1.45
   30     1    1.45
   31     1    1.45
 Generate Potential Derived Charges using the Breneman model, NDens= 1.
 Grid spacing= 0.300 Box extension= 2.800
 NStep X,Y,Z=   52     44     31   Total possible points=       70928
 Number of Points to Fit=   18398

 **********************************************************************

            Electrostatic Properties Using The SCF Density.

 **********************************************************************

       Atomic Center    1 is at  -1.443084  0.183999  0.058018
       Atomic Center    2 is at  -0.117040  0.644351  0.176383
       Atomic Center    3 is at   0.987468 -0.215563  0.159417
       Atomic Center    4 is at   0.841720 -1.592980  0.413248
       Atomic Center    5 is at   1.938961 -2.443820  0.402187
       Atomic Center    6 is at   3.217438 -1.945666  0.153737
       Atomic Center    7 is at   3.369701 -0.582308 -0.073128
       Atomic Center    8 is at   2.283767  0.297127 -0.073675
       Atomic Center    9 is at   2.516034  1.776524 -0.290452
       Atomic Center   10 is at   1.228354  2.520817 -0.617689
       Atomic Center   11 is at   0.121644  2.070530  0.327217
       Atomic Center   12 is at  -1.808734 -0.715550 -0.955860
       Atomic Center   13 is at  -3.127495 -1.138950 -1.081295
       Atomic Center   14 is at  -4.112872 -0.658695 -0.216928
       Atomic Center   15 is at  -3.759932  0.245654  0.781820
       Atomic Center   16 is at  -2.435912  0.656655  0.927000
       Atomic Center   17 is at  -0.147739 -1.996502  0.630132
       Atomic Center   18 is at   1.790706 -3.507681  0.601249
       Atomic Center   19 is at   4.083738 -2.609552  0.143237
       Atomic Center   20 is at   4.366617 -0.173117 -0.262157
       Atomic Center   21 is at   3.261896  1.922903 -1.087053
       Atomic Center   22 is at   2.960252  2.204513  0.625710
       Atomic Center   23 is at   1.375191  3.608336 -0.536938
       Atomic Center   24 is at   0.912672  2.306746 -1.651728
       Atomic Center   25 is at   0.395982  2.320358  1.370938
       Atomic Center   26 is at  -0.813586  2.598896  0.099981
       Atomic Center   27 is at  -1.045657 -1.077776 -1.647437
       Atomic Center   28 is at  -3.392054 -1.839633 -1.876573
       Atomic Center   29 is at  -5.148584 -0.986868 -0.324182
       Atomic Center   30 is at  -4.518863  0.627443  1.468548
       Atomic Center   31 is at  -2.163636  1.344831  1.729892
   18398 points will be used for fitting atomic charges
 Fitting point charges to electrostatic potential
 Charges from ESP fit, RMS=   0.00370 RRMS=   0.37287:
 ESP charges:
               1
     1  C    0.336919
     2  N   -0.437818
     3  C    0.248957
     4  C   -0.178104
     5  C   -0.092822
     6  C   -0.143238
     7  C   -0.159702
     8  C   -0.043458
     9  C    0.054546
    10  C   -0.042206
    11  C    0.262689
    12  C   -0.162686
    13  C   -0.072529
    14  C   -0.147933
    15  C   -0.075864
    16  C   -0.204855
    17  H    0.079166
    18  H    0.099685
    19  H    0.098274
    20  H    0.108418
    21  H    0.011983
    22  H   -0.000892
    23  H    0.006805
    24  H    0.010429
    25  H   -0.014651
    26  H   -0.030973
    27  H    0.089012
    28  H    0.095237
    29  H    0.100398
    30  H    0.096088
    31  H    0.109128
 Sum of ESP charges =  -0.00000
 ESP charges with hydrogens summed into heavy atoms:
               1
     1  C    0.336919
     2  N   -0.437818
     3  C    0.248957
     4  C   -0.098938
     5  C    0.006862
     6  C   -0.044964
     7  C   -0.051285
     8  C   -0.043458
     9  C    0.065637
    10  C   -0.024972
    11  C    0.217065
    12  C   -0.073674
    13  C    0.022708
    14  C   -0.047535
    15  C    0.020223
    16  C   -0.095728
 Charge=  -0.00000 Dipole=    -0.3517     1.3562    -0.0637 Tot=     1.4025
 -----------------------------------------------------------------

              Electrostatic Properties (Atomic Units)

 -----------------------------------------------------------------
    Center     Electric         -------- Electric Field --------
               Potential          X             Y             Z
 -----------------------------------------------------------------
    1 Atom    -14.726624
    2 Atom    -18.362267
    3 Atom    -14.729915
    4 Atom    -14.781829
    5 Atom    -14.778533
    6 Atom    -14.784745
    7 Atom    -14.778501
    8 Atom    -14.769334
    9 Atom    -14.764090
   10 Atom    -14.765561
   11 Atom    -14.731751
   12 Atom    -14.771657
   13 Atom    -14.767849
   14 Atom    -14.772222
   15 Atom    -14.767226
   16 Atom    -14.770212
   17 Atom     -1.115367
   18 Atom     -1.116606
   19 Atom     -1.118366
   20 Atom     -1.114692
   21 Atom     -1.119800
   22 Atom     -1.121070
   23 Atom     -1.117820
   24 Atom     -1.123231
   25 Atom     -1.119861
   26 Atom     -1.110284
   27 Atom     -1.106496
   28 Atom     -1.107324
   29 Atom     -1.108700
   30 Atom     -1.106374
   31 Atom     -1.102854
 -----------------------------------------------------------------
 Unable to Open any file for archive entry.
 1\1\GINC-NOTCH313\SP\RwB97XD\def2TZVP\C15H15N1\U1366379\17-Feb-2026\0\
 \#N Guess=Read Geom=Check Integral(Ultrafine) Density Pop=(ChelpG,Read
 Radii) NMR wB97XD def2TZVP\\prod_5k_3\\0,1\C,0,1.4321033736,-0.2800874
 903,0.1857016196\N,0,0.081088809,-0.6759966805,0.234101786\C,0,-0.9785
 019187,0.228887376,0.0994561664\C,0,-0.7859877295,1.6098945804,0.29620
 139\C,0,-1.8391546195,2.5057128185,0.1683799369\C,0,-3.1199800176,2.05
 1258854,-0.1436247021\C,0,-3.3201362792,0.6859409629,-0.3146260713\C,0
 ,-2.278795501,-0.2385128684,-0.1977769957\C,0,-2.5647758286,-1.7156321
 896,-0.3586770401\C,0,-1.2941999686,-2.5306907124,-0.5599083505\C,0,-0
 .2334014583,-2.0809294456,0.4365025791\C,0,1.9063241344,0.5497454141,-
 0.8425627925\C,0,3.2488299331,0.9087381043,-0.8967338895\C,0,4.1506931
 581,0.4311747461,0.0557998236\C,0,3.6899283175,-0.4047719616,1.0700981
 047\C,0,2.3414380022,-0.7501559676,1.1429828537\H,0,0.2044812512,1.980
 8126536,0.5613202782\H,0,-1.6550995725,3.5709572401,0.3258069755\H,0,-
 3.9517314374,2.7505835981,-0.245925703\H,0,-4.3201661158,0.3111135695,
 -0.5522318158\H,0,-3.2616791148,-1.870186394,-1.1969782209\H,0,-3.0887
 740659,-2.0765666322,0.5441022975\H,0,-1.4966678725,-3.6052831582,-0.4
 372808505\H,0,-0.900399029,-2.3836654884,-1.5787417863\H,0,-0.58831159
 35,-2.2649238193,1.4695629919\H,0,0.6892768168,-2.6601851751,0.3001589
 563\H,0,1.2089548148,0.908772403,-1.6018716773\H,0,3.5983960158,1.5557
 10291,-1.7045992936\H,0,5.2054354733,0.7083266944,0.004754673\H,0,4.38
 25772443,-0.7833865091,1.8252284409\H,0,1.9842547785,-1.3839248139,1.9
 573003159\\Version=ES64L-G16RevC.01\State=1-A\HF=-635.3944764\RMSD=2.0
 00e-09\Dipole=0.1086445,-0.5637346,-0.0067561\Quadrupole=1.5901968,1.4
 558109,-3.0460077,2.358766,1.4671081,-2.2107361\PG=C01 [X(C15H15N1)]\\
 @
 The archive entry for this job was punched.


 WE TEND TO MEET ANY NEW SITUATION BY REORGANIZING. IT CAN BE A
 WONDERFUL METHOD FOR CREATING THE ILLUSION OF PROGRESS WHILE PRODUCING
 CONFUSION, INEFFICIENCY, AND DEMORALIZATION.
     -- PETRONIUS ARBITER, 210 B.C.
 Job cpu time:       0 days  1 hours 56 minutes 46.2 seconds.
 Elapsed time:       0 days  0 hours 14 minutes 58.5 seconds.
 File lengths (MBytes):  RWF=    209 Int=      0 D2E=      0 Chk=     32 Scr=      2
 Normal termination of Gaussian 16 at Tue Feb 17 17:34:22 2026.
