 Entering Gaussian System, Link 0=g16
 Input=prod_5l_5.com
 Output=prod_5l_5.log
 Initial command:
 /uufs/chpc.utah.edu/sys/installdir/gaussian16/C01/AVX/g16/l1.exe "/scratch/general/vast/u1366379/GAUSSSCRDIR/11028723-notchpeak.peaks/Gau-994333.inp" -scrdir="/scratch/general/vast/u1366379/GAUSSSCRDIR/11028723-notchpeak.peaks/"
 Entering Link 1 = /uufs/chpc.utah.edu/sys/installdir/gaussian16/C01/AVX/g16/l1.exe PID=    994342.
  
 Copyright (c) 1988-2019, Gaussian, Inc.  All Rights Reserved.
  
 This is part of the Gaussian(R) 16 program.  It is based on
 the Gaussian(R) 09 system (copyright 2009, Gaussian, Inc.),
 the Gaussian(R) 03 system (copyright 2003, Gaussian, Inc.),
 the Gaussian(R) 98 system (copyright 1998, Gaussian, Inc.),
 the Gaussian(R) 94 system (copyright 1995, Gaussian, Inc.),
 the Gaussian 92(TM) system (copyright 1992, Gaussian, Inc.),
 the Gaussian 90(TM) system (copyright 1990, Gaussian, Inc.),
 the Gaussian 88(TM) system (copyright 1988, Gaussian, Inc.),
 the Gaussian 86(TM) system (copyright 1986, Carnegie Mellon
 University), and the Gaussian 82(TM) system (copyright 1983,
 Carnegie Mellon University). Gaussian is a federally registered
 trademark of Gaussian, Inc.
  
 This software contains proprietary and confidential information,
 including trade secrets, belonging to Gaussian, Inc.
  
 This software is provided under written license and may be
 used, copied, transmitted, or stored only in accord with that
 written license.
  
 The following legend is applicable only to US Government
 contracts under FAR:
  
                    RESTRICTED RIGHTS LEGEND
  
 Use, reproduction and disclosure by the US Government is
 subject to restrictions as set forth in subparagraphs (a)
 and (c) of the Commercial Computer Software - Restricted
 Rights clause in FAR 52.227-19.
  
 Gaussian, Inc.
 340 Quinnipiac St., Bldg. 40, Wallingford CT 06492
  
  
 ---------------------------------------------------------------
 Warning -- This program may not be used in any manner that
 competes with the business of Gaussian, Inc. or will provide
 assistance to any competitor of Gaussian, Inc.  The licensee
 of this program is prohibited from giving any competitor of
 Gaussian, Inc. access to this program.  By using this program,
 the user acknowledges that Gaussian, Inc. is engaged in the
 business of creating and licensing software in the field of
 computational chemistry and represents and warrants to the
 licensee that it is not a competitor of Gaussian, Inc. and that
 it will not use this program in any manner prohibited above.
 ---------------------------------------------------------------
  

 Cite this work as:
 Gaussian 16, Revision C.01,
 M. J. Frisch, G. W. Trucks, H. B. Schlegel, G. E. Scuseria, 
 M. A. Robb, J. R. Cheeseman, G. Scalmani, V. Barone, 
 G. A. Petersson, H. Nakatsuji, X. Li, M. Caricato, A. V. Marenich, 
 J. Bloino, B. G. Janesko, R. Gomperts, B. Mennucci, H. P. Hratchian, 
 J. V. Ortiz, A. F. Izmaylov, J. L. Sonnenberg, D. Williams-Young, 
 F. Ding, F. Lipparini, F. Egidi, J. Goings, B. Peng, A. Petrone, 
 T. Henderson, D. Ranasinghe, V. G. Zakrzewski, J. Gao, N. Rega, 
 G. Zheng, W. Liang, M. Hada, M. Ehara, K. Toyota, R. Fukuda, 
 J. Hasegawa, M. Ishida, T. Nakajima, Y. Honda, O. Kitao, H. Nakai, 
 T. Vreven, K. Throssell, J. A. Montgomery, Jr., J. E. Peralta, 
 F. Ogliaro, M. J. Bearpark, J. J. Heyd, E. N. Brothers, K. N. Kudin, 
 V. N. Staroverov, T. A. Keith, R. Kobayashi, J. Normand, 
 K. Raghavachari, A. P. Rendell, J. C. Burant, S. S. Iyengar, 
 J. Tomasi, M. Cossi, J. M. Millam, M. Klene, C. Adamo, R. Cammi, 
 J. W. Ochterski, R. L. Martin, K. Morokuma, O. Farkas, 
 J. B. Foresman, and D. J. Fox, Gaussian, Inc., Wallingford CT, 2019.
 
 ******************************************
 Gaussian 16:  ES64L-G16RevC.01  3-Jul-2019
                17-Feb-2026 
 ******************************************
 %NProcShared=8
 Will use up to    8 processors via shared memory.
 %Mem=8GB
 %chk=prod_5l_5.chk
 ------------------------------------------------------
 #N OPT FREQ=NORAMAN Integral(Ultrafine) wB97XD def2SVP
 ------------------------------------------------------
 1/18=20,19=15,26=4,38=1/1,3;
 2/9=110,12=2,17=6,18=5,40=1/2;
 3/5=43,7=101,11=2,25=1,30=1,71=1,74=-58,75=-5/1,2,3;
 4//1;
 5/5=2,38=5/2;
 6/7=2,8=2,9=2,10=2,28=1/1;
 7//1,2,3,16;
 1/18=20,19=15,26=4/3(2);
 2/9=110/2;
 99//99;
 2/9=110/2;
 3/5=43,7=101,11=2,25=1,30=1,71=1,74=-58,75=-5/1,2,3;
 4/5=5,16=3,69=1/1;
 5/5=2,38=5/2;
 7//1,2,3,16;
 1/18=20,19=15,26=4/3(-5);
 2/9=110/2;
 6/7=2,8=2,9=2,10=2,19=2,28=1/1;
 99/9=1/99;
 ---------
 prod_5l_5
 ---------
 Symbolic Z-matrix:
 Charge =  0 Multiplicity = 1
 O                    -0.082     2.3073    1.13804 
 S                     0.03511   1.24782   0.08013 
 N                     0.8926   -0.0419    0.80174 
 C                     2.17918  -0.36515   0.36735 
 C                     2.97138  -1.20564   1.1592 
 C                     4.24037  -1.56229   0.76753 
 C                     4.75676  -1.09473  -0.42438 
 C                     3.99537  -0.26769  -1.22523 
 C                     2.72696   0.091    -0.83763 
 C                    -1.54364   0.39607  -0.00684 
 C                    -2.60027   0.83341   0.7547 
 C                    -3.81375   0.17927   0.68897 
 C                    -3.9762   -0.92367  -0.13711 
 C                    -5.29123  -1.61327  -0.23111 
 C                    -2.90037  -1.34514  -0.90549 
 C                    -1.68813  -0.68878  -0.83728 
 O                     0.40429   1.57197  -1.33794 
 H                     0.81439   0.17201   1.77388 
 H                     2.56465  -1.57316   2.08481 
 H                     4.83374  -2.20889   1.39284 
 H                     5.7518   -1.37446  -0.7288 
 H                     4.3968    0.09906  -2.15567 
 H                     2.13727   0.73777  -1.45994 
 H                    -2.46513   1.69012   1.3946 
 H                    -4.64559   0.5241    1.27854 
 H                    -5.16473  -2.67195  -0.45918 
 H                    -5.84126  -1.54084   0.70751 
 H                    -5.90436  -1.17034  -1.01633 
 H                    -3.02013  -2.19021  -1.56123 
 H                    -0.85027  -1.01187  -1.43284 
 

 GradGradGradGradGradGradGradGradGradGradGradGradGradGradGradGradGradGrad
 Berny optimization.
 Initialization pass.
                           ----------------------------
                           !    Initial Parameters    !
                           ! (Angstroms and Degrees)  !
 --------------------------                            --------------------------
 ! Name  Definition              Value          Derivative Info.                !
 --------------------------------------------------------------------------------
 ! R1    R(1,2)                  1.5018         estimate D2E/DX2                !
 ! R2    R(2,3)                  1.7086         estimate D2E/DX2                !
 ! R3    R(2,10)                 1.796          estimate D2E/DX2                !
 ! R4    R(2,17)                 1.5008         estimate D2E/DX2                !
 ! R5    R(3,4)                  1.3959         estimate D2E/DX2                !
 ! R6    R(3,18)                 0.9985         estimate D2E/DX2                !
 ! R7    R(4,5)                  1.4004         estimate D2E/DX2                !
 ! R8    R(4,9)                  1.4            estimate D2E/DX2                !
 ! R9    R(5,6)                  1.3751         estimate D2E/DX2                !
 ! R10   R(5,19)                 1.0758         estimate D2E/DX2                !
 ! R11   R(6,7)                  1.3806         estimate D2E/DX2                !
 ! R12   R(6,20)                 1.0776         estimate D2E/DX2                !
 ! R13   R(7,8)                  1.3802         estimate D2E/DX2                !
 ! R14   R(7,21)                 1.0775         estimate D2E/DX2                !
 ! R15   R(8,9)                  1.374          estimate D2E/DX2                !
 ! R16   R(8,22)                 1.0777         estimate D2E/DX2                !
 ! R17   R(9,23)                 1.0739         estimate D2E/DX2                !
 ! R18   R(10,11)                1.3739         estimate D2E/DX2                !
 ! R19   R(10,16)                1.3738         estimate D2E/DX2                !
 ! R20   R(11,12)                1.3801         estimate D2E/DX2                !
 ! R21   R(11,24)                1.0778         estimate D2E/DX2                !
 ! R22   R(12,13)                1.3875         estimate D2E/DX2                !
 ! R23   R(12,25)                1.0763         estimate D2E/DX2                !
 ! R24   R(13,14)                1.4878         estimate D2E/DX2                !
 ! R25   R(13,15)                1.3876         estimate D2E/DX2                !
 ! R26   R(14,26)                1.0903         estimate D2E/DX2                !
 ! R27   R(14,27)                1.0903         estimate D2E/DX2                !
 ! R28   R(14,28)                1.0903         estimate D2E/DX2                !
 ! R29   R(15,16)                1.3802         estimate D2E/DX2                !
 ! R30   R(15,29)                1.0763         estimate D2E/DX2                !
 ! R31   R(16,30)                1.0775         estimate D2E/DX2                !
 ! A1    A(1,2,3)              105.911          estimate D2E/DX2                !
 ! A2    A(1,2,10)             107.4661         estimate D2E/DX2                !
 ! A3    A(1,2,17)             122.1693         estimate D2E/DX2                !
 ! A4    A(3,2,10)              95.9482         estimate D2E/DX2                !
 ! A5    A(3,2,17)             116.0174         estimate D2E/DX2                !
 ! A6    A(10,2,17)            105.8381         estimate D2E/DX2                !
 ! A7    A(2,3,4)              120.3935         estimate D2E/DX2                !
 ! A8    A(2,3,18)             102.1326         estimate D2E/DX2                !
 ! A9    A(4,3,18)             115.138          estimate D2E/DX2                !
 ! A10   A(3,4,5)              118.9755         estimate D2E/DX2                !
 ! A11   A(3,4,9)              123.5739         estimate D2E/DX2                !
 ! A12   A(5,4,9)              117.4443         estimate D2E/DX2                !
 ! A13   A(4,5,6)              121.1083         estimate D2E/DX2                !
 ! A14   A(4,5,19)             118.5351         estimate D2E/DX2                !
 ! A15   A(6,5,19)             120.3562         estimate D2E/DX2                !
 ! A16   A(5,6,7)              120.2151         estimate D2E/DX2                !
 ! A17   A(5,6,20)             119.9006         estimate D2E/DX2                !
 ! A18   A(7,6,20)             119.8843         estimate D2E/DX2                !
 ! A19   A(6,7,8)              119.8373         estimate D2E/DX2                !
 ! A20   A(6,7,21)             120.0935         estimate D2E/DX2                !
 ! A21   A(8,7,21)             120.0692         estimate D2E/DX2                !
 ! A22   A(7,8,9)              120.1326         estimate D2E/DX2                !
 ! A23   A(7,8,22)             119.9596         estimate D2E/DX2                !
 ! A24   A(9,8,22)             119.9076         estimate D2E/DX2                !
 ! A25   A(4,9,8)              121.2616         estimate D2E/DX2                !
 ! A26   A(4,9,23)             118.6931         estimate D2E/DX2                !
 ! A27   A(8,9,23)             120.0443         estimate D2E/DX2                !
 ! A28   A(2,10,11)            119.8836         estimate D2E/DX2                !
 ! A29   A(2,10,16)            119.7505         estimate D2E/DX2                !
 ! A30   A(11,10,16)           120.3658         estimate D2E/DX2                !
 ! A31   A(10,11,12)           119.929          estimate D2E/DX2                !
 ! A32   A(10,11,24)           119.0559         estimate D2E/DX2                !
 ! A33   A(12,11,24)           121.0147         estimate D2E/DX2                !
 ! A34   A(11,12,13)           120.5339         estimate D2E/DX2                !
 ! A35   A(11,12,25)           120.1058         estimate D2E/DX2                !
 ! A36   A(13,12,25)           119.3601         estimate D2E/DX2                !
 ! A37   A(12,13,14)           120.6314         estimate D2E/DX2                !
 ! A38   A(12,13,15)           118.7076         estimate D2E/DX2                !
 ! A39   A(14,13,15)           120.6302         estimate D2E/DX2                !
 ! A40   A(13,14,26)           111.1435         estimate D2E/DX2                !
 ! A41   A(13,14,27)           111.1429         estimate D2E/DX2                !
 ! A42   A(13,14,28)           110.7476         estimate D2E/DX2                !
 ! A43   A(26,14,27)           107.6441         estimate D2E/DX2                !
 ! A44   A(26,14,28)           108.0026         estimate D2E/DX2                !
 ! A45   A(27,14,28)           108.0184         estimate D2E/DX2                !
 ! A46   A(13,15,16)           120.6071         estimate D2E/DX2                !
 ! A47   A(13,15,29)           119.3125         estimate D2E/DX2                !
 ! A48   A(16,15,29)           120.08           estimate D2E/DX2                !
 ! A49   A(10,16,15)           119.8523         estimate D2E/DX2                !
 ! A50   A(10,16,30)           119.2805         estimate D2E/DX2                !
 ! A51   A(15,16,30)           120.8662         estimate D2E/DX2                !
 ! D1    D(1,2,3,4)           -112.3741         estimate D2E/DX2                !
 ! D2    D(1,2,3,18)            16.6632         estimate D2E/DX2                !
 ! D3    D(10,2,3,4)           137.5364         estimate D2E/DX2                !
 ! D4    D(10,2,3,18)          -93.4264         estimate D2E/DX2                !
 ! D5    D(17,2,3,4)            26.6695         estimate D2E/DX2                !
 ! D6    D(17,2,3,18)          155.7068         estimate D2E/DX2                !
 ! D7    D(1,2,10,11)            4.4889         estimate D2E/DX2                !
 ! D8    D(1,2,10,16)         -175.6234         estimate D2E/DX2                !
 ! D9    D(3,2,10,11)          113.2567         estimate D2E/DX2                !
 ! D10   D(3,2,10,16)          -66.8555         estimate D2E/DX2                !
 ! D11   D(17,2,10,11)        -127.5353         estimate D2E/DX2                !
 ! D12   D(17,2,10,16)          52.3524         estimate D2E/DX2                !
 ! D13   D(2,3,4,5)            165.5319         estimate D2E/DX2                !
 ! D14   D(2,3,4,9)            -15.4031         estimate D2E/DX2                !
 ! D15   D(18,3,4,5)            42.5492         estimate D2E/DX2                !
 ! D16   D(18,3,4,9)          -138.3857         estimate D2E/DX2                !
 ! D17   D(3,4,5,6)            179.397          estimate D2E/DX2                !
 ! D18   D(3,4,5,19)            -0.3682         estimate D2E/DX2                !
 ! D19   D(9,4,5,6)              0.2748         estimate D2E/DX2                !
 ! D20   D(9,4,5,19)          -179.4905         estimate D2E/DX2                !
 ! D21   D(3,4,9,8)           -179.3575         estimate D2E/DX2                !
 ! D22   D(3,4,9,23)             1.0028         estimate D2E/DX2                !
 ! D23   D(5,4,9,8)             -0.2792         estimate D2E/DX2                !
 ! D24   D(5,4,9,23)          -179.9188         estimate D2E/DX2                !
 ! D25   D(4,5,6,7)             -0.1098         estimate D2E/DX2                !
 ! D26   D(4,5,6,20)           179.8954         estimate D2E/DX2                !
 ! D27   D(19,5,6,7)           179.6512         estimate D2E/DX2                !
 ! D28   D(19,5,6,20)           -0.3436         estimate D2E/DX2                !
 ! D29   D(5,6,7,8)             -0.0616         estimate D2E/DX2                !
 ! D30   D(5,6,7,21)           179.9251         estimate D2E/DX2                !
 ! D31   D(20,6,7,8)           179.9332         estimate D2E/DX2                !
 ! D32   D(20,6,7,21)           -0.0801         estimate D2E/DX2                !
 ! D33   D(6,7,8,9)              0.0576         estimate D2E/DX2                !
 ! D34   D(6,7,8,22)           179.9518         estimate D2E/DX2                !
 ! D35   D(21,7,8,9)          -179.9291         estimate D2E/DX2                !
 ! D36   D(21,7,8,22)           -0.0349         estimate D2E/DX2                !
 ! D37   D(7,8,9,4)              0.1181         estimate D2E/DX2                !
 ! D38   D(7,8,9,23)           179.7529         estimate D2E/DX2                !
 ! D39   D(22,8,9,4)          -179.7762         estimate D2E/DX2                !
 ! D40   D(22,8,9,23)           -0.1414         estimate D2E/DX2                !
 ! D41   D(2,10,11,12)        -179.9759         estimate D2E/DX2                !
 ! D42   D(2,10,11,24)           0.2415         estimate D2E/DX2                !
 ! D43   D(16,10,11,12)          0.137          estimate D2E/DX2                !
 ! D44   D(16,10,11,24)       -179.6455         estimate D2E/DX2                !
 ! D45   D(2,10,16,15)         179.9828         estimate D2E/DX2                !
 ! D46   D(2,10,16,30)          -0.3872         estimate D2E/DX2                !
 ! D47   D(11,10,16,15)         -0.1301         estimate D2E/DX2                !
 ! D48   D(11,10,16,30)        179.5            estimate D2E/DX2                !
 ! D49   D(10,11,12,13)          0.2979         estimate D2E/DX2                !
 ! D50   D(10,11,12,25)       -179.5246         estimate D2E/DX2                !
 ! D51   D(24,11,12,13)       -179.9239         estimate D2E/DX2                !
 ! D52   D(24,11,12,25)          0.2536         estimate D2E/DX2                !
 ! D53   D(11,12,13,14)       -178.7198         estimate D2E/DX2                !
 ! D54   D(11,12,13,15)         -0.7248         estimate D2E/DX2                !
 ! D55   D(25,12,13,14)          1.104          estimate D2E/DX2                !
 ! D56   D(25,12,13,15)        179.099          estimate D2E/DX2                !
 ! D57   D(12,13,14,26)       -150.5706         estimate D2E/DX2                !
 ! D58   D(12,13,14,27)        -30.7028         estimate D2E/DX2                !
 ! D59   D(12,13,14,28)         89.373          estimate D2E/DX2                !
 ! D60   D(15,13,14,26)         31.4731         estimate D2E/DX2                !
 ! D61   D(15,13,14,27)        151.3409         estimate D2E/DX2                !
 ! D62   D(15,13,14,28)        -88.5833         estimate D2E/DX2                !
 ! D63   D(12,13,15,16)          0.7323         estimate D2E/DX2                !
 ! D64   D(12,13,15,29)       -179.0505         estimate D2E/DX2                !
 ! D65   D(14,13,15,16)        178.7273         estimate D2E/DX2                !
 ! D66   D(14,13,15,29)         -1.0555         estimate D2E/DX2                !
 ! D67   D(13,15,16,10)         -0.312          estimate D2E/DX2                !
 ! D68   D(13,15,16,30)       -179.9361         estimate D2E/DX2                !
 ! D69   D(29,15,16,10)        179.4691         estimate D2E/DX2                !
 ! D70   D(29,15,16,30)         -0.155          estimate D2E/DX2                !
 --------------------------------------------------------------------------------
 Trust Radius=3.00D-01 FncErr=1.00D-07 GrdErr=1.00D-06 EigMax=2.50D+02 EigMin=1.00D-04
 Number of steps in this run=    162 maximum allowed number of steps=    180.
 GradGradGradGradGradGradGradGradGradGradGradGradGradGradGradGradGradGrad

                          Input orientation:                          
 ---------------------------------------------------------------------
 Center     Atomic      Atomic             Coordinates (Angstroms)
 Number     Number       Type             X           Y           Z
 ---------------------------------------------------------------------
      1          8           0       -0.082000    2.307300    1.138040
      2         16           0        0.035110    1.247820    0.080130
      3          7           0        0.892600   -0.041900    0.801740
      4          6           0        2.179180   -0.365150    0.367350
      5          6           0        2.971380   -1.205640    1.159200
      6          6           0        4.240370   -1.562290    0.767530
      7          6           0        4.756760   -1.094730   -0.424380
      8          6           0        3.995370   -0.267690   -1.225230
      9          6           0        2.726960    0.091000   -0.837630
     10          6           0       -1.543640    0.396070   -0.006840
     11          6           0       -2.600270    0.833410    0.754700
     12          6           0       -3.813750    0.179270    0.688970
     13          6           0       -3.976200   -0.923670   -0.137110
     14          6           0       -5.291230   -1.613270   -0.231110
     15          6           0       -2.900370   -1.345140   -0.905490
     16          6           0       -1.688130   -0.688780   -0.837280
     17          8           0        0.404290    1.571970   -1.337940
     18          1           0        0.814390    0.172010    1.773880
     19          1           0        2.564650   -1.573160    2.084810
     20          1           0        4.833740   -2.208890    1.392840
     21          1           0        5.751800   -1.374460   -0.728800
     22          1           0        4.396800    0.099060   -2.155670
     23          1           0        2.137270    0.737770   -1.459940
     24          1           0       -2.465130    1.690120    1.394600
     25          1           0       -4.645590    0.524100    1.278540
     26          1           0       -5.164730   -2.671950   -0.459180
     27          1           0       -5.841260   -1.540840    0.707510
     28          1           0       -5.904360   -1.170340   -1.016330
     29          1           0       -3.020130   -2.190210   -1.561230
     30          1           0       -0.850270   -1.011870   -1.432840
 ---------------------------------------------------------------------
                    Distance matrix (angstroms):
                    1          2          3          4          5
     1  O    0.000000
     2  S    1.501794   0.000000
     3  N    2.565479   1.708622   0.000000
     4  C    3.584534   2.698371   1.395877   0.000000
     5  C    4.654495   3.975618   2.409024   1.400368   0.000000
     6  C    5.813251   5.104258   3.676999   2.416980   1.375115
     7  C    6.117889   5.294908   4.188503   2.793393   2.389060
     8  C    5.370341   4.436710   3.713054   2.417510   2.759314
     9  C    4.087238   3.070272   2.463752   1.400040   2.393396
    10  C    2.664572   1.795966   2.604013   3.818228   4.930571
    11  C    2.942955   2.751728   3.601183   4.942644   5.946817
    12  C    4.319275   4.040570   4.712893   6.026196   6.940971
    13  C    5.218234   4.566527   5.036285   6.201220   7.073104
    14  C    6.661946   6.054139   6.463415   7.597564   8.388674
    15  C    5.045745   4.038803   4.358863   5.327507   6.225741
    16  C    3.931671   2.749839   3.124901   4.063491   5.095499
    17  O    2.628244   1.500763   2.724198   3.132201   4.532193
    18  H    2.401514   2.152541   0.998464   2.032122   2.632177
    19  H    4.791565   4.286635   2.605144   2.134841   1.075757
    20  H    6.680224   6.057962   4.536279   3.390825   2.128258
    21  H    7.146585   6.341235   5.265937   3.870900   3.365082
    22  H    5.982015   5.034162   4.587544   3.391012   3.836982
    23  H    3.760064   2.655380   2.696717   2.134755   3.366374
    24  H    2.475084   2.859136   3.824360   5.181601   6.164128
    25  H    4.901622   4.885582   5.587418   6.942515   7.811816
    26  H    7.292338   6.534048   6.722970   7.741931   8.424103
    27  H    6.939929   6.534673   6.899317   8.113286   8.830572
    28  H    7.115839   6.505922   7.125828   8.240541   9.138541
    29  H    6.012176   4.883503   5.050576   5.838072   6.653443
    30  H    4.268085   2.859926   2.995294   3.582806   4.621821
                    6          7          8          9         10
     6  C    0.000000
     7  C    1.380551   0.000000
     8  C    2.388955   1.380243   0.000000
     9  C    2.756867   2.386801   1.373956   0.000000
    10  C    6.155452   6.487824   5.710139   4.361342   0.000000
    11  C    7.248027   7.696353   6.973881   5.609462   1.373927
    12  C    8.240634   8.735918   8.052719   6.717082   2.384230
    13  C    8.290852   8.739358   8.072189   6.815617   2.770565
    14  C    9.583907  10.063217   9.436090   8.219719   4.258189
    15  C    7.337324   7.676315   6.986728   5.808093   2.383296
    16  C    6.203672   6.470849   5.712267   4.483422   1.373829
    17  O    5.382574   5.185545   4.036447   2.799710   2.636095
    18  H    3.969619   4.688204   4.393931   3.237973   2.963355
    19  H    2.131521   3.366048   3.835046   3.366961   5.013074
    20  H    1.077586   2.132971   3.365325   3.834451   7.029644
    21  H    2.135112   1.077509   2.134579   3.362897   7.541846
    22  H    3.365955   2.133558   1.077669   2.127360   6.324121
    23  H    3.830787   3.360382   2.125694   1.073925   3.972072
    24  H    7.478978   7.951086   7.241173   5.873486   2.118429
    25  H    9.141906   9.691477   9.031167   7.682463   3.360162
    26  H    9.549454  10.046133   9.501302   8.369940   4.767562
    27  H   10.081831  10.667625  10.105231   8.858033   4.767751
    28  H   10.307828  10.677809   9.942991   8.724826   4.742214
    29  H    7.650638   7.935523   7.281910   6.225477   3.359315
    30  H    5.573079   5.697600   4.906846   3.790405   2.120503
                   11         12         13         14         15
    11  C    0.000000
    12  C    1.380128   0.000000
    13  C    2.403297   1.387543   0.000000
    14  C    3.768200   2.498538   1.487847   0.000000
    15  C    2.755426   2.387549   1.387608   2.498578   0.000000
    16  C    2.384001   2.757029   2.404304   3.768880   1.380213
    17  O    3.735237   4.882606   5.182558   6.618895   4.429145
    18  H    3.624373   4.753605   5.272774   6.669768   4.824957
    19  H    5.851254   6.760427   6.938406   8.190235   6.233805
    20  H    8.057749   8.998768   9.033691  10.271660   8.114483
    21  H    8.765417   9.794075   9.756398  11.056819   8.654024
    22  H    7.613706   8.689738   8.673390  10.024666   7.543033
    23  H    5.230494   6.351722   6.471845   7.887967   5.479393
    24  H    1.077816   2.144611   3.385464   4.641353   3.833099
    25  H    2.133873   1.076317   2.132648   2.695226   3.363010
    26  H    4.509713   3.357507   2.138414   1.090331   2.662131
    27  H    4.017873   2.658932   2.138394   1.090315   3.359896
    28  H    4.250714   3.016645   2.133465   1.090269   3.011112
    29  H    3.831722   3.362688   2.132208   2.694434   1.076327
    30  H    3.354533   3.834463   3.384987   4.639824   2.142913
                   16         17         18         19         20
    16  C    0.000000
    17  O    3.120877   0.000000
    18  H    3.717758   3.436785   0.000000
    19  H    5.235158   5.125838   2.491125   0.000000
    20  H    7.058255   6.432114   4.687115   2.455961   0.000000
    21  H    7.472248   6.135826   5.747434   4.256032   2.457736
    22  H    6.275764   4.333392   5.317927   4.912715   4.255523
    23  H    4.129944   1.927172   3.539447   4.253035   4.908371
    24  H    3.353235   3.964127   3.633698   6.035236   8.275010
    25  H    3.833320   5.783190   5.493697   7.552227   9.866103
    26  H    4.020282   7.056703   6.987456   8.211123  10.179087
    27  H    4.512302   7.271887   6.954759   8.518059  10.717817
    28  H    4.247417   6.886419   7.397890   9.027927  11.053935
    29  H    2.133687   5.092201   5.604158   6.698069   8.391076
    30  H    1.077538   2.873875   3.802068   4.934631   6.459512
                   21         22         23         24         25
    21  H    0.000000
    22  H    2.458301   0.000000
    23  H    4.249813   2.448973   0.000000
    24  H    9.023215   7.888091   5.498859   0.000000
    25  H   10.758237   9.681904   7.317931   2.475374   0.000000
    26  H   10.996672  10.098487   8.120771   5.454539   3.674767
    27  H   11.682881  10.756623   8.575946   4.723288   2.453503
    28  H   11.661492  10.441426   8.276804   5.081645   3.118021
    29  H    8.849019   7.784919   5.931450   4.909370   4.251340
    30  H    6.649396   5.411875   3.462278   4.231187   4.910727
                   26         27         28         29         30
    26  H    0.000000
    27  H    1.760190   0.000000
    28  H    1.764172   1.764334   0.000000
    29  H    2.458841   3.677994   3.107384   0.000000
    30  H    4.724240   5.456271   5.073699   2.472501   0.000000
 Stoichiometry    C13H13NO2S
 Framework group  C1[X(C13H13NO2S)]
 Deg. of freedom    84
 Full point group                 C1      NOp   1
 Largest Abelian subgroup         C1      NOp   1
 Largest concise Abelian subgroup C1      NOp   1
                         Standard orientation:                         
 ---------------------------------------------------------------------
 Center     Atomic      Atomic             Coordinates (Angstroms)
 Number     Number       Type             X           Y           Z
 ---------------------------------------------------------------------
      1          8           0        0.072561    2.495943   -0.758210
      2         16           0       -0.055763    1.285123    0.120899
      3          7           0       -0.916728    0.129192   -0.796681
      4          6           0       -2.207258   -0.249817   -0.423376
      5          6           0       -3.000091   -0.951477   -1.339956
      6          6           0       -4.273001   -1.356920   -1.013987
      7          6           0       -4.792810   -1.077844    0.234146
      8          6           0       -4.030907   -0.390680    1.157390
      9          6           0       -2.758586    0.016147    0.835757
     10          6           0        1.517783    0.420366    0.080392
     11          6           0        2.580656    0.964552   -0.599196
     12          6           0        3.790145    0.300583   -0.631350
     13          6           0        3.942304   -0.918741    0.013143
     14          6           0        5.253001   -1.622783    0.003797
     15          6           0        2.860285   -1.448199    0.701885
     16          6           0        1.652061   -0.781658    0.731941
     17          8           0       -0.430304    1.386337    1.570645
     18          1           0       -0.832421    0.491677   -1.723195
     19          1           0       -2.590730   -1.172607   -2.309894
     20          1           0       -4.866776   -1.894301   -1.734990
     21          1           0       -5.790911   -1.395412    0.487070
     22          1           0       -4.434996   -0.171098    2.132000
     23          1           0       -2.168475    0.554186    1.553807
     24          1           0        2.453501    1.911445   -1.098106
     25          1           0        4.626852    0.727968   -1.156442
     26          1           0        5.119486   -2.703269    0.063328
     27          1           0        5.808161   -1.408227   -0.909739
     28          1           0        5.864599   -1.311649    0.851045
     29          1           0        2.972045   -2.385970    1.218194
     30          1           0        0.809424   -1.188466    1.266317
 ---------------------------------------------------------------------
 Rotational constants (GHZ):           0.9763303           0.2217247           0.2051148
 Standard basis: def2SVP (5D, 7F)
 There are   324 symmetry adapted cartesian basis functions of A   symmetry.
 There are   307 symmetry adapted basis functions of A   symmetry.
   307 basis functions,   528 primitive gaussians,   324 cartesian basis functions
    65 alpha electrons       65 beta electrons
       nuclear repulsion energy      1295.6483843462 Hartrees.
 NAtoms=   30 NActive=   30 NUniq=   30 SFac= 1.00D+00 NAtFMM=   60 NAOKFM=F Big=F
 Integral buffers will be    131072 words long.
 Raffenetti 2 integral format.
 Two-electron integral symmetry is turned on.
 Nuclear repulsion after empirical dispersion term =     1295.6301753738 Hartrees.
 One-electron integrals computed using PRISM.
   1 Symmetry operations used in ECPInt.
 ECPInt:  NShTT=   10296 NPrTT=   38220 LenC2=    9246 LenP2D=   24233.
 LDataN:  DoStor=T MaxTD1= 4 Len=   56
 NBasis=   307 RedAO= T EigKep=  2.44D-04  NBF=   307
 NBsUse=   307 1.00D-06 EigRej= -1.00D+00 NBFU=   307
 ExpMin= 1.22D-01 ExpMax= 9.18D+03 ExpMxC= 1.38D+03 IAcc=3 IRadAn=         5 AccDes= 0.00D+00
 Harris functional with IExCor= 4639 and IRadAn=       5 diagonalized for initial guess.
 HarFok:  IExCor= 4639 AccDes= 0.00D+00 IRadAn=         5 IDoV= 1 UseB2=F ITyADJ=14
 ICtDFT=  3500011 ScaDFX=  1.000000  1.000000  1.000000  1.000000
 FoFCou: FMM=F IPFlag=           0 FMFlag=      100000 FMFlg1=           0
         NFxFlg=           0 DoJE=T BraDBF=F KetDBF=T FulRan=T
         wScrn=  0.000000 ICntrl=       500 IOpCl=  0 I1Cent=   200000004 NGrid=           0
         NMat0=    1 NMatS0=      1 NMatT0=    0 NMatD0=    1 NMtDS0=    0 NMtDT0=    0
 Petite list used in FoFCou.
 Requested convergence on RMS density matrix=1.00D-08 within 128 cycles.
 Requested convergence on MAX density matrix=1.00D-06.
 Requested convergence on             energy=1.00D-06.
 No special actions if energy rises.
 Integral accuracy reduced to 1.0D-05 until final iterations.
 Initial convergence to 1.0D-05 achieved.  Increase integral accuracy.
 SCF Done:  E(RwB97XD) =  -1105.63882243     A.U. after   15 cycles
            NFock= 15  Conv=0.86D-08     -V/T= 2.0070

 **********************************************************************

            Population analysis using the SCF Density.

 **********************************************************************

 Orbital symmetries:
       Occupied  (A) (A) (A) (A) (A) (A) (A) (A) (A) (A) (A) (A)
                 (A) (A) (A) (A) (A) (A) (A) (A) (A) (A) (A) (A)
                 (A) (A) (A) (A) (A) (A) (A) (A) (A) (A) (A) (A)
                 (A) (A) (A) (A) (A) (A) (A) (A) (A) (A) (A) (A)
                 (A) (A) (A) (A) (A) (A) (A) (A) (A) (A) (A) (A)
                 (A) (A) (A) (A) (A)
       Virtual   (A) (A) (A) (A) (A) (A) (A) (A) (A) (A) (A) (A)
                 (A) (A) (A) (A) (A) (A) (A) (A) (A) (A) (A) (A)
                 (A) (A) (A) (A) (A) (A) (A) (A) (A) (A) (A) (A)
                 (A) (A) (A) (A) (A) (A) (A) (A) (A) (A) (A) (A)
                 (A) (A) (A) (A) (A) (A) (A) (A) (A) (A) (A) (A)
                 (A) (A) (A) (A) (A) (A) (A) (A) (A) (A) (A) (A)
                 (A) (A) (A) (A) (A) (A) (A) (A) (A) (A) (A) (A)
                 (A) (A) (A) (A) (A) (A) (A) (A) (A) (A) (A) (A)
                 (A) (A) (A) (A) (A) (A) (A) (A) (A) (A) (A) (A)
                 (A) (A) (A) (A) (A) (A) (A) (A) (A) (A) (A) (A)
                 (A) (A) (A) (A) (A) (A) (A) (A) (A) (A) (A) (A)
                 (A) (A) (A) (A) (A) (A) (A) (A) (A) (A) (A) (A)
                 (A) (A) (A) (A) (A) (A) (A) (A) (A) (A) (A) (A)
                 (A) (A) (A) (A) (A) (A) (A) (A) (A) (A) (A) (A)
                 (A) (A) (A) (A) (A) (A) (A) (A) (A) (A) (A) (A)
                 (A) (A) (A) (A) (A) (A) (A) (A) (A) (A) (A) (A)
                 (A) (A) (A) (A) (A) (A) (A) (A) (A) (A) (A) (A)
                 (A) (A) (A) (A) (A) (A) (A) (A) (A) (A) (A) (A)
                 (A) (A) (A) (A) (A) (A) (A) (A) (A) (A) (A) (A)
                 (A) (A) (A) (A) (A) (A) (A) (A) (A) (A) (A) (A)
                 (A) (A)
 The electronic state is 1-A.
 Alpha  occ. eigenvalues --  -89.25884 -19.26710 -19.25874 -14.49882 -10.35420
 Alpha  occ. eigenvalues --  -10.33403 -10.32594 -10.32342 -10.32138 -10.31501
 Alpha  occ. eigenvalues --  -10.31397 -10.30776 -10.30359 -10.30237 -10.29873
 Alpha  occ. eigenvalues --  -10.29397 -10.29073  -8.27690  -6.23115  -6.23026
 Alpha  occ. eigenvalues --   -6.22876  -1.20622  -1.09297  -1.05487  -0.98672
 Alpha  occ. eigenvalues --   -0.95258  -0.90290  -0.86407  -0.85044  -0.84623
 Alpha  occ. eigenvalues --   -0.81218  -0.75867  -0.72603  -0.71577  -0.70526
 Alpha  occ. eigenvalues --   -0.68137  -0.64258  -0.63934  -0.60458  -0.58939
 Alpha  occ. eigenvalues --   -0.58137  -0.56496  -0.54828  -0.53900  -0.53587
 Alpha  occ. eigenvalues --   -0.52948  -0.52867  -0.52739  -0.51166  -0.49636
 Alpha  occ. eigenvalues --   -0.48571  -0.47536  -0.46396  -0.45931  -0.44261
 Alpha  occ. eigenvalues --   -0.44020  -0.43923  -0.41275  -0.40520  -0.39661
 Alpha  occ. eigenvalues --   -0.38264  -0.35385  -0.34578  -0.33783  -0.30424
 Alpha virt. eigenvalues --    0.02857   0.04386   0.05961   0.06546   0.09981
 Alpha virt. eigenvalues --    0.12909   0.13958   0.14722   0.15361   0.15744
 Alpha virt. eigenvalues --    0.17006   0.17134   0.18718   0.19435   0.20676
 Alpha virt. eigenvalues --    0.21050   0.21341   0.22196   0.23737   0.24346
 Alpha virt. eigenvalues --    0.24895   0.25622   0.29239   0.29639   0.33161
 Alpha virt. eigenvalues --    0.35205   0.36396   0.36712   0.37573   0.37649
 Alpha virt. eigenvalues --    0.38185   0.39597   0.40104   0.40903   0.43672
 Alpha virt. eigenvalues --    0.46469   0.47499   0.47742   0.48389   0.49171
 Alpha virt. eigenvalues --    0.49281   0.51250   0.51903   0.52388   0.54267
 Alpha virt. eigenvalues --    0.54446   0.55589   0.55645   0.56183   0.56961
 Alpha virt. eigenvalues --    0.58230   0.58609   0.59558   0.60562   0.61914
 Alpha virt. eigenvalues --    0.62209   0.63327   0.64266   0.65007   0.65360
 Alpha virt. eigenvalues --    0.67939   0.69806   0.70089   0.71115   0.71265
 Alpha virt. eigenvalues --    0.72068   0.72718   0.73377   0.73397   0.74583
 Alpha virt. eigenvalues --    0.74836   0.75158   0.75913   0.76225   0.76504
 Alpha virt. eigenvalues --    0.77472   0.78293   0.78528   0.78901   0.80278
 Alpha virt. eigenvalues --    0.81685   0.82199   0.82453   0.83217   0.83357
 Alpha virt. eigenvalues --    0.84370   0.85592   0.86273   0.88400   0.89881
 Alpha virt. eigenvalues --    0.90622   0.91849   0.92893   0.95709   0.97229
 Alpha virt. eigenvalues --    0.98439   0.99617   1.00304   1.03050   1.06856
 Alpha virt. eigenvalues --    1.09772   1.09999   1.10953   1.12532   1.13404
 Alpha virt. eigenvalues --    1.15244   1.15374   1.19883   1.21228   1.22498
 Alpha virt. eigenvalues --    1.25049   1.27026   1.27159   1.28232   1.28953
 Alpha virt. eigenvalues --    1.30629   1.31258   1.32014   1.32636   1.33248
 Alpha virt. eigenvalues --    1.34498   1.35131   1.36700   1.37500   1.38241
 Alpha virt. eigenvalues --    1.38588   1.40366   1.41971   1.44804   1.52146
 Alpha virt. eigenvalues --    1.55045   1.56617   1.57856   1.60202   1.61077
 Alpha virt. eigenvalues --    1.62514   1.63831   1.69672   1.75218   1.76056
 Alpha virt. eigenvalues --    1.76871   1.77654   1.78580   1.80226   1.80938
 Alpha virt. eigenvalues --    1.82126   1.82875   1.83386   1.84043   1.84191
 Alpha virt. eigenvalues --    1.85117   1.86300   1.86565   1.87523   1.87689
 Alpha virt. eigenvalues --    1.88134   1.88753   1.90624   1.91727   1.93444
 Alpha virt. eigenvalues --    1.93956   1.96263   1.98160   1.99009   2.02963
 Alpha virt. eigenvalues --    2.04211   2.04557   2.05177   2.06192   2.08158
 Alpha virt. eigenvalues --    2.10421   2.11022   2.13216   2.14092   2.17217
 Alpha virt. eigenvalues --    2.17424   2.19940   2.20942   2.21164   2.23114
 Alpha virt. eigenvalues --    2.24585   2.25668   2.29427   2.30408   2.31718
 Alpha virt. eigenvalues --    2.33431   2.34724   2.36141   2.38235   2.38831
 Alpha virt. eigenvalues --    2.40736   2.42593   2.43817   2.44935   2.45177
 Alpha virt. eigenvalues --    2.45388   2.51733   2.55017   2.56292   2.57639
 Alpha virt. eigenvalues --    2.59700   2.61359   2.68519   2.69074   2.71469
 Alpha virt. eigenvalues --    2.71680   2.72700   2.73192   2.73449   2.74032
 Alpha virt. eigenvalues --    2.74750   2.75730   2.76031   2.78678   2.81234
 Alpha virt. eigenvalues --    2.83003   2.83171   2.84413   2.85280   2.86314
 Alpha virt. eigenvalues --    2.91691   2.94448   2.95305   2.96816   2.99342
 Alpha virt. eigenvalues --    3.00690   3.00782   3.02078   3.03114   3.04798
 Alpha virt. eigenvalues --    3.07038   3.08667   3.22716   3.23730   3.25838
 Alpha virt. eigenvalues --    3.32122   3.33776   3.34250   3.45809   3.46861
 Alpha virt. eigenvalues --    3.69717   3.78802
          Condensed to atoms (all electrons):
               1          2          3          4          5          6
     1  O    8.155527   0.431080  -0.053953   0.003064  -0.000176  -0.000000
     2  S    0.431080  13.940227   0.205707  -0.037985  -0.000573  -0.000131
     3  N   -0.053953   0.205707   6.842719   0.268921  -0.070093   0.006543
     4  C    0.003064  -0.037985   0.268921   5.192037   0.261654   0.108645
     5  C   -0.000176  -0.000573  -0.070093   0.261654   5.136542   0.313153
     6  C   -0.000000  -0.000131   0.006543   0.108645   0.313153   5.004552
     7  C    0.000000   0.000003  -0.000451  -0.162634   0.084681   0.287023
     8  C   -0.000026  -0.000770   0.007293   0.107168  -0.145265   0.095083
     9  C   -0.000210   0.001213  -0.084713   0.254700   0.076273  -0.144661
    10  C   -0.070499   0.231287  -0.095857   0.008254  -0.000753  -0.000001
    11  C    0.005183  -0.022393  -0.004362  -0.000269  -0.000008   0.000000
    12  C    0.001554   0.002688  -0.000070  -0.000017   0.000001  -0.000000
    13  C   -0.000038   0.000951  -0.000030   0.000005  -0.000000  -0.000000
    14  C    0.000000   0.000007  -0.000000   0.000000   0.000000   0.000000
    15  C    0.000022  -0.001604  -0.000232   0.000012  -0.000001  -0.000000
    16  C    0.004460  -0.042152   0.005894  -0.000046   0.000069   0.000000
    17  O   -0.026921   0.389666  -0.033402  -0.005129  -0.000011   0.000002
    18  H    0.013703  -0.006791   0.324740  -0.004394  -0.012638   0.000269
    19  H   -0.000024  -0.000126  -0.009478  -0.081205   0.450880  -0.059385
    20  H   -0.000000   0.000004  -0.000112   0.015549  -0.069512   0.453980
    21  H    0.000000   0.000000   0.000011  -0.001414   0.014400  -0.070455
    22  H    0.000000   0.000001  -0.000108   0.015279  -0.001963   0.014156
    23  H    0.000362  -0.009543  -0.013559  -0.069915   0.013385  -0.002247
    24  H    0.018217  -0.012651   0.000675  -0.000073   0.000002   0.000000
    25  H   -0.000009  -0.000158   0.000004  -0.000000   0.000000   0.000000
    26  H    0.000000  -0.000000  -0.000000   0.000000   0.000000  -0.000000
    27  H    0.000000  -0.000000  -0.000000  -0.000000   0.000000  -0.000000
    28  H    0.000000  -0.000000   0.000000  -0.000000   0.000000   0.000000
    29  H    0.000000  -0.000156   0.000002  -0.000002   0.000000   0.000000
    30  H    0.000193  -0.005697   0.001040   0.000378  -0.000015  -0.000002
               7          8          9         10         11         12
     1  O    0.000000  -0.000026  -0.000210  -0.070499   0.005183   0.001554
     2  S    0.000003  -0.000770   0.001213   0.231287  -0.022393   0.002688
     3  N   -0.000451   0.007293  -0.084713  -0.095857  -0.004362  -0.000070
     4  C   -0.162634   0.107168   0.254700   0.008254  -0.000269  -0.000017
     5  C    0.084681  -0.145265   0.076273  -0.000753  -0.000008   0.000001
     6  C    0.287023   0.095083  -0.144661  -0.000001   0.000000  -0.000000
     7  C    5.106729   0.271760   0.087490   0.000001  -0.000000  -0.000000
     8  C    0.271760   5.052395   0.266164  -0.000068   0.000000   0.000000
     9  C    0.087490   0.266164   5.219736  -0.001221  -0.000047   0.000001
    10  C    0.000001  -0.000068  -0.001221   5.748144   0.283695   0.086999
    11  C   -0.000000   0.000000  -0.000047   0.283695   5.053461   0.264044
    12  C   -0.000000   0.000000   0.000001   0.086999   0.264044   5.116839
    13  C   -0.000000  -0.000000  -0.000001  -0.183604   0.098943   0.283587
    14  C   -0.000000   0.000000  -0.000000   0.000614   0.009645  -0.076940
    15  C   -0.000000   0.000000   0.000006   0.086537  -0.122042   0.051274
    16  C    0.000001   0.000012   0.000018   0.170142   0.044375  -0.121487
    17  O   -0.000034   0.002108  -0.022102  -0.059282  -0.001084  -0.000055
    18  H   -0.000016  -0.000144   0.003873   0.003401   0.001511  -0.000050
    19  H    0.014856  -0.002218   0.016853  -0.000004  -0.000006  -0.000000
    20  H   -0.069227   0.013823  -0.001910  -0.000000   0.000000   0.000000
    21  H    0.451561  -0.067786   0.014688   0.000000   0.000000   0.000000
    22  H   -0.074453   0.457833  -0.067503  -0.000000   0.000000  -0.000000
    23  H    0.013757  -0.052874   0.451905   0.001089  -0.000072  -0.000002
    24  H   -0.000000   0.000000   0.000002  -0.068164   0.446394  -0.052693
    25  H    0.000000  -0.000000   0.000000   0.016754  -0.066537   0.460872
    26  H    0.000000  -0.000000   0.000000   0.000027  -0.000547   0.007397
    27  H   -0.000000  -0.000000   0.000000   0.000025   0.000809  -0.008911
    28  H   -0.000000  -0.000000  -0.000000   0.000068  -0.000273  -0.003453
    29  H    0.000000  -0.000000   0.000000   0.016246  -0.002053   0.014623
    30  H   -0.000005   0.000033   0.000210  -0.081151   0.011971  -0.001423
              13         14         15         16         17         18
     1  O   -0.000038   0.000000   0.000022   0.004460  -0.026921   0.013703
     2  S    0.000951   0.000007  -0.001604  -0.042152   0.389666  -0.006791
     3  N   -0.000030  -0.000000  -0.000232   0.005894  -0.033402   0.324740
     4  C    0.000005   0.000000   0.000012  -0.000046  -0.005129  -0.004394
     5  C   -0.000000   0.000000  -0.000001   0.000069  -0.000011  -0.012638
     6  C   -0.000000   0.000000  -0.000000   0.000000   0.000002   0.000269
     7  C   -0.000000  -0.000000  -0.000000   0.000001  -0.000034  -0.000016
     8  C   -0.000000   0.000000   0.000000   0.000012   0.002108  -0.000144
     9  C   -0.000001  -0.000000   0.000006   0.000018  -0.022102   0.003873
    10  C   -0.183604   0.000614   0.086537   0.170142  -0.059282   0.003401
    11  C    0.098943   0.009645  -0.122042   0.044375  -0.001084   0.001511
    12  C    0.283587  -0.076940   0.051274  -0.121487  -0.000055  -0.000050
    13  C    5.261123   0.407700   0.296258   0.086448  -0.000022   0.000009
    14  C    0.407700   4.549407  -0.077268   0.010070  -0.000000  -0.000000
    15  C    0.296258  -0.077268   5.035385   0.341746   0.000668  -0.000024
    16  C    0.086448   0.010070   0.341746   5.054758   0.007284  -0.001345
    17  O   -0.000022  -0.000000   0.000668   0.007284   8.158472   0.002376
    18  H    0.000009  -0.000000  -0.000024  -0.001345   0.002376   0.508445
    19  H    0.000000  -0.000000   0.000001   0.000020   0.000005   0.003089
    20  H   -0.000000  -0.000000   0.000000  -0.000000  -0.000000  -0.000024
    21  H    0.000000   0.000000   0.000000   0.000000   0.000000  -0.000001
    22  H    0.000000  -0.000000   0.000000   0.000000   0.000021   0.000012
    23  H    0.000001  -0.000000   0.000011  -0.000019   0.035753  -0.000655
    24  H    0.013705  -0.000211  -0.001870   0.013651   0.000201   0.000031
    25  H   -0.076995  -0.013777   0.014490  -0.001985   0.000001  -0.000002
    26  H   -0.018922   0.392103  -0.008645   0.000760   0.000000  -0.000000
    27  H   -0.018846   0.392161   0.007519  -0.000557   0.000000   0.000000
    28  H   -0.011505   0.389733  -0.003536  -0.000200  -0.000000  -0.000000
    29  H   -0.075705  -0.013569   0.460242  -0.066357  -0.000005  -0.000000
    30  H    0.014104  -0.000241  -0.047081   0.449864   0.005901   0.000034
              19         20         21         22         23         24
     1  O   -0.000024  -0.000000   0.000000   0.000000   0.000362   0.018217
     2  S   -0.000126   0.000004   0.000000   0.000001  -0.009543  -0.012651
     3  N   -0.009478  -0.000112   0.000011  -0.000108  -0.013559   0.000675
     4  C   -0.081205   0.015549  -0.001414   0.015279  -0.069915  -0.000073
     5  C    0.450880  -0.069512   0.014400  -0.001963   0.013385   0.000002
     6  C   -0.059385   0.453980  -0.070455   0.014156  -0.002247   0.000000
     7  C    0.014856  -0.069227   0.451561  -0.074453   0.013757  -0.000000
     8  C   -0.002218   0.013823  -0.067786   0.457833  -0.052874   0.000000
     9  C    0.016853  -0.001910   0.014688  -0.067503   0.451905   0.000002
    10  C   -0.000004  -0.000000   0.000000  -0.000000   0.001089  -0.068164
    11  C   -0.000006   0.000000   0.000000   0.000000  -0.000072   0.446394
    12  C   -0.000000   0.000000   0.000000  -0.000000  -0.000002  -0.052693
    13  C    0.000000  -0.000000   0.000000   0.000000   0.000001   0.013705
    14  C   -0.000000  -0.000000   0.000000  -0.000000  -0.000000  -0.000211
    15  C    0.000001   0.000000   0.000000   0.000000   0.000011  -0.001870
    16  C    0.000020  -0.000000   0.000000   0.000000  -0.000019   0.013651
    17  O    0.000005  -0.000000   0.000000   0.000021   0.035753   0.000201
    18  H    0.003089  -0.000024  -0.000001   0.000012  -0.000655   0.000031
    19  H    0.687356  -0.013178  -0.000233   0.000023  -0.000086  -0.000001
    20  H   -0.013178   0.668668  -0.012388  -0.000259   0.000011   0.000000
    21  H   -0.000233  -0.012388   0.673525  -0.012021  -0.000189  -0.000000
    22  H    0.000023  -0.000259  -0.012021   0.665758  -0.012742  -0.000000
    23  H   -0.000086   0.000011  -0.000189  -0.012742   0.604965  -0.000009
    24  H   -0.000001   0.000000  -0.000000  -0.000000  -0.000009   0.620062
    25  H    0.000000   0.000000  -0.000000  -0.000000  -0.000000  -0.011221
    26  H   -0.000000  -0.000000   0.000000  -0.000000  -0.000000   0.000007
    27  H   -0.000000   0.000000  -0.000000  -0.000000  -0.000000  -0.000004
    28  H    0.000000   0.000000  -0.000000   0.000000   0.000000   0.000005
    29  H   -0.000000   0.000000  -0.000000  -0.000000  -0.000001   0.000021
    30  H   -0.000007  -0.000000  -0.000000   0.000001  -0.000205  -0.000226
              25         26         27         28         29         30
     1  O   -0.000009   0.000000   0.000000   0.000000   0.000000   0.000193
     2  S   -0.000158  -0.000000  -0.000000  -0.000000  -0.000156  -0.005697
     3  N    0.000004  -0.000000  -0.000000   0.000000   0.000002   0.001040
     4  C   -0.000000   0.000000  -0.000000  -0.000000  -0.000002   0.000378
     5  C    0.000000   0.000000   0.000000   0.000000   0.000000  -0.000015
     6  C    0.000000  -0.000000  -0.000000   0.000000   0.000000  -0.000002
     7  C    0.000000   0.000000  -0.000000  -0.000000   0.000000  -0.000005
     8  C   -0.000000  -0.000000  -0.000000  -0.000000  -0.000000   0.000033
     9  C    0.000000   0.000000   0.000000  -0.000000   0.000000   0.000210
    10  C    0.016754   0.000027   0.000025   0.000068   0.016246  -0.081151
    11  C   -0.066537  -0.000547   0.000809  -0.000273  -0.002053   0.011971
    12  C    0.460872   0.007397  -0.008911  -0.003453   0.014623  -0.001423
    13  C   -0.076995  -0.018922  -0.018846  -0.011505  -0.075705   0.014104
    14  C   -0.013777   0.392103   0.392161   0.389733  -0.013569  -0.000241
    15  C    0.014490  -0.008645   0.007519  -0.003536   0.460242  -0.047081
    16  C   -0.001985   0.000760  -0.000557  -0.000200  -0.066357   0.449864
    17  O    0.000001   0.000000   0.000000  -0.000000  -0.000005   0.005901
    18  H   -0.000002  -0.000000   0.000000  -0.000000  -0.000000   0.000034
    19  H    0.000000  -0.000000  -0.000000   0.000000  -0.000000  -0.000007
    20  H    0.000000  -0.000000   0.000000   0.000000   0.000000  -0.000000
    21  H   -0.000000   0.000000  -0.000000  -0.000000  -0.000000  -0.000000
    22  H   -0.000000  -0.000000  -0.000000   0.000000  -0.000000   0.000001
    23  H   -0.000000  -0.000000  -0.000000   0.000000  -0.000001  -0.000205
    24  H   -0.011221   0.000007  -0.000004   0.000005   0.000021  -0.000226
    25  H    0.666157   0.000166   0.004511   0.000717  -0.000224   0.000024
    26  H    0.000166   0.620538  -0.022425  -0.017135   0.004461  -0.000001
    27  H    0.004511  -0.022425   0.620584  -0.017119   0.000154   0.000008
    28  H    0.000717  -0.017135  -0.017119   0.596617   0.000722   0.000004
    29  H   -0.000224   0.004461   0.000154   0.000722   0.665319  -0.011838
    30  H    0.000024  -0.000001   0.000008   0.000004  -0.011838   0.640137
 Mulliken charges:
               1
     1  O   -0.481507
     2  S    0.937896
     3  N   -0.297128
     4  C    0.127417
     5  C   -0.050034
     6  C   -0.006525
     7  C   -0.011043
     8  C   -0.004522
     9  C   -0.070764
    10  C   -0.092680
    11  C   -0.000339
    12  C   -0.024778
    13  C   -0.077168
    14  C    0.030566
    15  C   -0.031868
    16  C    0.044576
    17  O   -0.454411
    18  H    0.164591
    19  H   -0.007132
    20  H    0.014576
    21  H    0.010300
    22  H    0.015964
    23  H    0.040881
    24  H    0.034151
    25  H    0.007212
    26  H    0.042217
    27  H    0.042092
    28  H    0.065356
    29  H    0.008119
    30  H    0.023988
 Sum of Mulliken charges =  -0.00000
 Mulliken charges with hydrogens summed into heavy atoms:
               1
     1  O   -0.481507
     2  S    0.937896
     3  N   -0.132537
     4  C    0.127417
     5  C   -0.057166
     6  C    0.008050
     7  C   -0.000743
     8  C    0.011442
     9  C   -0.029884
    10  C   -0.092680
    11  C    0.033812
    12  C   -0.017566
    13  C   -0.077168
    14  C    0.180230
    15  C   -0.023749
    16  C    0.068564
    17  O   -0.454411
 Electronic spatial extent (au):  <R**2>=           5411.8049
 Charge=             -0.0000 electrons
 Dipole moment (field-independent basis, Debye):
    X=              2.2070    Y=             -3.4088    Z=             -1.6338  Tot=              4.3773
 Quadrupole moment (field-independent basis, Debye-Ang):
   XX=            -86.5296   YY=           -112.8544   ZZ=           -103.7892
   XY=             -0.3109   XZ=             -0.1776   YZ=             -1.7950
 Traceless Quadrupole moment (field-independent basis, Debye-Ang):
   XX=             14.5281   YY=            -11.7966   ZZ=             -2.7315
   XY=             -0.3109   XZ=             -0.1776   YZ=             -1.7950
 Octapole moment (field-independent basis, Debye-Ang**2):
  XXX=             44.1856  YYY=             -8.1916  ZZZ=            -11.1432  XYY=             15.5582
  XXY=            -22.7253  XXZ=             -0.6710  XZZ=            -10.8155  YZZ=             -2.7030
  YYZ=              4.5623  XYZ=            -13.3899
 Hexadecapole moment (field-independent basis, Debye-Ang**3):
 XXXX=          -5314.6253 YYYY=          -1037.7400 ZZZZ=           -529.8817 XXXY=             36.6320
 XXXZ=            -76.8951 YYYX=            -35.2012 YYYZ=              9.6878 ZZZX=             -1.2644
 ZZZY=             -3.4041 XXYY=          -1100.3088 XXZZ=          -1020.6202 YYZZ=           -259.3196
 XXYZ=              1.2794 YYXZ=             19.7782 ZZXY=             10.5722
 N-N= 1.295630175374D+03 E-N=-5.180011909687D+03  KE= 1.097912371482D+03
   1 Symmetry operations used in ECPInt.
 ECPInt:  NShTT=   10296 NPrTT=   38220 LenC2=    9246 LenP2D=   24233.
 LDataN:  DoStor=T MaxTD1= 5 Len=  102
 Calling FoFJK, ICntrl=      2127 FMM=F ISym2X=0 I1Cent= 0 IOpClX= 0 NMat=1 NMatS=1 NMatT=0.
 ***** Axes restored to original set *****
 -------------------------------------------------------------------
 Center     Atomic                   Forces (Hartrees/Bohr)
 Number     Number              X              Y              Z
 -------------------------------------------------------------------
      1        8           0.009418305   -0.033079488   -0.039152204
      2       16          -0.032615185    0.033327998   -0.002980857
      3        7          -0.001215612    0.018927891   -0.029361247
      4        6           0.028944881   -0.009134663   -0.005190420
      5        6          -0.014580835    0.006390940    0.000838993
      6        6           0.003335534   -0.000623541   -0.001033982
      7        6           0.007443651   -0.001851162   -0.002810792
      8        6           0.004937248   -0.005316275    0.002985084
      9        6          -0.012678960    0.002219007    0.002485095
     10        6           0.008757270    0.012415928    0.002774036
     11        6          -0.001052332    0.009856216    0.007156420
     12        6           0.001316129   -0.002725613   -0.001854978
     13        6          -0.005241191    0.000503111    0.000006985
     14        6          -0.001889043   -0.004247441    0.002887111
     15        6           0.003522021    0.002003142    0.001129402
     16        6           0.004497068   -0.006433054   -0.009821128
     17        8          -0.008035089   -0.010448599    0.054388905
     18        1           0.000609633   -0.002125620    0.021145310
     19        1          -0.004002299   -0.005045683    0.011446829
     20        1           0.004954306   -0.006283987    0.006725296
     21        1           0.009885798   -0.002936620   -0.002653330
     22        1           0.002644697    0.004182119   -0.008940829
     23        1          -0.000189163    0.004229707   -0.006737011
     24        1           0.000903547    0.008237619    0.006420541
     25        1          -0.008170415    0.004354630    0.007257585
     26        1          -0.000201786   -0.005819723   -0.002363706
     27        1          -0.004176937    0.000933152    0.004522786
     28        1          -0.004760896    0.002685739   -0.005418815
     29        1           0.000162410   -0.009408863   -0.007062780
     30        1           0.007477243   -0.004786865   -0.006788301
 -------------------------------------------------------------------
 Cartesian Forces:  Max     0.054388905 RMS     0.012049024

 GradGradGradGradGradGradGradGradGradGradGradGradGradGradGradGradGradGrad
 Berny optimization.
 FormGI is forming the generalized inverse of G from B-inverse, IUseBI=4.
 Internal  Forces:  Max     0.057853750 RMS     0.010722102
 Search for a local minimum.
 Step number   1 out of a maximum of  162
 All quantities printed in internal units (Hartrees-Bohrs-Radians)
 Mixed Optimization -- RFO/linear search
 Second derivative matrix not updated -- first step.
 ITU=  0
     Eigenvalues ---    0.00424   0.00927   0.01182   0.01609   0.01744
     Eigenvalues ---    0.01746   0.01992   0.02131   0.02239   0.02268
     Eigenvalues ---    0.02269   0.02300   0.02308   0.02338   0.02348
     Eigenvalues ---    0.02348   0.02370   0.02386   0.02387   0.02394
     Eigenvalues ---    0.02397   0.02423   0.03023   0.07313   0.07341
     Eigenvalues ---    0.09986   0.11571   0.12135   0.12908   0.16000
     Eigenvalues ---    0.16000   0.16000   0.16000   0.16000   0.16000
     Eigenvalues ---    0.16000   0.16000   0.16000   0.16000   0.16000
     Eigenvalues ---    0.16000   0.17275   0.22000   0.22000   0.22000
     Eigenvalues ---    0.22977   0.23211   0.23458   0.23996   0.24984
     Eigenvalues ---    0.24997   0.25000   0.25000   0.26437   0.33687
     Eigenvalues ---    0.34774   0.34776   0.34782   0.34872   0.36260
     Eigenvalues ---    0.36277   0.36288   0.36293   0.36297   0.36442
     Eigenvalues ---    0.36443   0.36512   0.36738   0.42536   0.43412
     Eigenvalues ---    0.44022   0.44265   0.46311   0.47058   0.47800
     Eigenvalues ---    0.47959   0.48054   0.49071   0.49251   0.49301
     Eigenvalues ---    0.50058   0.50121   0.76085   0.76424
 RFO step:  Lambda=-4.35111467D-02 EMin= 4.23665299D-03
 Linear search not attempted -- first point.
 Maximum step size (   0.300) exceeded in Quadratic search.
    -- Step size scaled by   0.883
 Iteration  1 RMS(Cart)=  0.17500013 RMS(Int)=  0.00576089
 Iteration  2 RMS(Cart)=  0.01753044 RMS(Int)=  0.00061902
 Iteration  3 RMS(Cart)=  0.00021493 RMS(Int)=  0.00061546
 Iteration  4 RMS(Cart)=  0.00000017 RMS(Int)=  0.00061546
 Variable       Old X    -DE/DX   Delta X   Delta X   Delta X     New X
                                 (Linear)    (Quad)   (Total)
    R1        2.83798  -0.05165   0.00000  -0.05669  -0.05669   2.78129
    R2        3.22883   0.00842   0.00000   0.01895   0.01895   3.24778
    R3        3.39388  -0.00454   0.00000  -0.01301  -0.01301   3.38088
    R4        2.83603  -0.05563   0.00000  -0.06080  -0.06080   2.77523
    R5        2.63783   0.03247   0.00000   0.05658   0.05658   2.69441
    R6        1.88682   0.02008   0.00000   0.03390   0.03390   1.92072
    R7        2.64631   0.00494   0.00000   0.00808   0.00807   2.65438
    R8        2.64569   0.00749   0.00000   0.01296   0.01296   2.65865
    R9        2.59859   0.01569   0.00000   0.02514   0.02513   2.62372
   R10        2.03289   0.01309   0.00000   0.02827   0.02827   2.06116
   R11        2.60886   0.01082   0.00000   0.01818   0.01818   2.62704
   R12        2.03634   0.01040   0.00000   0.02260   0.02260   2.05894
   R13        2.60828   0.01221   0.00000   0.02081   0.02082   2.62910
   R14        2.03620   0.01064   0.00000   0.02311   0.02311   2.05931
   R15        2.59640   0.01992   0.00000   0.03257   0.03258   2.62898
   R16        2.03650   0.01013   0.00000   0.02201   0.02201   2.05851
   R17        2.02942   0.00656   0.00000   0.01408   0.01408   2.04351
   R18        2.59635   0.01641   0.00000   0.02700   0.02701   2.62335
   R19        2.59616   0.01956   0.00000   0.03206   0.03206   2.62822
   R20        2.60806   0.01300   0.00000   0.02152   0.02152   2.62958
   R21        2.03678   0.01047   0.00000   0.02277   0.02277   2.05954
   R22        2.62208   0.01378   0.00000   0.02289   0.02289   2.64496
   R23        2.03394   0.01169   0.00000   0.02529   0.02529   2.05923
   R24        2.81162   0.01276   0.00000   0.02962   0.02962   2.84124
   R25        2.62220   0.01620   0.00000   0.02698   0.02698   2.64917
   R26        2.06043   0.00612   0.00000   0.01381   0.01381   2.07424
   R27        2.06040   0.00606   0.00000   0.01368   0.01368   2.07407
   R28        2.06031   0.00767   0.00000   0.01731   0.01731   2.07762
   R29        2.60822   0.00968   0.00000   0.01597   0.01597   2.62419
   R30        2.03396   0.01167   0.00000   0.02526   0.02526   2.05923
   R31        2.03625   0.01100   0.00000   0.02390   0.02390   2.06015
    A1        1.84850  -0.00346   0.00000  -0.01390  -0.01570   1.83279
    A2        1.87564  -0.00041   0.00000   0.01249   0.01250   1.88813
    A3        2.13226  -0.00171   0.00000  -0.02721  -0.02865   2.10361
    A4        1.67461   0.02083   0.00000   0.07871   0.07846   1.75308
    A5        2.02489  -0.00872   0.00000  -0.03549  -0.03741   1.98748
    A6        1.84722  -0.00007   0.00000   0.01747   0.01825   1.86548
    A7        2.10126   0.05785   0.00000   0.19127   0.18999   2.29126
    A8        1.78255  -0.01404   0.00000  -0.02048  -0.02135   1.76120
    A9        2.00954  -0.02091   0.00000  -0.06606  -0.06975   1.93979
   A10        2.07651  -0.02576   0.00000  -0.07675  -0.07676   1.99976
   A11        2.15677   0.02413   0.00000   0.07334   0.07330   2.23007
   A12        2.04979   0.00162   0.00000   0.00322   0.00319   2.05298
   A13        2.11374   0.00283   0.00000   0.00759   0.00757   2.12131
   A14        2.06883  -0.00027   0.00000   0.00116   0.00117   2.07000
   A15        2.10061  -0.00256   0.00000  -0.00874  -0.00874   2.09188
   A16        2.09815   0.00044   0.00000   0.00138   0.00138   2.09953
   A17        2.09266  -0.00127   0.00000  -0.00527  -0.00527   2.08739
   A18        2.09238   0.00084   0.00000   0.00389   0.00389   2.09626
   A19        2.09156  -0.00540   0.00000  -0.01621  -0.01620   2.07536
   A20        2.09603   0.00230   0.00000   0.00636   0.00636   2.10239
   A21        2.09560   0.00310   0.00000   0.00984   0.00984   2.10544
   A22        2.09671   0.00494   0.00000   0.01859   0.01861   2.11532
   A23        2.09369  -0.00108   0.00000  -0.00329  -0.00330   2.09039
   A24        2.09278  -0.00385   0.00000  -0.01530  -0.01531   2.07747
   A25        2.11641  -0.00443   0.00000  -0.01458  -0.01457   2.10184
   A26        2.07158   0.00679   0.00000   0.02714   0.02713   2.09872
   A27        2.09517  -0.00236   0.00000  -0.01254  -0.01255   2.08262
   A28        2.09236  -0.00231   0.00000  -0.00787  -0.00788   2.08449
   A29        2.09004  -0.00152   0.00000  -0.00551  -0.00552   2.08452
   A30        2.10078   0.00383   0.00000   0.01337   0.01337   2.11415
   A31        2.09316  -0.00413   0.00000  -0.01260  -0.01260   2.08055
   A32        2.07792   0.00253   0.00000   0.00833   0.00833   2.08625
   A33        2.11211   0.00160   0.00000   0.00428   0.00428   2.11638
   A34        2.10371   0.00232   0.00000   0.00712   0.00712   2.11083
   A35        2.09624  -0.00244   0.00000  -0.00910  -0.00910   2.08714
   A36        2.08323   0.00012   0.00000   0.00198   0.00199   2.08521
   A37        2.10542   0.00042   0.00000   0.00206   0.00206   2.10748
   A38        2.07184  -0.00044   0.00000  -0.00280  -0.00281   2.06903
   A39        2.10539   0.00002   0.00000   0.00086   0.00086   2.10625
   A40        1.93982   0.00113   0.00000   0.00562   0.00560   1.94542
   A41        1.93981   0.00108   0.00000   0.00542   0.00540   1.94521
   A42        1.93291   0.00007   0.00000  -0.00110  -0.00110   1.93181
   A43        1.87874  -0.00011   0.00000   0.00221   0.00217   1.88091
   A44        1.88500  -0.00117   0.00000  -0.00643  -0.00643   1.87857
   A45        1.88528  -0.00114   0.00000  -0.00627  -0.00627   1.87900
   A46        2.10499   0.00233   0.00000   0.00699   0.00699   2.11198
   A47        2.08240   0.00021   0.00000   0.00247   0.00248   2.08487
   A48        2.09579  -0.00254   0.00000  -0.00946  -0.00946   2.08633
   A49        2.09182  -0.00391   0.00000  -0.01204  -0.01204   2.07978
   A50        2.08184   0.00396   0.00000   0.01472   0.01472   2.09655
   A51        2.10951  -0.00005   0.00000  -0.00266  -0.00267   2.10685
    D1       -1.96130   0.00767   0.00000   0.04981   0.04753  -1.91376
    D2        0.29083   0.00926   0.00000   0.08338   0.08433   0.37516
    D3        2.40046   0.00174   0.00000   0.01265   0.01060   2.41106
    D4       -1.63060   0.00332   0.00000   0.04622   0.04740  -1.58320
    D5        0.46547  -0.00729   0.00000  -0.04116  -0.04168   0.42379
    D6        2.71760  -0.00571   0.00000  -0.00759  -0.00488   2.71271
    D7        0.07835  -0.00230   0.00000  -0.01444  -0.01489   0.06345
    D8       -3.06521  -0.00267   0.00000  -0.01998  -0.02040  -3.08560
    D9        1.97670   0.00157   0.00000   0.00234   0.00207   1.97878
   D10       -1.16685   0.00119   0.00000  -0.00320  -0.00343  -1.17028
   D11       -2.22591   0.00015   0.00000  -0.00082  -0.00016  -2.22607
   D12        0.91372  -0.00023   0.00000  -0.00636  -0.00566   0.90806
   D13        2.88908   0.00515   0.00000   0.02571   0.02414   2.91322
   D14       -0.26883   0.00415   0.00000   0.01164   0.01005  -0.25879
   D15        0.74262  -0.00730   0.00000  -0.05722  -0.05563   0.68700
   D16       -2.41529  -0.00830   0.00000  -0.07129  -0.06972  -2.48500
   D17        3.13107  -0.00038   0.00000  -0.00791  -0.00733   3.12374
   D18       -0.00643  -0.00046   0.00000  -0.00854  -0.00805  -0.01447
   D19        0.00480   0.00032   0.00000   0.00457   0.00448   0.00928
   D20       -3.13270   0.00025   0.00000   0.00395   0.00376  -3.12894
   D21       -3.13038   0.00114   0.00000   0.01330   0.01383  -3.11655
   D22        0.01750   0.00090   0.00000   0.01045   0.01083   0.02834
   D23       -0.00487  -0.00009   0.00000  -0.00128  -0.00130  -0.00617
   D24       -3.14018  -0.00033   0.00000  -0.00413  -0.00430   3.13871
   D25       -0.00192  -0.00028   0.00000  -0.00421  -0.00409  -0.00600
   D26        3.13977  -0.00013   0.00000  -0.00181  -0.00180   3.13796
   D27        3.13550  -0.00019   0.00000  -0.00355  -0.00333   3.13217
   D28       -0.00600  -0.00005   0.00000  -0.00115  -0.00105  -0.00705
   D29       -0.00108   0.00003   0.00000   0.00051   0.00047  -0.00060
   D30        3.14029   0.00009   0.00000   0.00142   0.00136  -3.14154
   D31        3.14043  -0.00012   0.00000  -0.00188  -0.00182   3.13861
   D32       -0.00140  -0.00006   0.00000  -0.00098  -0.00093  -0.00233
   D33        0.00101   0.00018   0.00000   0.00270   0.00263   0.00364
   D34        3.14075   0.00006   0.00000   0.00074   0.00076   3.14151
   D35       -3.14036   0.00012   0.00000   0.00179   0.00174  -3.13861
   D36       -0.00061   0.00000   0.00000  -0.00016  -0.00013  -0.00074
   D37        0.00206  -0.00015   0.00000  -0.00229  -0.00221  -0.00015
   D38        3.13728   0.00012   0.00000   0.00074   0.00090   3.13818
   D39       -3.13769  -0.00004   0.00000  -0.00035  -0.00037  -3.13805
   D40       -0.00247   0.00024   0.00000   0.00268   0.00274   0.00028
   D41       -3.14117  -0.00006   0.00000  -0.00105  -0.00105   3.14096
   D42        0.00422  -0.00032   0.00000  -0.00461  -0.00462  -0.00040
   D43        0.00239   0.00033   0.00000   0.00455   0.00457   0.00696
   D44       -3.13541   0.00006   0.00000   0.00098   0.00100  -3.13440
   D45        3.14129   0.00001   0.00000   0.00048   0.00049  -3.14141
   D46       -0.00676   0.00033   0.00000   0.00471   0.00474  -0.00202
   D47       -0.00227  -0.00037   0.00000  -0.00511  -0.00514  -0.00741
   D48        3.13287  -0.00006   0.00000  -0.00088  -0.00089   3.13198
   D49        0.00520  -0.00029   0.00000  -0.00407  -0.00407   0.00113
   D50       -3.13330  -0.00036   0.00000  -0.00486  -0.00486  -3.13815
   D51       -3.14026  -0.00002   0.00000  -0.00043  -0.00043  -3.14069
   D52        0.00443  -0.00009   0.00000  -0.00122  -0.00122   0.00321
   D53       -3.11925   0.00004   0.00000   0.00037   0.00037  -3.11888
   D54       -0.01265   0.00031   0.00000   0.00418   0.00418  -0.00847
   D55        0.01927   0.00010   0.00000   0.00113   0.00114   0.02040
   D56        3.12587   0.00037   0.00000   0.00495   0.00495   3.13082
   D57       -2.62795  -0.00052   0.00000  -0.00288  -0.00290  -2.63085
   D58       -0.53587   0.00082   0.00000   0.00729   0.00731  -0.52856
   D59        1.55985   0.00015   0.00000   0.00224   0.00224   1.56209
   D60        0.54931  -0.00079   0.00000  -0.00670  -0.00672   0.54259
   D61        2.64140   0.00056   0.00000   0.00347   0.00348   2.64488
   D62       -1.54607  -0.00011   0.00000  -0.00158  -0.00158  -1.54765
   D63        0.01278  -0.00035   0.00000  -0.00476  -0.00476   0.00802
   D64       -3.12502  -0.00040   0.00000  -0.00536  -0.00536  -3.13038
   D65        3.11938  -0.00007   0.00000  -0.00092  -0.00093   3.11845
   D66       -0.01842  -0.00013   0.00000  -0.00152  -0.00153  -0.01995
   D67       -0.00545   0.00038   0.00000   0.00523   0.00522  -0.00023
   D68       -3.14048   0.00005   0.00000   0.00086   0.00087  -3.13960
   D69        3.13233   0.00044   0.00000   0.00586   0.00584   3.13817
   D70       -0.00270   0.00011   0.00000   0.00149   0.00150  -0.00120
         Item               Value     Threshold  Converged?
 Maximum Force            0.057854     0.000450     NO 
 RMS     Force            0.010722     0.000300     NO 
 Maximum Displacement     0.733401     0.001800     NO 
 RMS     Displacement     0.186104     0.001200     NO 
 Predicted change in Energy=-2.390492D-02
 GradGradGradGradGradGradGradGradGradGradGradGradGradGradGradGradGradGrad

                          Input orientation:                          
 ---------------------------------------------------------------------
 Center     Atomic      Atomic             Coordinates (Angstroms)
 Number     Number       Type             X           Y           Z
 ---------------------------------------------------------------------
      1          8           0       -0.158214    2.309779    1.124532
      2         16           0       -0.089247    1.330880    0.027634
      3          7           0        0.964370    0.098096    0.596756
      4          6           0        2.287898   -0.261898    0.207345
      5          6           0        2.938844   -1.138483    1.091016
      6          6           0        4.224655   -1.599039    0.841484
      7          6           0        4.901010   -1.202748   -0.306591
      8          6           0        4.267861   -0.340888   -1.196491
      9          6           0        2.981085    0.128527   -0.953009
     10          6           0       -1.638146    0.436803   -0.020917
     11          6           0       -2.659932    0.794726    0.847986
     12          6           0       -3.862945    0.096668    0.805686
     13          6           0       -4.052534   -0.956491   -0.096502
     14          6           0       -5.364156   -1.688862   -0.158558
     15          6           0       -3.005689   -1.289057   -0.967588
     16          6           0       -1.801056   -0.599016   -0.934618
     17          8           0        0.194216    1.767878   -1.345479
     18          1           0        0.904108    0.242083    1.601100
     19          1           0        2.411421   -1.460968    1.989623
     20          1           0        4.700945   -2.275677    1.550296
     21          1           0        5.910266   -1.562637   -0.505121
     22          1           0        4.784899   -0.021329   -2.100460
     23          1           0        2.518929    0.799905   -1.663673
     24          1           0       -2.506402    1.615041    1.548924
     25          1           0       -4.670288    0.374559    1.482751
     26          1           0       -5.228108   -2.729963   -0.478584
     27          1           0       -5.863524   -1.701399    0.818732
     28          1           0       -6.044765   -1.206518   -0.874697
     29          1           0       -3.141099   -2.099592   -1.683222
     30          1           0       -0.990792   -0.860462   -1.615512
 ---------------------------------------------------------------------
                    Distance matrix (angstroms):
                    1          2          3          4          5
     1  O    0.000000
     2  S    1.471796   0.000000
     3  N    2.535800   1.718652   0.000000
     4  C    3.665816   2.867063   1.425819   0.000000
     5  C    4.635019   4.049428   2.381590   1.404638   0.000000
     6  C    5.879500   5.277928   3.683697   2.437439   1.388412
     7  C    6.323109   5.606571   4.243273   2.824480   2.409882
     8  C    5.657148   4.824695   3.784375   2.428426   2.763174
     9  C    4.350773   3.440094   2.543587   1.406898   2.405231
    10  C    2.647695   1.789084   2.696170   3.994259   4.966564
    11  C    2.937764   2.751157   3.699186   5.099794   5.928124
    12  C    4.327188   4.045917   4.831835   6.190270   6.918912
    13  C    5.227348   4.577677   5.173209   6.385597   7.093849
    14  C    6.688593   6.080968   6.619212   7.792563   8.414521
    15  C    5.043481   4.044771   4.486952   5.518839   6.292694
    16  C    3.924298   2.753311   3.237075   4.258787   5.182748
    17  O    2.553197   1.468591   2.674619   3.303749   4.681499
    18  H    2.372975   2.155928   1.016401   2.027665   2.511235
    19  H    4.644344   4.230502   2.542580   2.151636   1.090718
    20  H    6.694707   6.186411   4.528358   3.417838   2.146892
    21  H    7.380908   6.682097   5.332359   3.914215   3.399545
    22  H    6.345786   5.487673   4.678213   3.408644   3.852463
    23  H    4.149807   3.153575   2.831736   2.163680   3.394406
    24  H    2.485309   2.870141   3.905638   5.320530   6.119010
    25  H    4.922623   4.900802   5.710586   7.102682   7.767989
    26  H    7.326172   6.569216   6.892101   7.940541   8.467323
    27  H    6.980947   6.569843   7.064531   8.300098   8.824551
    28  H    7.142320   6.536114   7.279778   8.455554   9.196406
    29  H    6.018608   4.899895   5.184883   6.035344   6.751729
    30  H    4.272172   2.883521   3.104130   3.798801   4.779606
                    6          7          8          9         10
     6  C    0.000000
     7  C    1.390172   0.000000
     8  C    2.395444   1.391259   0.000000
     9  C    2.784091   2.424101   1.391197   0.000000
    10  C    6.265846   6.747615   6.071878   4.722406   0.000000
    11  C    7.288875   7.905113   7.311897   5.958899   1.388218
    12  C    8.263533   8.929309   8.385116   7.066453   2.397644
    13  C    8.354912   8.959394   8.415338   7.168170   2.788593
    14  C    9.641237  10.277736   9.781109   8.577709   4.291917
    15  C    7.459673   7.934751   7.338662   6.152334   2.396863
    16  C    6.361115   6.758447   6.080046   4.837202   1.390795
    17  O    5.688882   5.661963   4.589518   3.257014   2.623695
    18  H    3.872052   4.658546   4.413752   3.293965   3.021905
    19  H    2.150606   3.396665   3.853864   3.392653   4.903345
    20  H    1.089543   2.153887   3.387596   3.873584   7.071798
    21  H    2.157765   1.089739   2.160591   3.411853   7.823729
    22  H    3.384978   2.151092   1.089315   2.143093   6.766823
    23  H    3.865262   3.395085   2.139727   1.081379   4.484614
    24  H    7.492524   8.139572   7.566611   6.211433   2.146279
    25  H    9.133802   9.864046   9.358457   8.033490   3.385082
    26  H    9.611259  10.245048   9.818172   8.705566   4.808918
    27  H   10.088724  10.834676  10.419073   9.204064   4.809443
    28  H   10.419229  10.960509  10.353894   9.124387   4.779930
    29  H    7.802502   8.208226   7.630376   6.555827   3.384587
    30  H    5.812333   6.045144   5.300846   4.146421   2.155156
                   11         12         13         14         15
    11  C    0.000000
    12  C    1.391515   0.000000
    13  C    2.428613   1.399655   0.000000
    14  C    3.807120   2.524187   1.503519   0.000000
    15  C    2.785320   2.408241   1.401883   2.525221   0.000000
    16  C    2.420302   2.786400   2.428864   3.806010   1.388663
    17  O    3.728871   4.886820   5.197790   6.652318   4.441514
    18  H    3.684423   4.835144   5.374638   6.790882   4.922302
    19  H    5.666578   6.572336   6.810956   8.070081   6.174118
    20  H    8.006443   8.917548   9.004198  10.225986   8.167336
    21  H    8.990904   9.999357   9.989582  11.280453   8.932131
    22  H    8.048900   9.123860   9.109918  10.466851   7.973945
    23  H    5.755785   6.878997   6.980335   8.402521   5.947243
    24  H    1.089863   2.167502   3.422094   4.690205   3.875036
    25  H    2.149651   1.089699   2.155773   2.726363   3.397451
    26  H    4.558371   3.391587   2.161750   1.097641   2.693414
    27  H    4.061342   2.689895   2.161533   1.097553   3.395318
    28  H    4.292983   3.046690   2.153389   1.099427   3.041615
    29  H    3.874999   3.396952   2.157562   2.726771   1.089695
    30  H    3.405070   3.876541   3.419193   4.683511   2.159470
                   16         17         18         19         20
    16  C    0.000000
    17  O    3.122836   0.000000
    18  H    3.802003   3.393277   0.000000
    19  H    5.199914   5.144351   2.307233   0.000000
    20  H    7.159749   6.711666   4.556058   2.469551   0.000000
    21  H    7.783156   6.668715   5.723181   4.298371   2.489100
    22  H    6.713249   4.984539   5.369495   4.943150   4.291521
    23  H    4.598997   2.538210   3.684774   4.297636   4.954795
    24  H    3.401109   3.961599   3.676862   5.817304   8.190454
    25  H    3.876083   5.796864   5.577226   7.333258   9.739011
    26  H    4.061230   7.098146   7.124760   8.128025  10.144399
    27  H    4.559949   7.308619   7.084494   8.360831  10.605328
    28  H    4.287390   6.927738   7.517636   8.931749  11.067699
    29  H    2.146591   5.118176   5.712610   6.687907   8.484356
[...]
     3  N    0.000974   0.005942  -0.019545  -0.061448   0.000036  -0.001189
     4  C   -0.112024   0.025708   0.363643   0.045012   0.001025   0.000250
     5  C    0.035572  -0.098009   0.057852  -0.000171  -0.001914   0.000794
     6  C    0.439091   0.022553  -0.090396  -0.001762  -0.000680  -0.000051
     7  C    4.963726   0.413193   0.048678  -0.000158  -0.000059   0.000020
     8  C    0.413193   4.971000   0.385917  -0.000068   0.000171  -0.000008
     9  C    0.048678   0.385917   5.133507   0.003468   0.000326   0.000048
    10  C   -0.000158  -0.000068   0.003468   5.294025   0.368097   0.015624
    11  C   -0.000059   0.000171   0.000326   0.368097   5.106095   0.404495
    12  C    0.000020  -0.000008   0.000048   0.015624   0.404495   5.063001
    13  C    0.000042  -0.000039   0.000218  -0.090532   0.016255   0.432121
    14  C   -0.000001  -0.000001   0.000006  -0.004307   0.013129  -0.073388
    15  C   -0.000195   0.000433  -0.002489   0.049811  -0.046392  -0.014083
    16  C   -0.000705  -0.001266   0.000867   0.316265  -0.069593  -0.050389
    17  O    0.000128  -0.001111  -0.003467  -0.078723   0.006937  -0.000265
    18  H    0.000136  -0.000720   0.004523  -0.000736   0.000145  -0.000166
    19  H    0.010391  -0.003894   0.012038   0.000787   0.000380   0.000310
    20  H   -0.057144   0.010719  -0.003858   0.000005  -0.000001  -0.000003
    21  H    0.443934  -0.056275   0.011297   0.000004  -0.000000   0.000000
    22  H   -0.058354   0.446325  -0.057682  -0.000016   0.000001  -0.000000
    23  H    0.010215  -0.048919   0.434636   0.001828  -0.000172   0.000007
    24  H   -0.000003   0.000007  -0.000018  -0.045628   0.432623  -0.048538
    25  H   -0.000000   0.000000  -0.000002   0.011288  -0.048899   0.443240
    26  H   -0.000000   0.000000   0.000000   0.000054  -0.000637   0.006966
    27  H    0.000000  -0.000000   0.000000   0.000066   0.001939  -0.006517
    28  H    0.000000   0.000000  -0.000000   0.000161  -0.000661  -0.004577
    29  H    0.000008   0.000057  -0.000101   0.010708  -0.003657   0.012783
    30  H    0.000105   0.000351   0.000013  -0.046333   0.008176  -0.002425
              13         14         15         16         17         18
     1  O    0.000166   0.000001  -0.000587   0.008738  -0.043928   0.004369
     2  S   -0.000535   0.000005   0.004868  -0.016548   0.565031  -0.016602
     3  N    0.000226  -0.000004   0.000051   0.006355  -0.050073   0.365621
     4  C   -0.000717   0.000007   0.001885  -0.002548  -0.007684  -0.051467
     5  C   -0.000463   0.000009  -0.000561  -0.014249   0.001074   0.008837
     6  C    0.000056  -0.000016   0.002006   0.001200   0.000101   0.001087
     7  C    0.000042  -0.000001  -0.000195  -0.000705   0.000128   0.000136
     8  C   -0.000039  -0.000001   0.000433  -0.001266  -0.001111  -0.000720
     9  C    0.000218   0.000006  -0.002489   0.000867  -0.003467   0.004523
    10  C   -0.090532  -0.004307   0.049811   0.316265  -0.078723  -0.000736
    11  C    0.016255   0.013129  -0.046392  -0.069593   0.006937   0.000145
    12  C    0.432121  -0.073388  -0.014083  -0.050389  -0.000265  -0.000166
    13  C    4.972713   0.297556   0.412711   0.033004  -0.000113   0.000064
    14  C    0.297556   4.958422  -0.073676   0.013823  -0.000000   0.000000
    15  C    0.412711  -0.073676   5.100160   0.357346   0.002963  -0.000043
    16  C    0.033004   0.013823   0.357346   5.142081   0.018597   0.000707
    17  O   -0.000113  -0.000000   0.002963   0.018597   8.031252   0.002676
    18  H    0.000064   0.000000  -0.000043   0.000707   0.002676   0.429407
    19  H   -0.000009  -0.000000  -0.000258  -0.000270  -0.000017   0.003563
    20  H   -0.000005   0.000000   0.000022   0.000029  -0.000000  -0.000040
    21  H   -0.000001   0.000000  -0.000002  -0.000018   0.000001  -0.000002
    22  H   -0.000000  -0.000000   0.000008  -0.000004  -0.000038   0.000013
    23  H    0.000015   0.000000  -0.000158  -0.000442   0.008973  -0.000050
    24  H    0.008423  -0.000057  -0.002425   0.008280   0.000542   0.000364
    25  H   -0.062082  -0.006778   0.012865  -0.003857   0.000004  -0.000009
    26  H   -0.053328   0.427641  -0.006654   0.001941   0.000000  -0.000000
    27  H   -0.054854   0.427626   0.007930  -0.000712   0.000000   0.000000
    28  H   -0.017367   0.390159  -0.004885  -0.000732  -0.000000  -0.000000
    29  H   -0.063169  -0.006661   0.444474  -0.048516  -0.000011   0.000000
    30  H    0.008917  -0.000031  -0.049467   0.436244   0.008187  -0.000098
              19         20         21         22         23         24
     1  O   -0.000175  -0.000000   0.000000  -0.000000  -0.000134   0.013552
     2  S   -0.000121  -0.000007   0.000003  -0.000003  -0.002921  -0.004413
     3  N    0.002897  -0.000360   0.000008  -0.000119  -0.001404   0.000275
     4  C   -0.080502   0.015211  -0.003964   0.013945  -0.044802  -0.000183
     5  C    0.439955  -0.053930   0.012198  -0.003504   0.011287  -0.000132
     6  C   -0.031469   0.438887  -0.056088   0.010553  -0.004442   0.000006
     7  C    0.010391  -0.057144   0.443934  -0.058354   0.010215  -0.000003
     8  C   -0.003894   0.010719  -0.056275   0.446325  -0.048919   0.000007
     9  C    0.012038  -0.003858   0.011297  -0.057682   0.434636  -0.000018
    10  C    0.000787   0.000005   0.000004  -0.000016   0.001828  -0.045628
    11  C    0.000380  -0.000001  -0.000000   0.000001  -0.000172   0.432623
    12  C    0.000310  -0.000003   0.000000  -0.000000   0.000007  -0.048538
    13  C   -0.000009  -0.000005  -0.000001  -0.000000   0.000015   0.008423
    14  C   -0.000000   0.000000   0.000000  -0.000000   0.000000  -0.000057
    15  C   -0.000258   0.000022  -0.000002   0.000008  -0.000158  -0.002425
    16  C   -0.000270   0.000029  -0.000018  -0.000004  -0.000442   0.008280
    17  O   -0.000017  -0.000000   0.000001  -0.000038   0.008973   0.000542
    18  H    0.003563  -0.000040  -0.000002   0.000013  -0.000050   0.000364
    19  H    0.538597  -0.007507  -0.000098   0.000028   0.000012  -0.000067
    20  H   -0.007507   0.541629  -0.006650  -0.000125   0.000015   0.000000
    21  H   -0.000098  -0.006650   0.538792  -0.006847  -0.000017  -0.000000
    22  H    0.000028  -0.000125  -0.006847   0.534758  -0.006493   0.000000
    23  H    0.000012   0.000015  -0.000017  -0.006493   0.476180  -0.000005
    24  H   -0.000067   0.000000  -0.000000   0.000000  -0.000005   0.477702
    25  H   -0.000003   0.000000   0.000000   0.000000  -0.000000  -0.005564
    26  H   -0.000000   0.000000  -0.000000   0.000000  -0.000000   0.000003
    27  H    0.000000  -0.000000   0.000000  -0.000000  -0.000000  -0.000019
    28  H    0.000000  -0.000000  -0.000000   0.000000   0.000000   0.000007
    29  H   -0.000002  -0.000000  -0.000000   0.000001  -0.000007   0.000031
    30  H   -0.000053   0.000004  -0.000005  -0.000017  -0.000091  -0.000066
              25         26         27         28         29         30
     1  O   -0.000028   0.000000   0.000000  -0.000000   0.000003   0.000385
     2  S   -0.000114   0.000001   0.000001  -0.000001  -0.000100  -0.004119
     3  N    0.000017  -0.000000  -0.000000   0.000000   0.000031   0.000355
     4  C   -0.000007   0.000003  -0.000001  -0.000000   0.000037   0.000129
     5  C   -0.000002  -0.000002   0.000001   0.000000  -0.000080  -0.001669
     6  C    0.000003   0.000001  -0.000001   0.000000   0.000072   0.000168
     7  C   -0.000000  -0.000000   0.000000   0.000000   0.000008   0.000105
     8  C    0.000000   0.000000  -0.000000   0.000000   0.000057   0.000351
     9  C   -0.000002   0.000000   0.000000  -0.000000  -0.000101   0.000013
    10  C    0.011288   0.000054   0.000066   0.000161   0.010708  -0.046333
    11  C   -0.048899  -0.000637   0.001939  -0.000661  -0.003657   0.008176
    12  C    0.443240   0.006966  -0.006517  -0.004577   0.012783  -0.002425
    13  C   -0.062082  -0.053328  -0.054854  -0.017367  -0.063169   0.008917
    14  C   -0.006778   0.427641   0.427626   0.390159  -0.006661  -0.000031
    15  C    0.012865  -0.006654   0.007930  -0.004885   0.444474  -0.049467
    16  C   -0.003857   0.001941  -0.000712  -0.000732  -0.048516   0.436244
    17  O    0.000004   0.000000   0.000000  -0.000000  -0.000011   0.008187
    18  H   -0.000009  -0.000000   0.000000  -0.000000   0.000000  -0.000098
    19  H   -0.000003  -0.000000   0.000000   0.000000  -0.000002  -0.000053
    20  H    0.000000   0.000000  -0.000000  -0.000000  -0.000000   0.000004
    21  H    0.000000  -0.000000   0.000000  -0.000000  -0.000000  -0.000005
    22  H    0.000000   0.000000  -0.000000   0.000000   0.000001  -0.000017
    23  H   -0.000000  -0.000000  -0.000000   0.000000  -0.000007  -0.000091
    24  H   -0.005564   0.000003  -0.000019   0.000007   0.000031  -0.000066
    25  H    0.533408   0.000057   0.001092   0.000224  -0.000049   0.000026
    26  H    0.000057   0.540717  -0.023658  -0.024222   0.000883  -0.000022
    27  H    0.001092  -0.023658   0.542027  -0.023422   0.000074   0.000002
    28  H    0.000224  -0.024222  -0.023422   0.544766   0.000256   0.000008
    29  H   -0.000049   0.000883   0.000074   0.000256   0.533626  -0.005594
    30  H    0.000026  -0.000022   0.000002   0.000008  -0.005594   0.481725
 Mulliken charges:
               1
     1  O   -0.474529
     2  S    0.856458
     3  N   -0.316471
     4  C    0.199923
     5  C   -0.217407
     6  C   -0.096902
     7  C   -0.137594
     8  C   -0.072241
     9  C   -0.270566
    10  C    0.000976
    11  C   -0.174764
    12  C   -0.186562
    13  C    0.160727
    14  C   -0.363463
    15  C   -0.195659
    16  C   -0.135627
    17  O   -0.461036
    18  H    0.248421
    19  H    0.115488
    20  H    0.123108
    21  H    0.123730
    22  H    0.127569
    23  H    0.166889
    24  H    0.165299
    25  H    0.125170
    26  H    0.130256
    27  H    0.128423
    28  H    0.140287
    29  H    0.124904
    30  H    0.165193
 Sum of Mulliken charges =  -0.00000
 Mulliken charges with hydrogens summed into heavy atoms:
               1
     1  O   -0.474529
     2  S    0.856458
     3  N   -0.068051
     4  C    0.199923
     5  C   -0.101918
     6  C    0.026206
     7  C   -0.013864
     8  C    0.055328
     9  C   -0.103677
    10  C    0.000976
    11  C   -0.009465
    12  C   -0.061392
    13  C    0.160727
    14  C    0.035504
    15  C   -0.070756
    16  C    0.029567
    17  O   -0.461036
 Electronic spatial extent (au):  <R**2>=           4366.5745
 Charge=              0.0000 electrons
 Dipole moment (field-independent basis, Debye):
    X=              1.8225    Y=             -5.3820    Z=             -1.7649  Tot=              5.9500
 Quadrupole moment (field-independent basis, Debye-Ang):
   XX=            -96.8161   YY=           -114.0120   ZZ=           -101.0979
   XY=             -0.2824   XZ=             -2.6681   YZ=             -4.5444
 Traceless Quadrupole moment (field-independent basis, Debye-Ang):
   XX=              7.1592   YY=            -10.0367   ZZ=              2.8774
   XY=             -0.2824   XZ=             -2.6681   YZ=             -4.5444
 Octapole moment (field-independent basis, Debye-Ang**2):
  XXX=             41.9557  YYY=            -42.3671  ZZZ=            -11.7737  XYY=             -3.5024
  XXY=            -16.3245  XXZ=              7.5867  XZZ=             -2.8448  YZZ=             -0.3999
  YYZ=             -0.7594  XYZ=              0.8863
 Hexadecapole moment (field-independent basis, Debye-Ang**3):
 XXXX=          -3343.3726 YYYY=          -1978.1348 ZZZZ=           -577.6911 XXXY=            -53.3066
 XXXZ=           -112.7903 YYYX=             18.4092 YYYZ=             17.6532 ZZZX=            -13.6335
 ZZZY=            -24.0064 XXYY=           -821.9434 XXZZ=           -639.5235 YYZZ=           -410.8545
 XXYZ=            -31.5939 YYXZ=             12.7833 ZZXY=              2.1666
 N-N= 1.331934494918D+03 E-N=-5.259240982926D+03  KE= 1.102023902995D+03
 Breneman (CHELPG) radii used.
 Read replacement radii for each type of atom:
 Atom Element Radius
    1     8    1.70
    2    16    2.00
    3     7    1.70
    4     6    1.50
    5     6    1.50
    6     6    1.50
    7     6    1.50
    8     6    1.50
    9     6    1.50
   10     6    1.50
   11     6    1.50
   12     6    1.50
   13     6    1.50
   14     6    1.50
   15     6    1.50
   16     6    1.50
   17     8    1.70
   18     1    1.45
   19     1    1.45
   20     1    1.45
   21     1    1.45
   22     1    1.45
   23     1    1.45
   24     1    1.45
   25     1    1.45
   26     1    1.45
   27     1    1.45
   28     1    1.45
   29     1    1.45
   30     1    1.45
 Generate Potential Derived Charges using the Breneman model, NDens= 1.
 Grid spacing= 0.300 Box extension= 2.800
 NStep X,Y,Z=   49     42     34   Total possible points=       69972
 Number of Points to Fit=   18713

 **********************************************************************

            Electrostatic Properties Using The SCF Density.

 **********************************************************************

       Atomic Center    1 is at   0.244757  3.115717 -0.602828
       Atomic Center    2 is at  -0.211293  1.955893  0.139106
       Atomic Center    3 is at  -1.389730  1.267710 -0.841757
       Atomic Center    4 is at  -1.950892  0.004409 -0.532426
       Atomic Center    5 is at  -1.772201 -1.075531 -1.403392
       Atomic Center    6 is at  -2.334323 -2.314465 -1.105033
       Atomic Center    7 is at  -3.052672 -2.491974  0.076122
       Atomic Center    8 is at  -3.219278 -1.416613  0.949135
       Atomic Center    9 is at  -2.685354 -0.166961  0.646318
       Atomic Center   10 is at   1.098924  0.752234  0.173465
       Atomic Center   11 is at   2.134317  0.847614 -0.754212
       Atomic Center   12 is at   3.122136 -0.132106 -0.768040
       Atomic Center   13 is at   3.088723 -1.207216  0.129574
       Atomic Center   14 is at   4.177667 -2.246470  0.128502
       Atomic Center   15 is at   2.036190 -1.274940  1.051377
       Atomic Center   16 is at   1.042930 -0.301539  1.084593
       Atomic Center   17 is at  -0.760064  2.052952  1.477357
       Atomic Center   18 is at  -1.147148  1.412249 -1.818052
       Atomic Center   19 is at  -1.185300 -0.942288 -2.315747
       Atomic Center   20 is at  -2.196902 -3.149093 -1.795767
       Atomic Center   21 is at  -3.485282 -3.465634  0.314581
       Atomic Center   22 is at  -3.787381 -1.545742  1.872919
       Atomic Center   23 is at  -2.820994  0.683399  1.314558
       Atomic Center   24 is at   2.165359  1.692028 -1.445343
       Atomic Center   25 is at   3.939442 -0.058313 -1.489869
       Atomic Center   26 is at   3.797651 -3.227121  0.447829
       Atomic Center   27 is at   4.627839 -2.357695 -0.867878
       Atomic Center   28 is at   4.982540 -1.961562  0.825232
       Atomic Center   29 is at   1.993692 -2.105320  1.760484
       Atomic Center   30 is at   0.230735 -0.351161  1.811513
   18713 points will be used for fitting atomic charges
 Fitting point charges to electrostatic potential
 Charges from ESP fit, RMS=   0.00358 RRMS=   0.21875:
 ESP charges:
               1
     1  O   -0.485584
     2  S    0.935651
     3  N   -0.647460
     4  C    0.411399
     5  C   -0.269653
     6  C   -0.054246
     7  C   -0.146631
     8  C   -0.057522
     9  C   -0.219417
    10  C   -0.065936
    11  C   -0.067533
    12  C   -0.212112
    13  C    0.239580
    14  C   -0.271811
    15  C   -0.231147
    16  C   -0.035807
    17  O   -0.470037
    18  H    0.354872
    19  H    0.110952
    20  H    0.104339
    21  H    0.104928
    22  H    0.098050
    23  H    0.160593
    24  H    0.112628
    25  H    0.126836
    26  H    0.078802
    27  H    0.077347
    28  H    0.090155
    29  H    0.129082
    30  H    0.099683
 Sum of ESP charges =   0.00000
 ESP charges with hydrogens summed into heavy atoms:
               1
     1  O   -0.485584
     2  S    0.935651
     3  N   -0.292588
     4  C    0.411399
     5  C   -0.158701
     6  C    0.050093
     7  C   -0.041703
     8  C    0.040528
     9  C   -0.058825
    10  C   -0.065936
    11  C    0.045094
    12  C   -0.085276
    13  C    0.239580
    14  C   -0.025506
    15  C   -0.102065
    16  C    0.063876
    17  O   -0.470037
 Charge=   0.00000 Dipole=     1.7025    -5.2557    -1.7349 Tot=     5.7906
 -----------------------------------------------------------------

              Electrostatic Properties (Atomic Units)

 -----------------------------------------------------------------
    Center     Electric         -------- Electric Field --------
               Potential          X             Y             Z
 -----------------------------------------------------------------
    1 Atom    -22.373239
    2 Atom    -59.026800
    3 Atom    -18.345602
    4 Atom    -14.712679
    5 Atom    -14.755804
    6 Atom    -14.756712
    7 Atom    -14.761227
    8 Atom    -14.758981
    9 Atom    -14.763166
   10 Atom    -14.732023
   11 Atom    -14.744873
   12 Atom    -14.752124
   13 Atom    -14.736845
   14 Atom    -14.755043
   15 Atom    -14.752981
   16 Atom    -14.745692
   17 Atom    -22.373377
   18 Atom     -1.001974
   19 Atom     -1.087787
   20 Atom     -1.096083
   21 Atom     -1.099251
   22 Atom     -1.099707
   23 Atom     -1.101927
   24 Atom     -1.086167
   25 Atom     -1.090245
   26 Atom     -1.100261
   27 Atom     -1.100357
   28 Atom     -1.097640
   29 Atom     -1.091442
   30 Atom     -1.088677
 -----------------------------------------------------------------
 Unable to Open any file for archive entry.
 1\1\GINC-NOTCH073\SP\RwB97XD\def2TZVP\C13H13N1O2S1\U1366379\17-Feb-202
 6\0\\#N Guess=Read Geom=Check Integral(Ultrafine) Density Pop=(ChelpG,
 ReadRadii) NMR wB97XD def2TZVP\\prod_5l_5\\0,1\O,0,-0.4671484498,3.160
 4808696,1.0574714737\S,0,-0.0001755462,2.1519788794,0.1255384683\N,0,1
 .3069727949,1.436456261,0.9025774247\C,0,1.924591556,0.2761592509,0.37
 45826582\C,0,1.9008318629,-0.9220125034,1.0961104824\C,0,2.5186951679,
 -2.0596414723,0.5822994964\C,0,3.1382227492,-2.0176232678,-0.665531465
 9\C,0,3.1501104533,-0.8246823446,-1.3887609162\C,0,2.5599164996,0.3252
 29232,-0.871287822\C,0,-1.2211077554,0.8611877503,0.0264149401\C,0,-2.
 1727508041,0.7463184888,1.0378017142\C,0,-3.0846392493,-0.3035372814,0
 .9920972843\C,0,-3.0574900462,-1.2418714615,-0.0478460696\C,0,-4.06684
 82901,-2.3570428515,-0.1064692975\C,0,-2.0902169175,-1.0990841652,-1.0
 509045871\C,0,-1.1742305,-0.0524178964,-1.0256565382\O,0,0.4175850756,
 2.4724621169,-1.2251101033\H,0,1.1439380972,1.4281730168,1.9056924877\
 H,0,1.3907416845,-0.9608989937,2.0619741509\H,0,2.5025966468,-2.987958
 0907,1.1572535446\H,0,3.614340297,-2.9118786835,-1.0725282951\H,0,3.64
 02077735,-0.7817270142,-2.3638258831\H,0,2.5751785902,1.2659117724,-1.
 4216861386\H,0,-2.20009261,1.484780173,1.8412861918\H,0,-3.8366733264,
 -0.3942849979,1.7799304805\H,0,-3.6497889481,-3.2516138168,-0.59006195
 75\H,0,-4.4164941354,-2.6375191374,0.8969644704\H,0,-4.9491535448,-2.0
 475560713,-0.6897223007\H,0,-2.0540922045,-1.8203353299,-1.8710632987\
 H,0,-0.4294169208,0.0624675684,-1.8147005947\\Version=ES64L-G16RevC.01
 \State=1-A\HF=-1106.6304769\RMSD=3.938e-09\Dipole=-0.5022278,-2.242875
 ,0.443931\Quadrupole=4.80787,-8.0236643,3.2157943,1.7058486,-2.2470514
 ,1.676938\PG=C01 [X(C13H13N1O2S1)]\\@
 The archive entry for this job was punched.


 I do not feel obliged to believe that the same God who
 has endowed us with sense, reason, and intellect has
 intended us to forgo their use.
                   --Galileo Galilei
 Job cpu time:       0 days  1 hours 46 minutes  6.4 seconds.
 Elapsed time:       0 days  0 hours 13 minutes 42.6 seconds.
 File lengths (MBytes):  RWF=    226 Int=      0 D2E=      0 Chk=     34 Scr=      2
 Normal termination of Gaussian 16 at Tue Feb 17 17:18:34 2026.
