 Entering Gaussian System, Link 0=g16
 Input=prod_3b_1.com
 Output=prod_3b_1.log
 Initial command:
 /uufs/chpc.utah.edu/sys/installdir/gaussian16/C01/AVX/g16/l1.exe "/scratch/general/vast/u1366379/GAUSSSCRDIR/11028599-notchpeak.peaks/Gau-2866993.inp" -scrdir="/scratch/general/vast/u1366379/GAUSSSCRDIR/11028599-notchpeak.peaks/"
 Entering Link 1 = /uufs/chpc.utah.edu/sys/installdir/gaussian16/C01/AVX/g16/l1.exe PID=   2866994.
  
 Copyright (c) 1988-2019, Gaussian, Inc.  All Rights Reserved.
  
 This is part of the Gaussian(R) 16 program.  It is based on
 the Gaussian(R) 09 system (copyright 2009, Gaussian, Inc.),
 the Gaussian(R) 03 system (copyright 2003, Gaussian, Inc.),
 the Gaussian(R) 98 system (copyright 1998, Gaussian, Inc.),
 the Gaussian(R) 94 system (copyright 1995, Gaussian, Inc.),
 the Gaussian 92(TM) system (copyright 1992, Gaussian, Inc.),
 the Gaussian 90(TM) system (copyright 1990, Gaussian, Inc.),
 the Gaussian 88(TM) system (copyright 1988, Gaussian, Inc.),
 the Gaussian 86(TM) system (copyright 1986, Carnegie Mellon
 University), and the Gaussian 82(TM) system (copyright 1983,
 Carnegie Mellon University). Gaussian is a federally registered
 trademark of Gaussian, Inc.
  
 This software contains proprietary and confidential information,
 including trade secrets, belonging to Gaussian, Inc.
  
 This software is provided under written license and may be
 used, copied, transmitted, or stored only in accord with that
 written license.
  
 The following legend is applicable only to US Government
 contracts under FAR:
  
                    RESTRICTED RIGHTS LEGEND
  
 Use, reproduction and disclosure by the US Government is
 subject to restrictions as set forth in subparagraphs (a)
 and (c) of the Commercial Computer Software - Restricted
 Rights clause in FAR 52.227-19.
  
 Gaussian, Inc.
 340 Quinnipiac St., Bldg. 40, Wallingford CT 06492
  
  
 ---------------------------------------------------------------
 Warning -- This program may not be used in any manner that
 competes with the business of Gaussian, Inc. or will provide
 assistance to any competitor of Gaussian, Inc.  The licensee
 of this program is prohibited from giving any competitor of
 Gaussian, Inc. access to this program.  By using this program,
 the user acknowledges that Gaussian, Inc. is engaged in the
 business of creating and licensing software in the field of
 computational chemistry and represents and warrants to the
 licensee that it is not a competitor of Gaussian, Inc. and that
 it will not use this program in any manner prohibited above.
 ---------------------------------------------------------------
  

 Cite this work as:
 Gaussian 16, Revision C.01,
 M. J. Frisch, G. W. Trucks, H. B. Schlegel, G. E. Scuseria, 
 M. A. Robb, J. R. Cheeseman, G. Scalmani, V. Barone, 
 G. A. Petersson, H. Nakatsuji, X. Li, M. Caricato, A. V. Marenich, 
 J. Bloino, B. G. Janesko, R. Gomperts, B. Mennucci, H. P. Hratchian, 
 J. V. Ortiz, A. F. Izmaylov, J. L. Sonnenberg, D. Williams-Young, 
 F. Ding, F. Lipparini, F. Egidi, J. Goings, B. Peng, A. Petrone, 
 T. Henderson, D. Ranasinghe, V. G. Zakrzewski, J. Gao, N. Rega, 
 G. Zheng, W. Liang, M. Hada, M. Ehara, K. Toyota, R. Fukuda, 
 J. Hasegawa, M. Ishida, T. Nakajima, Y. Honda, O. Kitao, H. Nakai, 
 T. Vreven, K. Throssell, J. A. Montgomery, Jr., J. E. Peralta, 
 F. Ogliaro, M. J. Bearpark, J. J. Heyd, E. N. Brothers, K. N. Kudin, 
 V. N. Staroverov, T. A. Keith, R. Kobayashi, J. Normand, 
 K. Raghavachari, A. P. Rendell, J. C. Burant, S. S. Iyengar, 
 J. Tomasi, M. Cossi, J. M. Millam, M. Klene, C. Adamo, R. Cammi, 
 J. W. Ochterski, R. L. Martin, K. Morokuma, O. Farkas, 
 J. B. Foresman, and D. J. Fox, Gaussian, Inc., Wallingford CT, 2019.
 
 ******************************************
 Gaussian 16:  ES64L-G16RevC.01  3-Jul-2019
                17-Feb-2026 
 ******************************************
 %NProcShared=8
 Will use up to    8 processors via shared memory.
 %Mem=8GB
 %chk=prod_3b_1.chk
 ------------------------------------------------------
 #N OPT FREQ=NORAMAN Integral(Ultrafine) wB97XD def2SVP
 ------------------------------------------------------
 1/18=20,19=15,26=4,38=1/1,3;
 2/9=110,12=2,17=6,18=5,40=1/2;
 3/5=43,7=101,11=2,25=1,30=1,71=1,74=-58,75=-5/1,2,3;
 4//1;
 5/5=2,38=5/2;
 6/7=2,8=2,9=2,10=2,28=1/1;
 7//1,2,3,16;
 1/18=20,19=15,26=4/3(2);
 2/9=110/2;
 99//99;
 2/9=110/2;
 3/5=43,7=101,11=2,25=1,30=1,71=1,74=-58,75=-5/1,2,3;
 4/5=5,16=3,69=1/1;
 5/5=2,38=5/2;
 7//1,2,3,16;
 1/18=20,19=15,26=4/3(-5);
 2/9=110/2;
 6/7=2,8=2,9=2,10=2,19=2,28=1/1;
 99/9=1/99;
 ---------
 prod_3b_1
 ---------
 Symbolic Z-matrix:
 Charge =  0 Multiplicity = 1
 F                     4.62171  -0.79808  -0.05627 
 C                     3.35019  -0.31663  -0.05109 
 C                     2.30663  -1.08905  -0.53021 
 C                     1.01846  -0.60779  -0.51907 
 C                     3.08356   0.95266   0.43159 
 C                     1.79762   1.44004   0.44329 
 C                     0.73708   0.6629   -0.02021 
 N                    -0.57635   1.18427  -0.01425 
 C                    -1.79676   0.47353   0.01264 
 C                    -2.96559   1.07986  -0.44623 
 C                    -4.16644   0.40824  -0.41166 
 C                    -4.22793  -0.87695   0.09017 
 C                    -3.08286  -1.48633   0.5641 
 C                    -1.87993  -0.81862   0.5295 
 H                     2.5277   -2.0682   -0.91638 
 H                     0.21891  -1.19806  -0.92976 
 H                     3.90305   1.54621   0.79619 
 H                     1.59413   2.42606   0.82259 
 H                    -0.65205   2.19857  -0.02673 
 H                    -2.91311   2.08039  -0.83845 
 H                    -5.06076   0.88631  -0.77624 
 H                    -5.16899  -1.40115   0.11768 
 H                    -3.1326   -2.48434   0.96769 
 H                    -0.99627  -1.27712   0.93604 
 

 GradGradGradGradGradGradGradGradGradGradGradGradGradGradGradGradGradGrad
 Berny optimization.
 Initialization pass.
                           ----------------------------
                           !    Initial Parameters    !
                           ! (Angstroms and Degrees)  !
 --------------------------                            --------------------------
 ! Name  Definition              Value          Derivative Info.                !
 --------------------------------------------------------------------------------
 ! R1    R(1,2)                  1.3596         estimate D2E/DX2                !
 ! R2    R(2,3)                  1.3839         estimate D2E/DX2                !
 ! R3    R(2,5)                  1.3839         estimate D2E/DX2                !
 ! R4    R(3,4)                  1.3752         estimate D2E/DX2                !
 ! R5    R(3,15)                 1.0755         estimate D2E/DX2                !
 ! R6    R(4,7)                  1.3938         estimate D2E/DX2                !
 ! R7    R(4,16)                 1.0753         estimate D2E/DX2                !
 ! R8    R(5,6)                  1.3753         estimate D2E/DX2                !
 ! R9    R(5,17)                 1.0755         estimate D2E/DX2                !
 ! R10   R(6,7)                  1.3941         estimate D2E/DX2                !
 ! R11   R(6,18)                 1.0759         estimate D2E/DX2                !
 ! R12   R(7,8)                  1.4131         estimate D2E/DX2                !
 ! R13   R(8,9)                  1.4125         estimate D2E/DX2                !
 ! R14   R(8,19)                 1.0172         estimate D2E/DX2                !
 ! R15   R(9,10)                 1.3944         estimate D2E/DX2                !
 ! R16   R(9,14)                 1.3942         estimate D2E/DX2                !
 ! R17   R(10,11)                1.3763         estimate D2E/DX2                !
 ! R18   R(10,20)                1.0759         estimate D2E/DX2                !
 ! R19   R(11,12)                1.3811         estimate D2E/DX2                !
 ! R20   R(11,21)                1.0776         estimate D2E/DX2                !
 ! R21   R(12,13)                1.381          estimate D2E/DX2                !
 ! R22   R(12,22)                1.0776         estimate D2E/DX2                !
 ! R23   R(13,14)                1.3763         estimate D2E/DX2                !
 ! R24   R(13,23)                1.0777         estimate D2E/DX2                !
 ! R25   R(14,24)                1.0753         estimate D2E/DX2                !
 ! A1    A(1,2,3)              120.4138         estimate D2E/DX2                !
 ! A2    A(1,2,5)              120.417          estimate D2E/DX2                !
 ! A3    A(3,2,5)              119.1691         estimate D2E/DX2                !
 ! A4    A(2,3,4)              120.5455         estimate D2E/DX2                !
 ! A5    A(2,3,15)             118.5187         estimate D2E/DX2                !
 ! A6    A(4,3,15)             120.9344         estimate D2E/DX2                !
 ! A7    A(3,4,7)              120.7341         estimate D2E/DX2                !
 ! A8    A(3,4,16)             120.0856         estimate D2E/DX2                !
 ! A9    A(7,4,16)             119.1447         estimate D2E/DX2                !
 ! A10   A(2,5,6)              120.5417         estimate D2E/DX2                !
 ! A11   A(2,5,17)             118.5284         estimate D2E/DX2                !
 ! A12   A(6,5,17)             120.9299         estimate D2E/DX2                !
 ! A13   A(5,6,7)              120.7268         estimate D2E/DX2                !
 ! A14   A(5,6,18)             120.3081         estimate D2E/DX2                !
 ! A15   A(7,6,18)             118.9613         estimate D2E/DX2                !
 ! A16   A(4,7,6)              118.2701         estimate D2E/DX2                !
 ! A17   A(4,7,8)              121.7019         estimate D2E/DX2                !
 ! A18   A(6,7,8)              119.9991         estimate D2E/DX2                !
 ! A19   A(7,8,9)              128.131          estimate D2E/DX2                !
 ! A20   A(7,8,19)             115.9133         estimate D2E/DX2                !
 ! A21   A(9,8,19)             115.9551         estimate D2E/DX2                !
 ! A22   A(8,9,10)             119.9444         estimate D2E/DX2                !
 ! A23   A(8,9,14)             121.6644         estimate D2E/DX2                !
 ! A24   A(10,9,14)            118.3597         estimate D2E/DX2                !
 ! A25   A(9,10,11)            120.7237         estimate D2E/DX2                !
 ! A26   A(9,10,20)            118.9097         estimate D2E/DX2                !
 ! A27   A(11,10,20)           120.3637         estimate D2E/DX2                !
 ! A28   A(10,11,12)           120.1374         estimate D2E/DX2                !
 ! A29   A(10,11,21)           119.9407         estimate D2E/DX2                !
 ! A30   A(12,11,21)           119.9219         estimate D2E/DX2                !
 ! A31   A(11,12,13)           119.8951         estimate D2E/DX2                !
 ! A32   A(11,12,22)           120.0569         estimate D2E/DX2                !
 ! A33   A(13,12,22)           120.0469         estimate D2E/DX2                !
 ! A34   A(12,13,14)           120.1343         estimate D2E/DX2                !
 ! A35   A(12,13,23)           119.9269         estimate D2E/DX2                !
 ! A36   A(14,13,23)           119.9377         estimate D2E/DX2                !
 ! A37   A(9,14,13)            120.7388         estimate D2E/DX2                !
 ! A38   A(9,14,24)            119.0984         estimate D2E/DX2                !
 ! A39   A(13,14,24)           120.1253         estimate D2E/DX2                !
 ! D1    D(1,2,3,4)            179.6202         estimate D2E/DX2                !
 ! D2    D(1,2,3,15)            -0.8073         estimate D2E/DX2                !
 ! D3    D(5,2,3,4)             -0.4709         estimate D2E/DX2                !
 ! D4    D(5,2,3,15)           179.1017         estimate D2E/DX2                !
 ! D5    D(1,2,5,6)           -179.7224         estimate D2E/DX2                !
 ! D6    D(1,2,5,17)             0.2571         estimate D2E/DX2                !
 ! D7    D(3,2,5,6)              0.3687         estimate D2E/DX2                !
 ! D8    D(3,2,5,17)          -179.6518         estimate D2E/DX2                !
 ! D9    D(2,3,4,7)             -0.3018         estimate D2E/DX2                !
 ! D10   D(2,3,4,16)           177.5103         estimate D2E/DX2                !
 ! D11   D(15,3,4,7)          -179.8639         estimate D2E/DX2                !
 ! D12   D(15,3,4,16)           -2.0518         estimate D2E/DX2                !
 ! D13   D(3,4,7,6)              1.1514         estimate D2E/DX2                !
 ! D14   D(3,4,7,8)            179.1981         estimate D2E/DX2                !
 ! D15   D(16,4,7,6)          -176.681          estimate D2E/DX2                !
 ! D16   D(16,4,7,8)             1.3657         estimate D2E/DX2                !
 ! D17   D(2,5,6,7)              0.5069         estimate D2E/DX2                !
 ! D18   D(2,5,6,18)           179.7848         estimate D2E/DX2                !
 ! D19   D(17,5,6,7)          -179.4721         estimate D2E/DX2                !
 ! D20   D(17,5,6,18)           -0.1942         estimate D2E/DX2                !
 ! D21   D(5,6,7,4)             -1.2535         estimate D2E/DX2                !
 ! D22   D(5,6,7,8)           -179.3346         estimate D2E/DX2                !
 ! D23   D(18,6,7,4)           179.4591         estimate D2E/DX2                !
 ! D24   D(18,6,7,8)             1.378          estimate D2E/DX2                !
 ! D25   D(4,7,8,9)             25.9104         estimate D2E/DX2                !
 ! D26   D(4,7,8,19)          -154.3876         estimate D2E/DX2                !
 ! D27   D(6,7,8,9)           -156.076          estimate D2E/DX2                !
 ! D28   D(6,7,8,19)            23.626          estimate D2E/DX2                !
 ! D29   D(7,8,9,10)          -157.544          estimate D2E/DX2                !
 ! D30   D(7,8,9,14)            24.5323         estimate D2E/DX2                !
 ! D31   D(19,8,9,10)           22.7541         estimate D2E/DX2                !
 ! D32   D(19,8,9,14)         -155.1696         estimate D2E/DX2                !
 ! D33   D(8,9,10,11)         -179.1732         estimate D2E/DX2                !
 ! D34   D(8,9,10,20)            1.4462         estimate D2E/DX2                !
 ! D35   D(14,9,10,11)          -1.1814         estimate D2E/DX2                !
 ! D36   D(14,9,10,20)         179.438          estimate D2E/DX2                !
 ! D37   D(8,9,14,13)          179.0482         estimate D2E/DX2                !
 ! D38   D(8,9,14,24)            1.2721         estimate D2E/DX2                !
 ! D39   D(10,9,14,13)           1.0927         estimate D2E/DX2                !
 ! D40   D(10,9,14,24)        -176.6835         estimate D2E/DX2                !
 ! D41   D(9,10,11,12)           0.4908         estimate D2E/DX2                !
 ! D42   D(9,10,11,21)        -179.5525         estimate D2E/DX2                !
 ! D43   D(20,10,11,12)        179.8624         estimate D2E/DX2                !
 ! D44   D(20,10,11,21)         -0.1808         estimate D2E/DX2                !
 ! D45   D(10,11,12,13)          0.3163         estimate D2E/DX2                !
 ! D46   D(10,11,12,22)        179.9289         estimate D2E/DX2                !
 ! D47   D(21,11,12,13)       -179.6405         estimate D2E/DX2                !
 ! D48   D(21,11,12,22)         -0.0279         estimate D2E/DX2                !
 ! D49   D(11,12,13,14)         -0.4047         estimate D2E/DX2                !
 ! D50   D(11,12,13,23)        179.1996         estimate D2E/DX2                !
 ! D51   D(22,12,13,14)        179.9827         estimate D2E/DX2                !
 ! D52   D(22,12,13,23)         -0.4131         estimate D2E/DX2                !
 ! D53   D(12,13,14,9)          -0.3132         estimate D2E/DX2                !
 ! D54   D(12,13,14,24)        177.4402         estimate D2E/DX2                !
 ! D55   D(23,13,14,9)        -179.9175         estimate D2E/DX2                !
 ! D56   D(23,13,14,24)         -2.1641         estimate D2E/DX2                !
 --------------------------------------------------------------------------------
 Trust Radius=3.00D-01 FncErr=1.00D-07 GrdErr=1.00D-06 EigMax=2.50D+02 EigMin=1.00D-04
 Number of steps in this run=    130 maximum allowed number of steps=    144.
 GradGradGradGradGradGradGradGradGradGradGradGradGradGradGradGradGradGrad

                          Input orientation:                          
 ---------------------------------------------------------------------
 Center     Atomic      Atomic             Coordinates (Angstroms)
 Number     Number       Type             X           Y           Z
 ---------------------------------------------------------------------
      1          9           0        4.621710   -0.798080   -0.056270
      2          6           0        3.350190   -0.316630   -0.051090
      3          6           0        2.306630   -1.089050   -0.530210
      4          6           0        1.018460   -0.607790   -0.519070
      5          6           0        3.083560    0.952660    0.431590
      6          6           0        1.797620    1.440040    0.443290
      7          6           0        0.737080    0.662900   -0.020210
      8          7           0       -0.576350    1.184270   -0.014250
      9          6           0       -1.796760    0.473530    0.012640
     10          6           0       -2.965590    1.079860   -0.446230
     11          6           0       -4.166440    0.408240   -0.411660
     12          6           0       -4.227930   -0.876950    0.090170
     13          6           0       -3.082860   -1.486330    0.564100
     14          6           0       -1.879930   -0.818620    0.529500
     15          1           0        2.527700   -2.068200   -0.916380
     16          1           0        0.218910   -1.198060   -0.929760
     17          1           0        3.903050    1.546210    0.796190
     18          1           0        1.594130    2.426060    0.822590
     19          1           0       -0.652050    2.198570   -0.026730
     20          1           0       -2.913110    2.080390   -0.838450
     21          1           0       -5.060760    0.886310   -0.776240
     22          1           0       -5.168990   -1.401150    0.117680
     23          1           0       -3.132600   -2.484340    0.967690
     24          1           0       -0.996270   -1.277120    0.936040
 ---------------------------------------------------------------------
                    Distance matrix (angstroms):
                    1          2          3          4          5
     1  F    0.000000
     2  C    1.359626   0.000000
     3  C    2.380941   1.383910   0.000000
     4  C    3.637830   2.395985   1.375179   0.000000
     5  C    2.380967   1.383896   2.386893   2.757426   0.000000
     6  C    3.637888   2.395991   2.757370   2.393081   1.375252
     7  C    4.150435   2.790838   2.406848   1.393804   2.407084
     8  N    5.563390   4.203781   3.707529   2.451477   3.694233
     9  C    6.543584   5.207639   4.424269   3.062259   4.921647
    10  C    7.825973   6.480386   5.701537   4.327369   6.113834
    11  C    8.877674   7.560104   6.645041   5.284604   7.319150
    12  C    8.851203   7.600119   6.567369   5.288500   7.544662
    13  C    7.760087   6.567404   5.513796   4.331964   6.632569
    14  C    6.528007   5.286136   4.327055   3.089436   5.270982
    15  H    2.595741   2.119720   1.075516   2.137395   3.354340
    16  H    4.506397   3.369554   2.128403   1.075344   3.832113
    17  H    2.595931   2.119837   3.354473   3.832817   1.075546
    18  H    4.509292   3.371856   3.833239   3.366852   2.131241
    19  H    6.065750   4.727023   4.451486   3.302826   3.964484
    20  H    8.103759   6.752375   6.114413   4.773422   6.232562
    21  H    9.854225   8.527426   7.631580   6.265412   8.233663
    22  H    9.810798   8.589592   7.510131   6.270519   8.587406
    23  H    8.001331   6.911110   5.811692   4.791993   7.123273
    24  H    5.725020   4.559461   3.618620   2.573807   4.676687
                    6          7          8          9         10
     6  C    0.000000
     7  C    1.394103   0.000000
     8  N    2.431151   1.413139   0.000000
     9  C    3.746888   2.541119   1.412542   0.000000
    10  C    4.858924   3.750348   2.430221   1.394404   0.000000
    11  C    6.112738   4.925707   3.694442   2.408252   1.376339
    12  C    6.465322   5.199485   4.194469   2.782156   2.389630
    13  C    5.691864   4.421826   3.707989   2.408155   2.760408
    14  C    4.316637   3.057094   2.450827   1.394171   2.394772
    15  H    3.832684   3.386495   4.585578   5.101414   6.348823
    16  H    3.367070   2.135171   2.673218   2.783030   3.945093
    17  H    2.137439   3.386755   4.566491   5.852557   6.995663
    18  H    1.075877   2.133912   2.636916   3.995814   4.920692
    19  H    2.607138   2.070750   1.017197   2.070670   2.603836
    20  H    4.923808   4.000335   2.634916   2.133680   1.075942
    21  H    6.987936   5.851192   4.558436   3.383255   2.129813
    22  H    7.530739   6.257873   5.272015   3.859714   3.365765
    23  H    6.323197   5.084829   4.577917   3.383132   3.838044
    24  H    3.928305   2.771749   2.671671   2.135001   3.368122
                   11         12         13         14         15
    11  C    0.000000
    12  C    1.381060   0.000000
    13  C    2.390742   1.380992   0.000000
    14  C    2.760271   2.389460   1.376254   0.000000
    15  H    7.155348   6.933308   5.831704   4.804084   0.000000
    16  H    4.698928   4.573593   3.635437   2.584288   2.467354
    17  H    8.238358   8.513695   7.619259   6.253511   4.229473
    18  H    6.227290   6.733699   6.103102   4.762661   4.908558
    19  H    3.962876   4.717988   4.453808   3.304620   5.395147
    20  H    2.132855   3.367038   3.836333   3.367938   6.842462
    21  H    1.077626   2.133860   3.367198   3.837893   8.144538
    22  H    2.135228   1.077560   2.135061   3.365539   7.794439
    23  H    3.367262   2.133891   1.077675   2.129745   5.980124
    24  H    3.834933   3.364411   2.129781   1.075338   4.059019
                   16         17         18         19         20
    16  H    0.000000
    17  H    4.907424   0.000000
    18  H    4.253964   2.471021   0.000000
    19  H    3.620929   4.674581   2.412140   0.000000
    20  H    4.534989   7.029753   4.815989   2.405254   0.000000
    21  H    5.678299   9.124576   7.015315   4.660527   2.458068
    22  H    5.492526   9.562908   7.802835   5.777680   4.257264
    23  H    4.060474   8.110186   6.817262   5.391813   4.913968
    24  H    2.228031   5.656332   4.520684   3.622959   4.253935
                   21         22         23         24
    21  H    0.000000
    22  H    2.458308   0.000000
    23  H    4.256803   2.458191   0.000000
    24  H    4.912475   4.254020   2.454035   0.000000
 Stoichiometry    C12H10FN
 Framework group  C1[X(C12H10FN)]
 Deg. of freedom    66
 Full point group                 C1      NOp   1
 Largest Abelian subgroup         C1      NOp   1
 Largest concise Abelian subgroup C1      NOp   1
                         Standard orientation:                         
 ---------------------------------------------------------------------
 Center     Atomic      Atomic             Coordinates (Angstroms)
 Number     Number       Type             X           Y           Z
 ---------------------------------------------------------------------
      1          9           0        4.686708   -0.845671   -0.069092
      2          6           0        3.419357   -0.353398   -0.060590
      3          6           0        2.368093   -1.116637   -0.537577
      4          6           0        1.084105   -0.624415   -0.523076
      5          6           0        3.164729    0.917863    0.423380
      6          6           0        1.883024    1.416186    0.438440
      7          6           0        0.814778    0.648364   -0.022889
      8          7           0       -0.494139    1.180912   -0.013486
      9          6           0       -1.720498    0.480591    0.015995
     10          6           0       -2.885219    1.097110   -0.439737
     11          6           0       -4.091666    0.435737   -0.402604
     12          6           0       -4.162904   -0.849148    0.098719
     13          6           0       -3.021931   -1.468522    0.569567
     14          6           0       -1.813437   -0.811076    0.532396
     15          1           0        2.579870   -2.097432   -0.924780
     16          1           0        0.278560   -1.207628   -0.932130
     17          1           0        3.990129    1.504210    0.786299
     18          1           0        1.688868    2.403704    0.818733
     19          1           0       -0.561215    2.195827   -0.025266
     20          1           0       -2.825155    2.097364   -0.831573
     21          1           0       -4.982754    0.921609   -0.764775
     22          1           0       -5.108331   -1.365318    0.128239
     23          1           0       -3.079207   -2.466285    0.972767
     24          1           0       -0.932741   -1.277311    0.936564
 ---------------------------------------------------------------------
 Rotational constants (GHZ):           2.3151966           0.3099344           0.2822579
 Standard basis: def2SVP (5D, 7F)
 There are   260 symmetry adapted cartesian basis functions of A   symmetry.
 There are   246 symmetry adapted basis functions of A   symmetry.
   246 basis functions,   420 primitive gaussians,   260 cartesian basis functions
    49 alpha electrons       49 beta electrons
       nuclear repulsion energy       790.7106195844 Hartrees.
 NAtoms=   24 NActive=   24 NUniq=   24 SFac= 1.00D+00 NAtFMM=   60 NAOKFM=F Big=F
 Integral buffers will be    131072 words long.
 Raffenetti 2 integral format.
 Two-electron integral symmetry is turned on.
 Nuclear repulsion after empirical dispersion term =      790.6968318000 Hartrees.
 One-electron integrals computed using PRISM.
   1 Symmetry operations used in ECPInt.
 ECPInt:  NShTT=    6555 NPrTT=   24083 LenC2=    6124 LenP2D=   16554.
 LDataN:  DoStor=T MaxTD1= 4 Len=   56
 NBasis=   246 RedAO= T EigKep=  2.28D-04  NBF=   246
 NBsUse=   246 1.00D-06 EigRej= -1.00D+00 NBFU=   246
 ExpMin= 1.22D-01 ExpMax= 2.89D+03 ExpMxC= 4.35D+02 IAcc=3 IRadAn=         5 AccDes= 0.00D+00
 Harris functional with IExCor= 4639 and IRadAn=       5 diagonalized for initial guess.
 HarFok:  IExCor= 4639 AccDes= 0.00D+00 IRadAn=         5 IDoV= 1 UseB2=F ITyADJ=14
 ICtDFT=  3500011 ScaDFX=  1.000000  1.000000  1.000000  1.000000
 FoFCou: FMM=F IPFlag=           0 FMFlag=      100000 FMFlg1=           0
         NFxFlg=           0 DoJE=T BraDBF=F KetDBF=T FulRan=T
         wScrn=  0.000000 ICntrl=       500 IOpCl=  0 I1Cent=   200000004 NGrid=           0
         NMat0=    1 NMatS0=      1 NMatT0=    0 NMatD0=    1 NMtDS0=    0 NMtDT0=    0
 Petite list used in FoFCou.
 Requested convergence on RMS density matrix=1.00D-08 within 128 cycles.
 Requested convergence on MAX density matrix=1.00D-06.
 Requested convergence on             energy=1.00D-06.
 No special actions if energy rises.
 Integral accuracy reduced to 1.0D-05 until final iterations.
 Initial convergence to 1.0D-05 achieved.  Increase integral accuracy.
 SCF Done:  E(RwB97XD) =  -617.238494505     A.U. after   15 cycles
            NFock= 15  Conv=0.58D-08     -V/T= 2.0097

 **********************************************************************

            Population analysis using the SCF Density.

 **********************************************************************

 Orbital symmetries:
       Occupied  (A) (A) (A) (A) (A) (A) (A) (A) (A) (A) (A) (A)
                 (A) (A) (A) (A) (A) (A) (A) (A) (A) (A) (A) (A)
                 (A) (A) (A) (A) (A) (A) (A) (A) (A) (A) (A) (A)
                 (A) (A) (A) (A) (A) (A) (A) (A) (A) (A) (A) (A)
                 (A)
       Virtual   (A) (A) (A) (A) (A) (A) (A) (A) (A) (A) (A) (A)
                 (A) (A) (A) (A) (A) (A) (A) (A) (A) (A) (A) (A)
                 (A) (A) (A) (A) (A) (A) (A) (A) (A) (A) (A) (A)
                 (A) (A) (A) (A) (A) (A) (A) (A) (A) (A) (A) (A)
                 (A) (A) (A) (A) (A) (A) (A) (A) (A) (A) (A) (A)
                 (A) (A) (A) (A) (A) (A) (A) (A) (A) (A) (A) (A)
                 (A) (A) (A) (A) (A) (A) (A) (A) (A) (A) (A) (A)
                 (A) (A) (A) (A) (A) (A) (A) (A) (A) (A) (A) (A)
                 (A) (A) (A) (A) (A) (A) (A) (A) (A) (A) (A) (A)
                 (A) (A) (A) (A) (A) (A) (A) (A) (A) (A) (A) (A)
                 (A) (A) (A) (A) (A) (A) (A) (A) (A) (A) (A) (A)
                 (A) (A) (A) (A) (A) (A) (A) (A) (A) (A) (A) (A)
                 (A) (A) (A) (A) (A) (A) (A) (A) (A) (A) (A) (A)
                 (A) (A) (A) (A) (A) (A) (A) (A) (A) (A) (A) (A)
                 (A) (A) (A) (A) (A) (A) (A) (A) (A) (A) (A) (A)
                 (A) (A) (A) (A) (A) (A) (A) (A) (A) (A) (A) (A)
                 (A) (A) (A) (A) (A)
 The electronic state is 1-A.
 Alpha  occ. eigenvalues --  -24.81768 -14.47377 -10.37760 -10.35170 -10.34876
 Alpha  occ. eigenvalues --  -10.30959 -10.30907 -10.30832 -10.30611 -10.30169
 Alpha  occ. eigenvalues --  -10.30084 -10.29909 -10.29615 -10.29217  -1.29672
 Alpha  occ. eigenvalues --   -1.04473  -0.96747  -0.94462  -0.86055  -0.85638
 Alpha  occ. eigenvalues --   -0.84554  -0.81380  -0.73153  -0.72002  -0.70258
 Alpha  occ. eigenvalues --   -0.68334  -0.63996  -0.63189  -0.61731  -0.58522
 Alpha  occ. eigenvalues --   -0.56826  -0.55108  -0.54636  -0.53516  -0.52644
 Alpha  occ. eigenvalues --   -0.52257  -0.51426  -0.49803  -0.49253  -0.48285
 Alpha  occ. eigenvalues --   -0.46472  -0.44612  -0.43082  -0.43041  -0.40708
 Alpha  occ. eigenvalues --   -0.34807  -0.33815  -0.33602  -0.26922
 Alpha virt. eigenvalues --    0.05011   0.05226   0.06103   0.09354   0.13518
 Alpha virt. eigenvalues --    0.14774   0.15051   0.18428   0.18847   0.20248
 Alpha virt. eigenvalues --    0.21788   0.22678   0.23120   0.23736   0.23940
 Alpha virt. eigenvalues --    0.24819   0.26032   0.29412   0.32600   0.34805
 Alpha virt. eigenvalues --    0.36761   0.37592   0.38012   0.38821   0.39343
 Alpha virt. eigenvalues --    0.40375   0.40735   0.43658   0.44482   0.46801
 Alpha virt. eigenvalues --    0.48507   0.48746   0.49853   0.50760   0.53549
 Alpha virt. eigenvalues --    0.53768   0.55357   0.55707   0.56210   0.57315
 Alpha virt. eigenvalues --    0.58229   0.58616   0.60198   0.60853   0.61158
 Alpha virt. eigenvalues --    0.62156   0.63426   0.64927   0.65133   0.66948
 Alpha virt. eigenvalues --    0.68388   0.69438   0.71183   0.72136   0.73250
 Alpha virt. eigenvalues --    0.73798   0.74903   0.75650   0.76492   0.77592
 Alpha virt. eigenvalues --    0.78130   0.78614   0.79821   0.80472   0.81035
 Alpha virt. eigenvalues --    0.81802   0.82415   0.84080   0.84202   0.85317
 Alpha virt. eigenvalues --    0.87554   0.88909   0.89107   0.91675   0.92317
 Alpha virt. eigenvalues --    0.93420   0.95594   0.97423   1.02254   1.02766
 Alpha virt. eigenvalues --    1.06578   1.07554   1.14905   1.16104   1.19490
 Alpha virt. eigenvalues --    1.21211   1.24206   1.26684   1.28696   1.29888
 Alpha virt. eigenvalues --    1.30739   1.31988   1.33122   1.33866   1.34224
 Alpha virt. eigenvalues --    1.36776   1.37214   1.38346   1.38493   1.40071
 Alpha virt. eigenvalues --    1.41759   1.44367   1.52469   1.55609   1.58142
 Alpha virt. eigenvalues --    1.58836   1.60389   1.69106   1.73079   1.74284
 Alpha virt. eigenvalues --    1.76514   1.77205   1.77685   1.80286   1.80921
 Alpha virt. eigenvalues --    1.81481   1.82712   1.83344   1.84515   1.84742
 Alpha virt. eigenvalues --    1.85484   1.86587   1.87087   1.87630   1.88412
 Alpha virt. eigenvalues --    1.91519   1.91979   1.93495   1.93654   1.95297
 Alpha virt. eigenvalues --    1.97884   2.00346   2.01264   2.04236   2.06775
 Alpha virt. eigenvalues --    2.07270   2.08251   2.10189   2.12026   2.15667
 Alpha virt. eigenvalues --    2.16632   2.18414   2.19792   2.21089   2.22445
 Alpha virt. eigenvalues --    2.23106   2.23486   2.24454   2.26287   2.29406
 Alpha virt. eigenvalues --    2.31977   2.32574   2.35431   2.37654   2.39341
 Alpha virt. eigenvalues --    2.40497   2.40988   2.44182   2.45138   2.45546
 Alpha virt. eigenvalues --    2.46033   2.48835   2.51094   2.59095   2.66577
 Alpha virt. eigenvalues --    2.67893   2.69979   2.71333   2.72173   2.72813
 Alpha virt. eigenvalues --    2.74415   2.77590   2.80196   2.84347   2.84736
 Alpha virt. eigenvalues --    2.85450   2.88636   2.92909   2.96618   3.00066
 Alpha virt. eigenvalues --    3.00625   3.00900   3.02373   3.11530   3.15686
 Alpha virt. eigenvalues --    3.17547   3.20617   3.22934   3.27783   3.29393
 Alpha virt. eigenvalues --    3.38190   3.40005   3.52725   3.64623   3.67525
 Alpha virt. eigenvalues --    3.80224   3.98824
          Condensed to atoms (all electrons):
               1          2          3          4          5          6
     1  F    8.986943   0.358901  -0.064936   0.005258  -0.064901   0.005108
     2  C    0.358901   4.902624   0.238684   0.113577   0.242094   0.113735
     3  C   -0.064936   0.238684   5.261175   0.226847   0.032328  -0.128886
     4  C    0.005258   0.113577   0.226847   5.214985  -0.126828   0.052188
     5  C   -0.064901   0.242094   0.032328  -0.126828   5.255743   0.229591
     6  C    0.005108   0.113735  -0.128886   0.052188   0.229591   5.193158
     7  C   -0.000278  -0.171865   0.122927   0.237150   0.119602   0.261908
     8  N    0.000000  -0.000119   0.006928  -0.075876   0.007355  -0.081984
     9  C   -0.000000   0.000039   0.000288  -0.010900  -0.000266   0.007389
    10  C    0.000000   0.000001  -0.000000  -0.000029  -0.000007  -0.000109
    11  C   -0.000000  -0.000000   0.000000   0.000069   0.000000  -0.000007
    12  C    0.000000  -0.000000   0.000000  -0.000043  -0.000000   0.000000
    13  C   -0.000000   0.000000  -0.000011  -0.000414   0.000000   0.000003
    14  C    0.000000  -0.000047  -0.000375  -0.004554   0.000072  -0.000052
    15  H    0.001283  -0.065804   0.439808  -0.063206   0.017837  -0.002764
    16  H   -0.000049   0.013948  -0.060905   0.460909  -0.003026   0.015581
    17  H    0.001252  -0.063313   0.017620  -0.002729   0.436745  -0.062040
    18  H   -0.000050   0.014571  -0.003260   0.017595  -0.058508   0.452267
    19  H   -0.000000  -0.000068  -0.000121   0.008542   0.000500  -0.017160
    20  H   -0.000000   0.000000   0.000000  -0.000007  -0.000001  -0.000020
    21  H    0.000000   0.000000  -0.000000  -0.000000   0.000000  -0.000000
    22  H    0.000000   0.000000  -0.000000   0.000000  -0.000000   0.000000
    23  H    0.000000   0.000000  -0.000002   0.000038  -0.000000   0.000000
    24  H    0.000000  -0.000120   0.000860   0.002461   0.000015  -0.000643
               7          8          9         10         11         12
     1  F   -0.000278   0.000000  -0.000000   0.000000  -0.000000   0.000000
     2  C   -0.171865  -0.000119   0.000039   0.000001  -0.000000  -0.000000
     3  C    0.122927   0.006928   0.000288  -0.000000   0.000000   0.000000
     4  C    0.237150  -0.075876  -0.010900  -0.000029   0.000069  -0.000043
     5  C    0.119602   0.007355  -0.000266  -0.000007   0.000000  -0.000000
     6  C    0.261908  -0.081984   0.007389  -0.000109  -0.000007   0.000000
     7  C    5.106605   0.350395  -0.036912   0.007611  -0.000303   0.000047
     8  N    0.350395   6.455658   0.352783  -0.084212   0.007650  -0.000300
     9  C   -0.036912   0.352783   5.081335   0.273944   0.114378  -0.161220
    10  C    0.007611  -0.084212   0.273944   5.174462   0.296980   0.080321
    11  C   -0.000303   0.007650   0.114378   0.296980   5.017180   0.288759
    12  C    0.000047  -0.000300  -0.161220   0.080321   0.288759   5.098909
    13  C    0.000246   0.007219   0.116311  -0.145766   0.094782   0.288566
    14  C   -0.010955  -0.078424   0.248712   0.057524  -0.145356   0.079617
    15  H    0.015152  -0.000091  -0.000014   0.000000  -0.000000   0.000000
    16  H   -0.072571  -0.010823   0.003872  -0.000657   0.000037  -0.000132
    17  H    0.015149  -0.000091   0.000004  -0.000000   0.000000  -0.000000
    18  H   -0.078840  -0.009530  -0.000052  -0.000021  -0.000001   0.000000
    19  H   -0.020100   0.362719  -0.019800  -0.016675   0.000439  -0.000040
    20  H   -0.000043  -0.010105  -0.080258   0.451282  -0.061493   0.015232
    21  H    0.000005  -0.000116   0.015229  -0.067224   0.451502  -0.069400
    22  H    0.000000   0.000009  -0.001646   0.014643  -0.070343   0.453464
    23  H   -0.000018  -0.000113   0.015243  -0.001934   0.014167  -0.071212
    24  H    0.003735  -0.011299  -0.073822   0.015053  -0.002301   0.014610
              13         14         15         16         17         18
     1  F   -0.000000   0.000000   0.001283  -0.000049   0.001252  -0.000050
     2  C    0.000000  -0.000047  -0.065804   0.013948  -0.063313   0.014571
     3  C   -0.000011  -0.000375   0.439808  -0.060905   0.017620  -0.003260
     4  C   -0.000414  -0.004554  -0.063206   0.460909  -0.002729   0.017595
     5  C    0.000000   0.000072   0.017837  -0.003026   0.436745  -0.058508
     6  C    0.000003  -0.000052  -0.002764   0.015581  -0.062040   0.452267
     7  C    0.000246  -0.010955   0.015152  -0.072571   0.015149  -0.078840
     8  N    0.007219  -0.078424  -0.000091  -0.010823  -0.000091  -0.009530
     9  C    0.116311   0.248712  -0.000014   0.003872   0.000004  -0.000052
    10  C   -0.145766   0.057524   0.000000  -0.000657  -0.000000  -0.000021
    11  C    0.094782  -0.145356  -0.000000   0.000037   0.000000  -0.000001
    12  C    0.288566   0.079617   0.000000  -0.000132  -0.000000   0.000000
    13  C    5.018426   0.294925  -0.000002   0.001031  -0.000000   0.000000
    14  C    0.294925   5.202227   0.000038   0.002950  -0.000000  -0.000008
    15  H   -0.000002   0.000038   0.647788  -0.013224  -0.000362   0.000025
    16  H    0.001031   0.002950  -0.013224   0.644917   0.000020  -0.000220
    17  H   -0.000000  -0.000000  -0.000362   0.000020   0.647734  -0.013585
    18  H    0.000000  -0.000008   0.000025  -0.000220  -0.013585   0.678208
    19  H   -0.000143   0.008553   0.000009  -0.000173  -0.000015   0.005086
    20  H   -0.002548   0.017095  -0.000000  -0.000015   0.000000  -0.000016
    21  H    0.013988  -0.001919   0.000000  -0.000001  -0.000000   0.000000
    22  H   -0.069625   0.015026   0.000000  -0.000001   0.000000   0.000000
    23  H    0.453811  -0.068065  -0.000000   0.000058   0.000000  -0.000000
    24  H   -0.063379   0.459705   0.000058  -0.004004  -0.000001  -0.000018
              19         20         21         22         23         24
     1  F   -0.000000  -0.000000   0.000000   0.000000   0.000000   0.000000
     2  C   -0.000068   0.000000   0.000000   0.000000   0.000000  -0.000120
     3  C   -0.000121   0.000000  -0.000000  -0.000000  -0.000002   0.000860
     4  C    0.008542  -0.000007  -0.000000   0.000000   0.000038   0.002461
     5  C    0.000500  -0.000001   0.000000  -0.000000  -0.000000   0.000015
     6  C   -0.017160  -0.000020  -0.000000   0.000000   0.000000  -0.000643
     7  C   -0.020100  -0.000043   0.000005   0.000000  -0.000018   0.003735
     8  N    0.362719  -0.010105  -0.000116   0.000009  -0.000113  -0.011299
     9  C   -0.019800  -0.080258   0.015229  -0.001646   0.015243  -0.073822
    10  C   -0.016675   0.451282  -0.067224   0.014643  -0.001934   0.015053
    11  C    0.000439  -0.061493   0.451502  -0.070343   0.014167  -0.002301
    12  C   -0.000040   0.015232  -0.069400   0.453464  -0.071212   0.014610
    13  C   -0.000143  -0.002548   0.013988  -0.069625   0.453811  -0.063379
    14  C    0.008553   0.017095  -0.001919   0.015026  -0.068065   0.459705
    15  H    0.000009  -0.000000   0.000000   0.000000  -0.000000   0.000058
    16  H   -0.000173  -0.000015  -0.000001  -0.000001   0.000058  -0.004004
    17  H   -0.000015   0.000000  -0.000000   0.000000   0.000000  -0.000001
    18  H    0.005086  -0.000016   0.000000   0.000000  -0.000000  -0.000018
    19  H    0.546283   0.005465  -0.000016  -0.000001   0.000010  -0.000198
    20  H    0.005465   0.691593  -0.013229  -0.000239   0.000025  -0.000200
    21  H   -0.000016  -0.013229   0.670732  -0.012388  -0.000264   0.000021
    22  H   -0.000001  -0.000239  -0.012388   0.674957  -0.012352  -0.000231
    23  H    0.000010   0.000025  -0.000264  -0.012352   0.670529  -0.012942
    24  H   -0.000198  -0.000200   0.000021  -0.000231  -0.012942   0.659260
 Mulliken charges:
               1
     1  F   -0.228532
     2  C    0.303162
     3  C   -0.088970
     4  C   -0.055033
     5  C   -0.088346
     6  C   -0.037265
     7  C    0.151353
     8  N   -0.187635
     9  C    0.155366
    10  C   -0.055187
    11  C   -0.006138
    12  C   -0.017180
    13  C   -0.007420
    14  C   -0.076689
    15  H    0.023469
    16  H    0.022478
    17  H    0.023612
    18  H   -0.003642
    19  H    0.136904
    20  H   -0.012515
    21  H    0.013081
    22  H    0.008727
    23  H    0.013020
    24  H    0.013380
 Sum of Mulliken charges =  -0.00000
 Mulliken charges with hydrogens summed into heavy atoms:
               1
     1  F   -0.228532
     2  C    0.303162
     3  C   -0.065501
     4  C   -0.032556
     5  C   -0.064734
     6  C   -0.040907
     7  C    0.151353
     8  N   -0.050730
     9  C    0.155366
    10  C   -0.067702
    11  C    0.006943
    12  C   -0.008453
    13  C    0.005600
    14  C   -0.063309
 Electronic spatial extent (au):  <R**2>=           3627.3135
 Charge=             -0.0000 electrons
 Dipole moment (field-independent basis, Debye):
    X=             -1.6096    Y=              1.3895    Z=              0.0090  Tot=              2.1264
 Quadrupole moment (field-independent basis, Debye-Ang):
   XX=            -85.4941   YY=            -70.4613   ZZ=            -83.6633
   XY=              2.7343   XZ=              2.1132   YZ=              0.1884
 Traceless Quadrupole moment (field-independent basis, Debye-Ang):
   XX=             -5.6212   YY=              9.4116   ZZ=             -3.7904
   XY=              2.7343   XZ=              2.1132   YZ=              0.1884
 Octapole moment (field-independent basis, Debye-Ang**2):
  XXX=            -37.4279  YYY=              5.6294  ZZZ=             -0.8021  XYY=              7.2979
  XXY=             13.9692  XXZ=             -1.8310  XZZ=             16.8535  YZZ=             -2.9047
  YYZ=              1.6321  XYZ=             13.1130
 Hexadecapole moment (field-independent basis, Debye-Ang**3):
 XXXX=          -4011.2964 YYYY=           -536.2047 ZZZZ=           -180.0338 XXXY=             68.0070
 XXXZ=             59.7235 YYYX=            -30.4537 YYYZ=              1.3457 ZZZX=             -0.6876
 ZZZY=              0.9100 XXYY=           -714.1526 XXZZ=           -713.6761 YYZZ=           -124.5320
 XXYZ=             -8.2811 YYXZ=             -1.2290 ZZXY=            -13.9918
 N-N= 7.906968318000D+02 E-N=-3.017341767151D+03  KE= 6.113333081681D+02
   1 Symmetry operations used in ECPInt.
 ECPInt:  NShTT=    6555 NPrTT=   24083 LenC2=    6124 LenP2D=   16554.
 LDataN:  DoStor=T MaxTD1= 5 Len=  102
 Calling FoFJK, ICntrl=      2127 FMM=F ISym2X=0 I1Cent= 0 IOpClX= 0 NMat=1 NMatS=1 NMatT=0.
 ***** Axes restored to original set *****
 -------------------------------------------------------------------
 Center     Atomic                   Forces (Hartrees/Bohr)
 Number     Number              X              Y              Z
 -------------------------------------------------------------------
      1        9          -0.018619079    0.007209358    0.000105143
      2        6           0.010161459   -0.004150929    0.000625621
      3        6           0.013598374   -0.004784565    0.000922183
      4        6          -0.004345308    0.005383959   -0.000565512
      5        6           0.014036570   -0.004164825   -0.001510147
      6        6          -0.009450239   -0.002128592   -0.000727926
      7        6          -0.021733384    0.005868077   -0.000654395
      8        7           0.000390852   -0.002119669   -0.000065891
      9        6           0.018827361    0.007812267    0.000973256
     10        6           0.008086489    0.003260623   -0.001090277
     11        6          -0.002036082   -0.000749804    0.001648993
     12        6          -0.007204018   -0.004280976   -0.000284099
     13        6          -0.002583718   -0.000230157   -0.001272180
     14        6           0.006519481    0.002843560    0.001882345
     15        1           0.001431781   -0.011015217   -0.004762890
     16        1          -0.006273071   -0.007412196   -0.004358922
     17        1           0.008507095    0.007404878    0.004210666
     18        1          -0.000679607    0.011076415    0.005026092
     19        1           0.000319709   -0.006275596   -0.000105705
     20        1           0.000029769    0.011605530   -0.005174166
     21        1          -0.008284412    0.005305542   -0.003625969
     22        1          -0.009148972   -0.005094134    0.000028867
     23        1           0.000273717   -0.009497080    0.004356522
     24        1           0.008175232   -0.005866469    0.004418391
 -------------------------------------------------------------------
 Cartesian Forces:  Max     0.021733384 RMS     0.006908520

 GradGradGradGradGradGradGradGradGradGradGradGradGradGradGradGradGradGrad
 Berny optimization.
 FormGI is forming the generalized inverse of G from B-inverse, IUseBI=4.
 Internal  Forces:  Max     0.019965960 RMS     0.005932315
 Search for a local minimum.
 Step number   1 out of a maximum of  130
 All quantities printed in internal units (Hartrees-Bohrs-Radians)
 Mixed Optimization -- RFO/linear search
 Second derivative matrix not updated -- first step.
 ITU=  0
     Eigenvalues ---    0.01518   0.01522   0.01526   0.01976   0.01977
     Eigenvalues ---    0.02192   0.02194   0.02272   0.02277   0.02294
     Eigenvalues ---    0.02297   0.02302   0.02338   0.02339   0.02340
     Eigenvalues ---    0.02340   0.02358   0.02367   0.02372   0.02372
     Eigenvalues ---    0.02377   0.15989   0.15989   0.15999   0.15999
     Eigenvalues ---    0.16000   0.16000   0.16000   0.16000   0.16000
     Eigenvalues ---    0.16000   0.21999   0.21999   0.22000   0.22000
     Eigenvalues ---    0.22962   0.23464   0.23997   0.24983   0.24984
     Eigenvalues ---    0.25000   0.36277   0.36283   0.36291   0.36489
     Eigenvalues ---    0.36497   0.36538   0.36542   0.36563   0.36564
     Eigenvalues ---    0.43121   0.43229   0.43511   0.43604   0.43821
     Eigenvalues ---    0.43825   0.44788   0.47363   0.47405   0.47661
     Eigenvalues ---    0.47981   0.48878   0.49129   0.49786   0.49987
     Eigenvalues ---    0.53023
 RFO step:  Lambda=-1.08028557D-02 EMin= 1.51798255D-02
 Linear search not attempted -- first point.
 Iteration  1 RMS(Cart)=  0.08413583 RMS(Int)=  0.00124417
 Iteration  2 RMS(Cart)=  0.00309499 RMS(Int)=  0.00006359
 Iteration  3 RMS(Cart)=  0.00000619 RMS(Int)=  0.00006356
 Iteration  4 RMS(Cart)=  0.00000000 RMS(Int)=  0.00006356
 Variable       Old X    -DE/DX   Delta X   Delta X   Delta X     New X
                                 (Linear)    (Quad)   (Total)
    R1        2.56932  -0.01997   0.00000  -0.03690  -0.03690   2.53242
    R2        2.61521   0.00476   0.00000   0.00936   0.00939   2.62460
    R3        2.61518   0.00425   0.00000   0.00820   0.00822   2.62341
    R4        2.59871   0.01554   0.00000   0.03053   0.03054   2.62925
    R5        2.03243   0.01203   0.00000   0.03198   0.03198   2.06441
    R6        2.63391   0.01135   0.00000   0.02417   0.02415   2.65805
    R7        2.03211   0.01040   0.00000   0.02762   0.02762   2.05973
    R8        2.59885   0.01505   0.00000   0.02936   0.02935   2.62820
    R9        2.03249   0.01200   0.00000   0.03189   0.03189   2.06438
   R10        2.63447   0.00937   0.00000   0.01993   0.01990   2.65437
   R11        2.03311   0.01205   0.00000   0.03207   0.03207   2.06519
   R12        2.67044  -0.01363   0.00000  -0.03057  -0.03057   2.63988
   R13        2.66932  -0.01347   0.00000  -0.03014  -0.03014   2.63918
   R14        1.92222  -0.00628   0.00000  -0.01369  -0.01369   1.90853
   R15        2.63504   0.00893   0.00000   0.01826   0.01825   2.65329
   R16        2.63460   0.01079   0.00000   0.02228   0.02228   2.65688
   R17        2.60090   0.01581   0.00000   0.03095   0.03094   2.63185
   R18        2.03324   0.01268   0.00000   0.03375   0.03375   2.06698
   R19        2.60983   0.01332   0.00000   0.02697   0.02697   2.63680
   R20        2.03642   0.01046   0.00000   0.02798   0.02798   2.06440
   R21        2.60970   0.01375   0.00000   0.02796   0.02797   2.63766
   R22        2.03629   0.01047   0.00000   0.02801   0.02801   2.06431
   R23        2.60074   0.01661   0.00000   0.03278   0.03278   2.63353
   R24        2.03651   0.01041   0.00000   0.02788   0.02788   2.06439
   R25        2.03209   0.01089   0.00000   0.02893   0.02893   2.06102
    A1        2.10162  -0.00409   0.00000  -0.01541  -0.01544   2.08618
    A2        2.10167  -0.00447   0.00000  -0.01687  -0.01690   2.08477
    A3        2.07989   0.00856   0.00000   0.03227   0.03232   2.11221
    A4        2.10392  -0.00402   0.00000  -0.01695  -0.01694   2.08698
    A5        2.06854   0.00313   0.00000   0.01502   0.01499   2.08353
    A6        2.11070   0.00088   0.00000   0.00185   0.00183   2.11253
    A7        2.10721  -0.00089   0.00000  -0.00194  -0.00198   2.10523
    A8        2.09589  -0.00187   0.00000  -0.01251  -0.01250   2.08339
    A9        2.07947   0.00276   0.00000   0.01461   0.01463   2.09409
   A10        2.10385  -0.00483   0.00000  -0.02120  -0.02120   2.08265
   A11        2.06871   0.00344   0.00000   0.01664   0.01662   2.08533
   A12        2.11062   0.00138   0.00000   0.00455   0.00453   2.11515
   A13        2.10708   0.00069   0.00000   0.00414   0.00408   2.11116
   A14        2.09977  -0.00208   0.00000  -0.01220  -0.01218   2.08759
   A15        2.07627   0.00139   0.00000   0.00814   0.00815   2.08442
   A16        2.06420   0.00048   0.00000   0.00365   0.00354   2.06774
   A17        2.12410   0.00571   0.00000   0.02078   0.02076   2.14486
   A18        2.09438  -0.00621   0.00000  -0.02496  -0.02496   2.06942
   A19        2.23631   0.00494   0.00000   0.02140   0.02140   2.25770
   A20        2.02307  -0.00232   0.00000  -0.00983  -0.00983   2.01324
   A21        2.02380  -0.00262   0.00000  -0.01155  -0.01156   2.01224
   A22        2.09342  -0.00734   0.00000  -0.02755  -0.02755   2.06587
   A23        2.12344   0.00561   0.00000   0.02211   0.02209   2.14553
   A24        2.06577   0.00171   0.00000   0.00502   0.00497   2.07074
   A25        2.10703  -0.00011   0.00000  -0.00163  -0.00166   2.10536
   A26        2.07537   0.00075   0.00000   0.00489   0.00491   2.08027
   A27        2.10074  -0.00064   0.00000  -0.00322  -0.00321   2.09753
   A28        2.09679   0.00159   0.00000   0.00744   0.00741   2.10420
   A29        2.09336  -0.00158   0.00000  -0.00832  -0.00833   2.08503
   A30        2.09303  -0.00001   0.00000   0.00089   0.00088   2.09391
   A31        2.09256  -0.00381   0.00000  -0.01467  -0.01467   2.07790
   A32        2.09539   0.00180   0.00000   0.00674   0.00674   2.10212
   A33        2.09521   0.00200   0.00000   0.00791   0.00791   2.10312
   A34        2.09674   0.00250   0.00000   0.01226   0.01225   2.10899
   A35        2.09312  -0.00041   0.00000  -0.00122  -0.00123   2.09189
   A36        2.09331  -0.00210   0.00000  -0.01109  -0.01111   2.08220
   A37        2.10729  -0.00189   0.00000  -0.00846  -0.00847   2.09882
   A38        2.07866   0.00245   0.00000   0.01311   0.01311   2.09177
   A39        2.09658  -0.00056   0.00000  -0.00451  -0.00452   2.09207
    D1        3.13496   0.00028   0.00000   0.00785   0.00784  -3.14038
    D2       -0.01409  -0.00010   0.00000  -0.00266  -0.00273  -0.01681
    D3       -0.00822   0.00007   0.00000   0.00159   0.00154  -0.00668
    D4        3.12591  -0.00031   0.00000  -0.00891  -0.00902   3.11689
    D5       -3.13675   0.00025   0.00000   0.00698   0.00695  -3.12980
    D6        0.00449  -0.00013   0.00000  -0.00387  -0.00391   0.00057
    D7        0.00643   0.00046   0.00000   0.01324   0.01324   0.01967
    D8       -3.13552   0.00008   0.00000   0.00239   0.00237  -3.13314
    D9       -0.00527  -0.00046   0.00000  -0.01263  -0.01269  -0.01796
   D10        3.09814  -0.00026   0.00000  -0.00743  -0.00751   3.09063
   D11       -3.13922  -0.00008   0.00000  -0.00193  -0.00200  -3.14122
   D12       -0.03581   0.00012   0.00000   0.00328   0.00318  -0.03263
   D13        0.02010   0.00027   0.00000   0.00861   0.00869   0.02878
   D14        3.12760  -0.00040   0.00000  -0.00972  -0.00986   3.11774
   D15       -3.08367   0.00017   0.00000   0.00404   0.00406  -3.07961
   D16        0.02384  -0.00049   0.00000  -0.01429  -0.01449   0.00935
   D17        0.00885  -0.00060   0.00000  -0.01711  -0.01706  -0.00822
   D18        3.13784  -0.00038   0.00000  -0.01039  -0.01040   3.12744
   D19       -3.13238  -0.00021   0.00000  -0.00600  -0.00601  -3.13839
   D20       -0.00339   0.00002   0.00000   0.00072   0.00066  -0.00273
   D21       -0.02188   0.00025   0.00000   0.00612   0.00623  -0.01564
   D22       -3.12998   0.00066   0.00000   0.02321   0.02307  -3.10691
   D23        3.13215   0.00005   0.00000  -0.00036  -0.00027   3.13188
   D24        0.02405   0.00046   0.00000   0.01673   0.01656   0.04061
   D25        0.45222   0.00159   0.00000   0.05968   0.05965   0.51188
   D26       -2.69457   0.00165   0.00000   0.06227   0.06224  -2.63233
   D27       -2.72404   0.00104   0.00000   0.04161   0.04164  -2.68240
   D28        0.41235   0.00111   0.00000   0.04420   0.04422   0.45658
   D29       -2.74966   0.00109   0.00000   0.04252   0.04253  -2.70713
   D30        0.42817   0.00149   0.00000   0.05629   0.05628   0.48445
   D31        0.39713   0.00102   0.00000   0.03993   0.03994   0.43707
   D32       -2.70822   0.00142   0.00000   0.05369   0.05369  -2.65453
   D33       -3.12716   0.00046   0.00000   0.01731   0.01708  -3.11008
   D34        0.02524   0.00034   0.00000   0.01327   0.01307   0.03831
   D35       -0.02062   0.00017   0.00000   0.00438   0.00432  -0.01630
   D36        3.13178   0.00004   0.00000   0.00033   0.00031   3.13209
   D37        3.12498  -0.00029   0.00000  -0.00574  -0.00598   3.11900
   D38        0.02220  -0.00036   0.00000  -0.00966  -0.00986   0.01235
   D39        0.01907   0.00029   0.00000   0.00848   0.00846   0.02753
   D40       -3.08371   0.00021   0.00000   0.00456   0.00458  -3.07913
   D41        0.00857  -0.00057   0.00000  -0.01536  -0.01544  -0.00687
   D42       -3.13378  -0.00016   0.00000  -0.00415  -0.00419  -3.13798
   D43        3.13919  -0.00043   0.00000  -0.01121  -0.01134   3.12786
   D44       -0.00316  -0.00002   0.00000   0.00001  -0.00009  -0.00325
   D45        0.00552   0.00046   0.00000   0.01328   0.01329   0.01881
   D46        3.14035   0.00035   0.00000   0.00971   0.00974  -3.13309
   D47       -3.13532   0.00005   0.00000   0.00207   0.00199  -3.13333
   D48       -0.00049  -0.00006   0.00000  -0.00150  -0.00156  -0.00204
   D49       -0.00706   0.00001   0.00000  -0.00043  -0.00038  -0.00745
   D50        3.12762  -0.00031   0.00000  -0.00951  -0.00953   3.11809
   D51        3.14129   0.00012   0.00000   0.00315   0.00317  -3.13872
   D52       -0.00721  -0.00020   0.00000  -0.00594  -0.00598  -0.01319
   D53       -0.00547  -0.00036   0.00000  -0.01044  -0.01044  -0.01591
   D54        3.09691  -0.00021   0.00000  -0.00608  -0.00617   3.09074
   D55       -3.14015  -0.00004   0.00000  -0.00139  -0.00138  -3.14153
   D56       -0.03777   0.00011   0.00000   0.00296   0.00289  -0.03488
         Item               Value     Threshold  Converged?
 Maximum Force            0.019966     0.000450     NO 
 RMS     Force            0.005932     0.000300     NO 
 Maximum Displacement     0.233038     0.001800     NO 
 RMS     Displacement     0.086139     0.001200     NO 
 Predicted change in Energy=-5.676402D-03
 GradGradGradGradGradGradGradGradGradGradGradGradGradGradGradGradGradGrad

                          Input orientation:                          
 ---------------------------------------------------------------------
 Center     Atomic      Atomic             Coordinates (Angstroms)
 Number     Number       Type             X           Y           Z
 ---------------------------------------------------------------------
      1          9           0        4.656448   -0.691661   -0.096089
      2          6           0        3.385948   -0.265740   -0.079263
      3          6           0        2.385917   -1.074270   -0.603861
      4          6           0        1.066705   -0.632391   -0.588193
      5          6           0        3.091247    0.981556    0.454250
      6          6           0        1.770096    1.415137    0.483330
      7          6           0        0.735306    0.614210   -0.027273
      8          7           0       -0.568176    1.116385   -0.011090
      9          6           0       -1.782347    0.427301    0.026671
     10          6           0       -2.925995    1.062514   -0.483187
     11          6           0       -4.167775    0.433770   -0.435068
     12          6           0       -4.295903   -0.842729    0.113646
     13          6           0       -3.164989   -1.473020    0.635182
     14          6           0       -1.920231   -0.847124    0.604216
     15          1           0        2.651018   -2.041042   -1.038026
     16          1           0        0.291239   -1.248199   -1.043657
     17          1           0        3.898573    1.600111    0.852993
     18          1           0        1.531279    2.390576    0.914383
     19          1           0       -0.643841    2.123374   -0.026940
     20          1           0       -2.830474    2.057943   -0.926354
     21          1           0       -5.044510    0.944091   -0.840431
     22          1           0       -5.269460   -1.337316    0.143206
     23          1           0       -3.254387   -2.463242    1.087803
     24          1           0       -1.056289   -1.333515    1.058681
 ---------------------------------------------------------------------
                    Distance matrix (angstroms):
                    1          2          3          4          5
     1  F    0.000000
     2  C    1.340098   0.000000
     3  C    2.357866   1.388880   0.000000
     4  C    3.623801   2.402568   1.391339   0.000000
     5  C    2.356349   1.388248   2.417335   2.791108   0.000000
     6  C    3.620132   2.398507   2.785385   2.415635   1.390783
     7  C    4.133448   2.793370   2.430624   1.406581   2.432543
     8  N    5.529282   4.189274   3.725187   2.462540   3.691354
     9  C    6.536454   5.215630   4.475121   3.101306   4.923610
    10  C    7.792330   6.462819   5.726850   4.338822   6.090364
    11  C    8.902157   7.594382   6.727076   5.344148   7.333781
    12  C    8.956081   7.705904   6.724220   5.412428   7.616693
    13  C    7.894311   6.699457   5.701472   4.484477   6.722958
    14  C    6.615687   5.381514   4.478165   3.223312   5.336804
    15  H    2.594190   2.147334   1.092440   2.167186   3.399527
    16  H    4.501408   3.387109   2.147405   1.089961   3.880152
    17  H    2.593714   2.147856   3.400422   3.883370   1.092420
    18  H    4.504212   3.388679   3.878225   3.407623   2.151874
    19  H    6.001855   4.685061   4.442657   3.291689   3.935248
    20  H    8.018957   6.690364   6.093070   4.747658   6.175067
    21  H    9.866019   8.550771   7.703311   6.316318   8.238213
    22  H    9.949763   8.724326   7.696240   6.417075   8.681897
    23  H    8.192765   7.091199   6.050123   4.983253   7.248109
    24  H    5.863517   4.708346   3.831453   2.776845   4.788209
                    6          7          8          9         10
     6  C    0.000000
     7  C    1.404632   0.000000
     8  N    2.408572   1.396964   0.000000
     9  C    3.715402   2.525158   1.396594   0.000000
    10  C    4.807470   3.716713   2.405221   1.404059   0.000000
    11  C    6.088091   4.923318   3.688202   2.429714   1.392714
    12  C    6.483130   5.239808   4.213032   2.817535   2.421324
    13  C    5.720103   4.472994   3.723724   2.427592   2.781510
    14  C    4.330238   3.096152   2.462118   1.405962   2.416758
    15  H    3.877593   3.426651   4.624625   5.184691   6.406479
    16  H    3.407649   2.167671   2.719568   2.872745   4.000514
    17  H    2.168243   3.428283   4.575202   5.859278   6.974891
    18  H    1.092850   2.162352   2.624456   3.952543   4.856360
    19  H    2.566918   2.044413   1.009952   2.043462   2.557697
    20  H    4.854447   3.950633   2.615766   2.160051   1.093801
    21  H    6.957951   5.846052   4.555772   3.414769   2.151687
    22  H    7.566177   6.316228   5.305330   3.909912   3.412240
    23  H    6.375942   5.160596   4.608365   3.412937   3.873862
    24  H    3.984290   2.860549   2.717475   2.166258   3.407947
                   11         12         13         14         15
    11  C    0.000000
    12  C    1.395333   0.000000
    13  C    2.405590   1.395791   0.000000
    14  C    2.787876   2.425797   1.393602   0.000000
    15  H    7.279024   7.142969   6.078504   5.001872   0.000000
    16  H    4.804394   4.748223   3.848968   2.786925   2.489416
    17  H    8.251389   8.582746   7.706197   6.317383   4.288396
    18  H    6.174894   6.712040   6.087713   4.742555   4.970408
    19  H    3.929306   4.706920   4.441694   3.294145   5.405622
    20  H    2.160480   3.412181   3.875306   3.407433   6.845503
    21  H    1.092434   2.159492   3.398891   3.880280   8.256587
    22  H    2.164453   1.092385   2.165469   3.416160   8.038938
    23  H    3.397954   2.158656   1.092427   2.150736   6.290565
    24  H    3.877618   3.410140   2.155325   1.090647   4.317511
                   16         17         18         19         20
    16  H    0.000000
    17  H    4.972224   0.000000
    18  H    4.314198   2.496534   0.000000
    19  H    3.643569   4.656351   2.385085   0.000000
    20  H    4.548563   6.975368   4.745929   2.365289   0.000000
    21  H    5.772145   9.125611   6.957923   4.627998   2.479921
    22  H    5.686648   9.653243   7.793712   5.779419   4.315136
    23  H    4.311718   8.229873   6.818520   5.393946   4.967660
    24  H    2.498586   5.761868   4.537089   3.646748   4.311621
                   21         22         23         24
    21  H    0.000000
    22  H    2.494587   0.000000
    23  H    4.304945   2.494092   0.000000
    24  H    4.969912   4.311487   2.471592   0.000000
 Stoichiometry    C12H10FN
 Framework group  C1[X(C12H10FN)]
 Deg. of freedom    66
 Full point group                 C1      NOp   1
 Largest Abelian subgroup         C1      NOp   1
 Largest concise Abelian subgroup C1      NOp   1
                         Standard orientation:                         
 ---------------------------------------------------------------------
 Center     Atomic      Atomic             Coordinates (Angstroms)
 Number     Number       Type             X           Y           Z
 ---------------------------------------------------------------------
      1          9           0        4.713820   -0.777371   -0.069615
      2          6           0        3.450148   -0.331395   -0.059564
      3          6           0        2.440189   -1.124244   -0.589053
      4          6           0        1.128071   -0.661542   -0.580419
      5          6           0        3.172451    0.920653    0.471936
      6          6           0        1.858193    1.375096    0.493975
      7          6           0        0.813527    0.590405   -0.021704
      8          7           0       -0.481912    1.113147   -0.012495
      9          6           0       -1.707014    0.443376    0.019207
     10          6           0       -2.837802    1.096368   -0.496837
     11          6           0       -4.089608    0.487371   -0.454945
     12          6           0       -4.240769   -0.786688    0.093579
     13          6           0       -3.122697   -1.434551    0.621233
     14          6           0       -1.868047   -0.828441    0.596509
     15          1           0        2.692213   -2.095289   -1.021466
     16          1           0        0.345336   -1.265214   -1.039680
     17          1           0        3.987380    1.526543    0.874641
     18          1           0        1.632603    2.354389    0.923410
     19          1           0       -0.541550    2.121200   -0.029121
     20          1           0       -2.724240    2.089957   -0.939878
     21          1           0       -4.956040    1.011313   -0.865059
     22          1           0       -5.222172   -1.265796    0.118259
     23          1           0       -3.230103   -2.423026    1.073757
     24          1           0       -1.014283   -1.328230    1.055648
 ---------------------------------------------------------------------
 Rotational constants (GHZ):           2.3303579           0.3035255           0.2792653
 Standard basis: def2SVP (5D, 7F)
 There are   260 symmetry adapted cartesian basis functions of A   symmetry.
 There are   246 symmetry adapted basis functions of A   symmetry.
   246 basis functions,   420 primitive gaussians,   260 cartesian basis functions
    49 alpha electrons       49 beta electrons
       nuclear repulsion energy       786.0654580947 Hartrees.
 NAtoms=   24 NActive=   24 NUniq=   24 SFac= 1.00D+00 NAtFMM=   60 NAOKFM=F Big=F
 Integral buffers will be    131072 words long.
 Raffenetti 2 integral format.
 Two-electron integral symmetry is turned on.
 Nuclear repulsion after empirical dispersion term =      786.0517522064 Hartrees.
 One-electron integrals computed using PRISM.
   1 Symmetry operations used in ECPInt.
 ECPInt:  NShTT=    6555 NPrTT=   24083 LenC2=    6106 LenP2D=   16476.
 LDataN:  DoStor=T MaxTD1= 4 Len=   56
 NBasis=   246 RedAO= T EigKep=  2.48D-04  NBF=   246
 NBsUse=   246 1.00D-06 EigRej= -1.00D+00 NBFU=   246
 Initial guess from the checkpoint file:  "prod_3b_1.chk"
 B after Tr=     0.000000    0.000000    0.000000
         Rot=    0.999997   -0.000467    0.002062    0.001411 Ang=  -0.29 deg.
 ExpMin= 1.22D-01 ExpMax= 2.89D+03 ExpMxC= 4.35D+02 IAcc=3 IRadAn=         5 AccDes= 0.00D+00
 Harris functional with IExCor= 4639 and IRadAn=       5 diagonalized for initial guess.
 HarFok:  IExCor= 4639 AccDes= 0.00D+00 IRadAn=         5 IDoV= 1 UseB2=F ITyADJ=14
 ICtDFT=  3500011 ScaDFX=  1.000000  1.000000  1.000000  1.000000
 FoFCou: FMM=F IPFlag=           0 FMFlag=      100000 FMFlg1=           0
         NFxFlg=           0 DoJE=T BraDBF=F KetDBF=T FulRan=T
         wScrn=  0.000000 ICntrl=       500 IOpCl=  0 I1Cent=   200000004 NGrid=           0
         NMat0=    1 NMatS0=      1 NMatT0=    0 NMatD0=    1 NMtDS0=    0 NMtDT0=    0
 Petite list used in FoFCou.
 Requested convergence on RMS density matrix=1.00D-08 within 128 cycles.
 Requested convergence on MAX density matrix=1.00D-06.
 Requested convergence on             energy=1.00D-06.
 No special actions if energy rises.
 Integral accuracy reduced to 1.0D-05 until final iterations.
 Initial convergence to 1.0D-05 achieved.  Increase integral accuracy.
 SCF Done:  E(RwB97XD) =  -617.243379388     A.U. after   13 cycles
            NFock= 13  Conv=0.63D-08     -V/T= 2.0104
   1 Symmetry operations used in ECPInt.
 ECPInt:  NShTT=    6555 NPrTT=   24083 LenC2=    6106 LenP2D=   16476.
 LDataN:  DoStor=T MaxTD1= 5 Len=  102
 Calling FoFJK, ICntrl=      2127 FMM=F ISym2X=0 I1Cent= 0 IOpClX= 0 NMat=1 NMatS=1 NMatT=0.
 ***** Axes restored to original set *****
 -------------------------------------------------------------------
 Center     Atomic                   Forces (Hartrees/Bohr)
 Number     Number              X              Y              Z
 -------------------------------------------------------------------
      1        9          -0.002768810    0.000853292    0.000013508
      2        6           0.002427897   -0.001093655   -0.000191422
      3        6           0.000997981   -0.000677752    0.000230398
      4        6          -0.001386865    0.002645340    0.000847054
      5        6           0.001475031    0.000953159    0.000114400
      6        6          -0.000237078   -0.001730090    0.000130114
      7        6          -0.001201588   -0.000128830   -0.000393288
      8        7          -0.000444343   -0.001704383    0.000077757
      9        6           0.001952686    0.000396975    0.000742140
     10        6          -0.001863339   -0.001188933   -0.000452457
     11        6           0.001010450   -0.000192451    0.000630664
     12        6           0.000450446   -0.000094400    0.000291227
     13        6          -0.000278299    0.001683451   -0.001238591
     14        6           0.000147600    0.001014024   -0.000522998
     15        1          -0.000318890    0.000737043    0.000302890
     16        1          -0.001054079   -0.000613127    0.000769416
     17        1          -0.000653809   -0.000456835   -0.000370804
     18        1           0.000077849   -0.000275713    0.000327108
     19        1          -0.000090282    0.000425168   -0.000329563
     20        1          -0.000281263   -0.000542503   -0.000235196
     21        1           0.000170574    0.000247063    0.000018185
     22        1           0.000605751    0.000218105   -0.000055620
     23        1           0.000374129    0.000032316    0.000114225
     24        1           0.000888252   -0.000507263   -0.000819146
 -------------------------------------------------------------------
 Cartesian Forces:  Max     0.002768810 RMS     0.000924764

 GradGradGradGradGradGradGradGradGradGradGradGradGradGradGradGradGradGrad
 Berny optimization.
 Using GEDIIS/GDIIS optimizer.
 FormGI is forming the generalized inverse of G from B-inverse, IUseBI=4.
 Internal  Forces:  Max     0.005795835 RMS     0.001180368
 Search for a local minimum.
 Step number   2 out of a maximum of  130
 All quantities printed in internal units (Hartrees-Bohrs-Radians)
 Mixed Optimization -- RFO/linear search
 Update second derivatives using D2CorX and points    1    2
 DE= -4.88D-03 DEPred=-5.68D-03 R= 8.61D-01
 TightC=F SS=  1.41D+00  RLast= 2.26D-01 DXNew= 5.0454D-01 6.7668D-01
 Trust test= 8.61D-01 RLast= 2.26D-01 DXMaxT set to 5.05D-01
 ITU=  1  0
 Use linear search instead of GDIIS.
     Eigenvalues ---    0.01521   0.01522   0.01648   0.01980   0.02011
     Eigenvalues ---    0.02184   0.02193   0.02272   0.02276   0.02292
     Eigenvalues ---    0.02297   0.02302   0.02336   0.02338   0.02340
     Eigenvalues ---    0.02343   0.02359   0.02366   0.02372   0.02372
     Eigenvalues ---    0.02377   0.15934   0.15991   0.15997   0.15999
     Eigenvalues ---    0.15999   0.15999   0.15999   0.15999   0.16000
     Eigenvalues ---    0.16037   0.21537   0.21999   0.22000   0.22277
     Eigenvalues ---    0.23007   0.23455   0.23899   0.24966   0.24999
     Eigenvalues ---    0.26502   0.35861   0.36280   0.36313   0.36357
     Eigenvalues ---    0.36494   0.36515   0.36540   0.36563   0.36994
     Eigenvalues ---    0.41936   0.43207   0.43427   0.43564   0.43899
     Eigenvalues ---    0.44027   0.44841   0.47291   0.47390   0.47731
     Eigenvalues ---    0.48683   0.48872   0.49123   0.49579   0.51078
     Eigenvalues ---    0.52604
 RFO step:  Lambda=-8.94441730D-04 EMin= 1.52110526D-02
 Quartic linear search produced a step of -0.07681.
 Iteration  1 RMS(Cart)=  0.06713242 RMS(Int)=  0.00094718
 Iteration  2 RMS(Cart)=  0.00172928 RMS(Int)=  0.00003582
 Iteration  3 RMS(Cart)=  0.00000101 RMS(Int)=  0.00003582
 Iteration  4 RMS(Cart)=  0.00000000 RMS(Int)=  0.00003582
 Variable       Old X    -DE/DX   Delta X   Delta X   Delta X     New X
                                 (Linear)    (Quad)   (Total)
    R1        2.53242  -0.00290   0.00283  -0.01152  -0.00868   2.52373
    R2        2.62460  -0.00034  -0.00072   0.00111   0.00039   2.62499
    R3        2.62341  -0.00004  -0.00063   0.00157   0.00093   2.62434
    R4        2.62925   0.00053  -0.00235   0.00625   0.00391   2.63316
    R5        2.06441  -0.00085  -0.00246   0.00347   0.00101   2.06543
    R6        2.65805  -0.00288  -0.00185  -0.00166  -0.00350   2.65455
    R7        2.05973   0.00078  -0.00212   0.00680   0.00468   2.06441
    R8        2.62820   0.00048  -0.00225   0.00613   0.00386   2.63206
    R9        2.06438  -0.00088  -0.00245   0.00338   0.00093   2.06531
   R10        2.65437  -0.00042  -0.00153   0.00256   0.00103   2.65540
   R11        2.06519  -0.00013  -0.00246   0.00529   0.00283   2.06801
   R12        2.63988  -0.00256   0.00235  -0.01079  -0.00844   2.63144
   R13        2.63918  -0.00333   0.00232  -0.01234  -0.01003   2.62915
   R14        1.90853   0.00044   0.00105  -0.00151  -0.00045   1.90808
   R15        2.65329   0.00038  -0.00140   0.00401   0.00260   2.65589
   R16        2.65688  -0.00239  -0.00171  -0.00087  -0.00258   2.65431
   R17        2.63185  -0.00158  -0.00238   0.00260   0.00021   2.63206
   R18        2.06698  -0.00042  -0.00259   0.00486   0.00227   2.06925
   R19        2.63680  -0.00087  -0.00207   0.00314   0.00106   2.63786
   R20        2.06440  -0.00003  -0.00215   0.00484   0.00269   2.06709
   R21        2.63766  -0.00123  -0.00215   0.00255   0.00041   2.63807
   R22        2.06431  -0.00064  -0.00215   0.00329   0.00114   2.06545
   R23        2.63353  -0.00136  -0.00252   0.00315   0.00064   2.63417
   R24        2.06439  -0.00001  -0.00214   0.00486   0.00272   2.06711
   R25        2.06102   0.00059  -0.00222   0.00656   0.00434   2.06536
    A1        2.08618   0.00002   0.00119  -0.00291  -0.00172   2.08446
    A2        2.08477   0.00021   0.00130  -0.00247  -0.00116   2.08361
    A3        2.11221  -0.00023  -0.00248   0.00543   0.00291   2.11512
    A4        2.08698   0.00007   0.00130  -0.00267  -0.00137   2.08561
    A5        2.08353   0.00009  -0.00115   0.00320   0.00205   2.08559
    A6        2.11253  -0.00016  -0.00014  -0.00056  -0.00070   2.11183
    A7        2.10523   0.00023   0.00015   0.00001   0.00012   2.10535
    A8        2.08339   0.00039   0.00096   0.00072   0.00163   2.08502
    A9        2.09409  -0.00060  -0.00112  -0.00017  -0.00135   2.09274
   A10        2.08265  -0.00056   0.00163  -0.00546  -0.00388   2.07876
   A11        2.08533   0.00030  -0.00128   0.00385   0.00258   2.08791
   A12        2.11515   0.00026  -0.00035   0.00153   0.00119   2.11635
   A13        2.11116   0.00027  -0.00031   0.00179   0.00143   2.11260
   A14        2.08759  -0.00024   0.00094  -0.00325  -0.00230   2.08529
   A15        2.08442  -0.00003  -0.00063   0.00149   0.00088   2.08530
   A16        2.06774   0.00023  -0.00027   0.00115   0.00080   2.06854
   A17        2.14486  -0.00365  -0.00159  -0.00918  -0.01084   2.13403
   A18        2.06942   0.00344   0.00192   0.00895   0.01082   2.08023
   A19        2.25770  -0.00580  -0.00164  -0.02049  -0.02214   2.23557
   A20        2.01324   0.00294   0.00076   0.01067   0.01142   2.02466
   A21        2.01224   0.00285   0.00089   0.00983   0.01072   2.02296
   A22        2.06587   0.00358   0.00212   0.00867   0.01073   2.07660
   A23        2.14553  -0.00381  -0.00170  -0.00986  -0.01163   2.13390
   A24        2.07074   0.00025  -0.00038   0.00210   0.00164   2.07237
   A25        2.10536  -0.00022   0.00013  -0.00088  -0.00079   2.10457
   A26        2.08027   0.00044  -0.00038   0.00305   0.00268   2.08295
   A27        2.09753  -0.00022   0.00025  -0.00213  -0.00187   2.09566
   A28        2.10420  -0.00014  -0.00057   0.00101   0.00040   2.10460
   A29        2.08503  -0.00023   0.00064  -0.00304  -0.00239   2.08264
   A30        2.09391   0.00037  -0.00007   0.00197   0.00192   2.09583
   A31        2.07790  -0.00012   0.00113  -0.00308  -0.00199   2.07591
   A32        2.10212   0.00012  -0.00052   0.00180   0.00128   2.10340
   A33        2.10312   0.00001  -0.00061   0.00137   0.00076   2.10387
   A34        2.10899   0.00049  -0.00094   0.00387   0.00293   2.11192
   A35        2.09189   0.00016   0.00009   0.00125   0.00134   2.09323
   A36        2.08220  -0.00065   0.00085  -0.00513  -0.00428   2.07792
   A37        2.09882  -0.00024   0.00065  -0.00271  -0.00211   2.09671
   A38        2.09177  -0.00019  -0.00101   0.00133   0.00027   2.09204
   A39        2.09207   0.00045   0.00035   0.00196   0.00225   2.09432
    D1       -3.14038   0.00006  -0.00060   0.00384   0.00325  -3.13714
    D2       -0.01681   0.00007   0.00021   0.00235   0.00256  -0.01426
    D3       -0.00668   0.00026  -0.00012   0.01130   0.01119   0.00451
    D4        3.11689   0.00027   0.00069   0.00980   0.01050   3.12739
    D5       -3.12980   0.00015  -0.00053   0.00781   0.00729  -3.12250
    D6        0.00057  -0.00000   0.00030  -0.00097  -0.00067  -0.00010
    D7        0.01967  -0.00005  -0.00102   0.00037  -0.00064   0.01903
    D8       -3.13314  -0.00020  -0.00018  -0.00841  -0.00861   3.14143
    D9       -0.01796  -0.00006   0.00097  -0.00440  -0.00344  -0.02140
   D10        3.09063   0.00045   0.00058   0.01553   0.01610   3.10673
   D11       -3.14122  -0.00008   0.00015  -0.00292  -0.00277   3.13920
   D12       -0.03263   0.00043  -0.00024   0.01701   0.01677  -0.01586
   D13        0.02878  -0.00035  -0.00067  -0.01380  -0.01446   0.01433
   D14        3.11774   0.00030   0.00076   0.00730   0.00796   3.12569
   D15       -3.07961  -0.00088  -0.00031  -0.03387  -0.03413  -3.11374
   D16        0.00935  -0.00024   0.00111  -0.01277  -0.01172  -0.00237
   D17       -0.00822  -0.00039   0.00131  -0.01921  -0.01792  -0.02614
   D18        3.12744  -0.00023   0.00080  -0.01201  -0.01125   3.11619
   D19       -3.13839  -0.00023   0.00046  -0.01029  -0.00983   3.13497
   D20       -0.00273  -0.00007  -0.00005  -0.00309  -0.00316  -0.00589
   D21       -0.01564   0.00058  -0.00048   0.02575   0.02529   0.00965
   D22       -3.10691   0.00017  -0.00177   0.00611   0.00424  -3.10267
   D23        3.13188   0.00041   0.00002   0.01857   0.01863  -3.13268
   D24        0.04061   0.00001  -0.00127  -0.00106  -0.00242   0.03819
   D25        0.51188  -0.00096  -0.00458  -0.04112  -0.04569   0.46619
   D26       -2.63233  -0.00093  -0.00478  -0.03892  -0.04369  -2.67602
   D27       -2.68240  -0.00041  -0.00320  -0.02022  -0.02342  -2.70583
   D28        0.45658  -0.00038  -0.00340  -0.01802  -0.02143   0.43515
   D29       -2.70713  -0.00063  -0.00327  -0.03226  -0.03553  -2.74267
   D30        0.48445  -0.00118  -0.00432  -0.05391  -0.05822   0.42622
   D31        0.43707  -0.00066  -0.00307  -0.03445  -0.03753   0.39954
   D32       -2.65453  -0.00121  -0.00412  -0.05611  -0.06022  -2.71475
   D33       -3.11008   0.00014  -0.00131   0.00386   0.00243  -3.10765
   D34        0.03831   0.00001  -0.00100  -0.00189  -0.00300   0.03531
   D35       -0.01630   0.00054  -0.00033   0.02421   0.02391   0.00761
   D36        3.13209   0.00041  -0.00002   0.01846   0.01849  -3.13261
   D37        3.11900   0.00028   0.00046   0.00742   0.00777   3.12677
   D38        0.01235  -0.00023   0.00076  -0.01175  -0.01107   0.00127
[...]
 Alpha virt. eigenvalues --    2.92021   2.92452   2.93282   2.94061   2.94975
 Alpha virt. eigenvalues --    2.95723   2.97063   2.97459   2.98465   3.00184
 Alpha virt. eigenvalues --    3.01972   3.03700   3.04122   3.05408   3.06758
 Alpha virt. eigenvalues --    3.09413   3.09643   3.11483   3.16095   3.16801
 Alpha virt. eigenvalues --    3.16993   3.17510   3.19036   3.20118   3.21025
 Alpha virt. eigenvalues --    3.21593   3.22024   3.22833   3.23379   3.23664
 Alpha virt. eigenvalues --    3.24339   3.25640   3.26448   3.26880   3.28390
 Alpha virt. eigenvalues --    3.28833   3.31030   3.31825   3.32283   3.34752
 Alpha virt. eigenvalues --    3.35109   3.35602   3.36170   3.37018   3.40845
 Alpha virt. eigenvalues --    3.42056   3.42210   3.43175   3.44281   3.44803
 Alpha virt. eigenvalues --    3.45232   3.46155   3.46900   3.48395   3.49248
 Alpha virt. eigenvalues --    3.50516   3.51140   3.52052   3.53636   3.54773
 Alpha virt. eigenvalues --    3.55419   3.55867   3.57102   3.57685   3.59200
 Alpha virt. eigenvalues --    3.59748   3.60498   3.60929   3.61872   3.64307
 Alpha virt. eigenvalues --    3.65524   3.66755   3.69722   3.72759   3.76238
 Alpha virt. eigenvalues --    3.77255   3.78597   3.80323   3.83922   3.85450
 Alpha virt. eigenvalues --    3.86327   3.88375   3.90535   3.92017   3.99350
 Alpha virt. eigenvalues --    4.00400   4.01704   4.04197   4.05836   4.06034
 Alpha virt. eigenvalues --    4.07819   4.08314   4.10654   4.11734   4.14884
 Alpha virt. eigenvalues --    4.15003   4.16037   4.17250   4.17908   4.20873
 Alpha virt. eigenvalues --    4.23158   4.25205   4.27150   4.27296   4.28344
 Alpha virt. eigenvalues --    4.28565   4.29385   4.30309   4.31090   4.32779
 Alpha virt. eigenvalues --    4.33082   4.35840   4.36608   4.38050   4.38725
 Alpha virt. eigenvalues --    4.41225   4.49438   4.52485   4.54421   4.57043
 Alpha virt. eigenvalues --    4.67034   4.67517   4.69609   4.70089   4.72301
 Alpha virt. eigenvalues --    4.76776   4.78496   4.81467   4.84122   4.88622
 Alpha virt. eigenvalues --    4.90622   4.92856   4.95097   4.95430   4.95969
 Alpha virt. eigenvalues --    4.97895   4.99887   5.09507   5.12866   5.19232
 Alpha virt. eigenvalues --    5.19999   5.23604   5.26374   5.29465   5.33090
 Alpha virt. eigenvalues --    5.36942   5.37259   5.40085   5.42185   5.50183
 Alpha virt. eigenvalues --    5.52739   5.58902   5.59248   5.66101   5.72455
 Alpha virt. eigenvalues --    5.90579   5.96687   6.13324   6.21947   6.96143
 Alpha virt. eigenvalues --    6.97170   7.07970   7.16495   7.34111   7.53668
 Alpha virt. eigenvalues --    7.68199   8.44324   8.62386   8.85575   9.06788
 Alpha virt. eigenvalues --    9.09917  22.18622  22.24138  22.68388  22.69357
 Alpha virt. eigenvalues --   22.74367  22.77928  22.80929  22.82362  22.91341
 Alpha virt. eigenvalues --   23.01752  23.31377  23.38694  32.84393  57.43328
          Condensed to atoms (all electrons):
               1          2          3          4          5          6
     1  F    9.040378   0.268721  -0.061224   0.013534  -0.060830   0.013614
     2  C    0.268721   4.668768   0.411510   0.075609   0.427206   0.053298
     3  C   -0.061224   0.411510   5.175301   0.280686  -0.015630  -0.067307
     4  C    0.013534   0.075609   0.280686   5.354766  -0.083146  -0.000417
     5  C   -0.060830   0.427206  -0.015630  -0.083146   5.181903   0.296460
     6  C    0.013614   0.053298  -0.067307  -0.000417   0.296460   5.276673
     7  C   -0.002724  -0.101758   0.009731   0.357056  -0.015453   0.349121
     8  N   -0.000005   0.001209   0.002874  -0.034043   0.012433  -0.009328
     9  C   -0.000000  -0.000524   0.000475  -0.005174   0.001978   0.009995
    10  C    0.000000   0.000040  -0.000138   0.010731  -0.000269  -0.009258
    11  C   -0.000000   0.000006  -0.000016   0.000950  -0.000022  -0.000378
    12  C    0.000000  -0.000003   0.000007  -0.000452   0.000007   0.000081
    13  C   -0.000000   0.000019   0.000124   0.003458  -0.000048  -0.000089
    14  C   -0.000000  -0.000466   0.002980  -0.017813   0.000626   0.012444
    15  H    0.000595  -0.054238   0.438643  -0.056611   0.014064  -0.004986
    16  H   -0.000051   0.003980  -0.022238   0.421510  -0.001955   0.004734
    17  H    0.000580  -0.054084   0.013752  -0.004566   0.433997  -0.052449
    18  H   -0.000043   0.005140  -0.001551   0.004995  -0.017308   0.428007
    19  H   -0.000000  -0.000008  -0.000233   0.007405   0.001260   0.000626
    20  H   -0.000000  -0.000001   0.000011   0.000254   0.000003  -0.000445
    21  H    0.000000  -0.000000   0.000000  -0.000009   0.000000   0.000003
    22  H   -0.000000  -0.000000  -0.000000  -0.000003   0.000000   0.000000
    23  H    0.000000   0.000001  -0.000005   0.000078  -0.000001  -0.000000
    24  H    0.000001  -0.000198   0.000109  -0.006107   0.000154  -0.000059
               7          8          9         10         11         12
     1  F   -0.002724  -0.000005  -0.000000   0.000000  -0.000000   0.000000
     2  C   -0.101758   0.001209  -0.000524   0.000040   0.000006  -0.000003
     3  C    0.009731   0.002874   0.000475  -0.000138  -0.000016   0.000007
     4  C    0.357056  -0.034043  -0.005174   0.010731   0.000950  -0.000452
     5  C   -0.015453   0.012433   0.001978  -0.000269  -0.000022   0.000007
     6  C    0.349121  -0.009328   0.009995  -0.009258  -0.000378   0.000081
     7  C    5.028873   0.214349  -0.095488   0.012032   0.001169  -0.000480
     8  N    0.214349   6.539961   0.269826  -0.027203   0.008014   0.002008
     9  C   -0.095488   0.269826   4.936336   0.382770  -0.033294  -0.071992
    10  C    0.012032  -0.027203   0.382770   5.139428   0.462941   0.007888
    11  C    0.001169   0.008014  -0.033294   0.462941   4.874730   0.464543
    12  C   -0.000480   0.002008  -0.071992   0.007888   0.464543   4.946068
    13  C    0.000602  -0.000099  -0.018125  -0.064980  -0.000411   0.463889
    14  C   -0.002331  -0.040732   0.392548   0.010421  -0.075201   0.016441
    15  H    0.014486  -0.000164   0.000050   0.000000  -0.000001   0.000001
    16  H   -0.041803   0.002285   0.001253  -0.000120   0.000239  -0.000149
    17  H    0.014833  -0.000288   0.000004   0.000004   0.000000  -0.000000
    18  H   -0.070719   0.005037   0.000745  -0.000417  -0.000002  -0.000000
    19  H   -0.061163   0.401989  -0.060752  -0.001047   0.001096   0.000080
    20  H    0.000927   0.004728  -0.082303   0.439335  -0.024433   0.008137
    21  H    0.000011  -0.000274   0.015252  -0.057272   0.439657  -0.057129
    22  H   -0.000002   0.000004  -0.004034   0.012500  -0.057249   0.444893
    23  H    0.000021  -0.000204   0.013303  -0.002688   0.009920  -0.054739
    24  H    0.002619   0.000626  -0.044378   0.003370  -0.000986   0.005269
              13         14         15         16         17         18
     1  F   -0.000000  -0.000000   0.000595  -0.000051   0.000580  -0.000043
     2  C    0.000019  -0.000466  -0.054238   0.003980  -0.054084   0.005140
     3  C    0.000124   0.002980   0.438643  -0.022238   0.013752  -0.001551
     4  C    0.003458  -0.017813  -0.056611   0.421510  -0.004566   0.004995
     5  C   -0.000048   0.000626   0.014064  -0.001955   0.433997  -0.017308
     6  C   -0.000089   0.012444  -0.004986   0.004734  -0.052449   0.428007
     7  C    0.000602  -0.002331   0.014486  -0.041803   0.014833  -0.070719
     8  N   -0.000099  -0.040732  -0.000164   0.002285  -0.000288   0.005037
     9  C   -0.018125   0.392548   0.000050   0.001253   0.000004   0.000745
    10  C   -0.064980   0.010421   0.000000  -0.000120   0.000004  -0.000417
    11  C   -0.000411  -0.075201  -0.000001   0.000239   0.000000  -0.000002
    12  C    0.463889   0.016441   0.000001  -0.000149  -0.000000  -0.000000
    13  C    4.877331   0.447787  -0.000010   0.000752   0.000000   0.000008
    14  C    0.447787   5.206196   0.000059  -0.007173  -0.000010   0.000269
    15  H   -0.000010   0.000059   0.517717  -0.005921  -0.000120   0.000031
    16  H    0.000752  -0.007173  -0.005921   0.476974   0.000027  -0.000214
    17  H    0.000000  -0.000010  -0.000120   0.000027   0.521196  -0.007384
    18  H    0.000008   0.000269   0.000031  -0.000214  -0.007384   0.526535
    19  H   -0.000291   0.009515   0.000013  -0.000179  -0.000025   0.003174
    20  H   -0.001803   0.005093   0.000000   0.000008   0.000000  -0.000026
    21  H    0.010649  -0.003320   0.000000  -0.000002  -0.000000   0.000000
    22  H   -0.058922   0.013044   0.000000  -0.000001  -0.000000   0.000000
    23  H    0.439064  -0.056915  -0.000000   0.000066   0.000000  -0.000000
    24  H   -0.026566   0.425227   0.000058  -0.005028  -0.000001  -0.000000
              19         20         21         22         23         24
     1  F   -0.000000  -0.000000   0.000000  -0.000000   0.000000   0.000001
     2  C   -0.000008  -0.000001  -0.000000  -0.000000   0.000001  -0.000198
     3  C   -0.000233   0.000011   0.000000  -0.000000  -0.000005   0.000109
     4  C    0.007405   0.000254  -0.000009  -0.000003   0.000078  -0.006107
     5  C    0.001260   0.000003   0.000000   0.000000  -0.000001   0.000154
     6  C    0.000626  -0.000445   0.000003   0.000000  -0.000000  -0.000059
     7  C   -0.061163   0.000927   0.000011  -0.000002   0.000021   0.002619
     8  N    0.401989   0.004728  -0.000274   0.000004  -0.000204   0.000626
     9  C   -0.060752  -0.082303   0.015252  -0.004034   0.013303  -0.044378
    10  C   -0.001047   0.439335  -0.057272   0.012500  -0.002688   0.003370
    11  C    0.001096  -0.024433   0.439657  -0.057249   0.009920  -0.000986
    12  C    0.000080   0.008137  -0.057129   0.444893  -0.054739   0.005269
    13  C   -0.000291  -0.001803   0.010649  -0.058922   0.439064  -0.026566
    14  C    0.009515   0.005093  -0.003320   0.013044  -0.056915   0.425227
    15  H    0.000013   0.000000   0.000000   0.000000  -0.000000   0.000058
    16  H   -0.000179   0.000008  -0.000002  -0.000001   0.000066  -0.005028
    17  H   -0.000025   0.000000  -0.000000  -0.000000   0.000000  -0.000001
    18  H    0.003174  -0.000026   0.000000   0.000000  -0.000000  -0.000000
    19  H    0.463759   0.003998  -0.000042  -0.000002   0.000016  -0.000233
    20  H    0.003998   0.542863  -0.008139  -0.000132   0.000041  -0.000191
    21  H   -0.000042  -0.008139   0.548764  -0.006682  -0.000171   0.000032
    22  H   -0.000002  -0.000132  -0.006682   0.545917  -0.006927  -0.000085
    23  H    0.000016   0.000041  -0.000171  -0.006927   0.544858  -0.006127
    24  H   -0.000233  -0.000191   0.000032  -0.000085  -0.006127   0.486754
 Mulliken charges:
               1
     1  F   -0.212547
     2  C    0.295774
     3  C   -0.167859
     4  C   -0.322691
     5  C   -0.175431
     6  C   -0.300342
     7  C    0.386091
     8  N   -0.353004
     9  C    0.391528
    10  C   -0.318070
    11  C   -0.071272
    12  C   -0.174368
    13  C   -0.072339
    14  C   -0.338689
    15  H    0.136335
    16  H    0.173003
    17  H    0.134534
    18  H    0.123723
    19  H    0.231045
    20  H    0.112075
    21  H    0.118672
    22  H    0.117681
    23  H    0.120410
    24  H    0.165740
 Sum of Mulliken charges =  -0.00000
 Mulliken charges with hydrogens summed into heavy atoms:
               1
     1  F   -0.212547
     2  C    0.295774
     3  C   -0.031524
     4  C   -0.149688
     5  C   -0.040897
     6  C   -0.176619
     7  C    0.386091
     8  N   -0.121959
     9  C    0.391528
    10  C   -0.205995
    11  C    0.047400
    12  C   -0.056687
    13  C    0.048070
    14  C   -0.172948
 Electronic spatial extent (au):  <R**2>=           3650.0831
 Charge=              0.0000 electrons
 Dipole moment (field-independent basis, Debye):
    X=             -1.2583    Y=              1.3320    Z=             -0.0407  Tot=              1.8328
 Quadrupole moment (field-independent basis, Debye-Ang):
   XX=            -85.6242   YY=            -70.8420   ZZ=            -84.0430
   XY=              2.3008   XZ=              2.2110   YZ=              0.2252
 Traceless Quadrupole moment (field-independent basis, Debye-Ang):
   XX=             -5.4545   YY=              9.3277   ZZ=             -3.8732
   XY=              2.3008   XZ=              2.2110   YZ=              0.2252
 Octapole moment (field-independent basis, Debye-Ang**2):
  XXX=            -32.8048  YYY=              5.6494  ZZZ=             -0.8581  XYY=              8.4326
  XXY=             12.3302  XXZ=             -1.2292  XZZ=             18.5821  YZZ=             -2.6126
  YYZ=              1.4096  XYZ=             15.8906
 Hexadecapole moment (field-independent basis, Debye-Ang**3):
 XXXX=          -4047.2927 YYYY=           -534.1809 ZZZZ=           -204.6084 XXXY=             64.7745
 XXXZ=             61.6915 YYYX=            -30.4395 YYYZ=              0.2255 ZZZX=              1.0607
 ZZZY=              1.7085 XXYY=           -720.7330 XXZZ=           -730.8780 YYZZ=           -124.2968
 XXYZ=             -9.0202 YYXZ=             -0.7911 ZZXY=            -13.0650
 N-N= 7.877951183533D+02 E-N=-3.016300835668D+03  KE= 6.147201951510D+02
 Breneman (CHELPG) radii used.
 Read replacement radii for each type of atom:
 Atom Element Radius
    1     9    1.70
    2     6    1.50
    3     6    1.50
    4     6    1.50
    5     6    1.50
    6     6    1.50
    7     6    1.50
    8     7    1.70
    9     6    1.50
   10     6    1.50
   11     6    1.50
   12     6    1.50
   13     6    1.50
   14     6    1.50
   15     1    1.45
   16     1    1.45
   17     1    1.45
   18     1    1.45
   19     1    1.45
   20     1    1.45
   21     1    1.45
   22     1    1.45
   23     1    1.45
   24     1    1.45
 Generate Potential Derived Charges using the Breneman model, NDens= 1.
 Grid spacing= 0.300 Box extension= 2.800
 NStep X,Y,Z=   52     36     27   Total possible points=       50544
 Number of Points to Fit=   15749

 **********************************************************************

            Electrostatic Properties Using The SCF Density.

 **********************************************************************

       Atomic Center    1 is at   4.689447 -0.791983 -0.045725
       Atomic Center    2 is at   3.434010 -0.334641 -0.048253
       Atomic Center    3 is at   2.421906 -1.116640 -0.589504
       Atomic Center    4 is at   1.114900 -0.638419 -0.599583
       Atomic Center    5 is at   3.161051  0.917278  0.486683
       Atomic Center    6 is at   1.848782  1.379895  0.496960
       Atomic Center    7 is at   0.805389  0.613839 -0.045444
       Atomic Center    8 is at  -0.487836  1.140140 -0.062021
       Atomic Center    9 is at  -1.700263  0.458181 -0.003237
       Atomic Center   10 is at  -2.860472  1.096988 -0.472690
       Atomic Center   11 is at  -4.098685  0.468512 -0.395487
       Atomic Center   12 is at  -4.210910 -0.816566  0.134544
       Atomic Center   13 is at  -3.063271 -1.454076  0.603096
       Atomic Center   14 is at  -1.820508 -0.828363  0.547131
       Atomic Center   15 is at   2.667129 -2.089963 -1.017583
       Atomic Center   16 is at   0.328401 -1.239003 -1.058254
       Atomic Center   17 is at   3.973817  1.513128  0.904831
       Atomic Center   18 is at   1.625118  2.354223  0.938186
       Atomic Center   19 is at  -0.552644  2.147398 -0.107021
       Atomic Center   20 is at  -2.781699  2.097195 -0.907167
       Atomic Center   21 is at  -4.985403  0.988330 -0.765542
       Atomic Center   22 is at  -5.181526 -1.312967  0.185579
       Atomic Center   23 is at  -3.133106 -2.454790  1.035918
       Atomic Center   24 is at  -0.941845 -1.332624  0.951428
   15749 points will be used for fitting atomic charges
 Fitting point charges to electrostatic potential
 Charges from ESP fit, RMS=   0.00403 RRMS=   0.35879:
 ESP charges:
               1
     1  F   -0.221948
     2  C    0.295667
     3  C   -0.203096
     4  C   -0.191441
     5  C   -0.189653
     6  C   -0.259911
     7  C    0.412566
     8  N   -0.749822
     9  C    0.482758
    10  C   -0.314430
    11  C   -0.014538
    12  C   -0.192314
    13  C   -0.039203
    14  C   -0.245464
    15  H    0.148707
    16  H    0.116300
    17  H    0.146406
    18  H    0.140383
    19  H    0.358770
    20  H    0.128485
    21  H    0.087309
    22  H    0.103776
    23  H    0.092458
    24  H    0.108233
 Sum of ESP charges =  -0.00000
 ESP charges with hydrogens summed into heavy atoms:
               1
     1  F   -0.221948
     2  C    0.295667
     3  C   -0.054389
     4  C   -0.075141
     5  C   -0.043246
     6  C   -0.119528
     7  C    0.412566
     8  N   -0.391052
     9  C    0.482758
    10  C   -0.185945
    11  C    0.072771
    12  C   -0.088538
    13  C    0.053256
    14  C   -0.137230
 Charge=  -0.00000 Dipole=    -1.3129     1.4134    -0.0399 Tot=     1.9295
 -----------------------------------------------------------------

              Electrostatic Properties (Atomic Units)

 -----------------------------------------------------------------
    Center     Electric         -------- Electric Field --------
               Potential          X             Y             Z
 -----------------------------------------------------------------
    1 Atom    -26.586894
    2 Atom    -14.687771
    3 Atom    -14.758917
    4 Atom    -14.759169
    5 Atom    -14.758231
    6 Atom    -14.757165
    7 Atom    -14.715029
    8 Atom    -18.354734
    9 Atom    -14.717725
   10 Atom    -14.768606
   11 Atom    -14.766120
   12 Atom    -14.775101
   13 Atom    -14.766806
   14 Atom    -14.770691
   15 Atom     -1.090334
   16 Atom     -1.095967
   17 Atom     -1.088851
   18 Atom     -1.090734
   19 Atom     -1.018313
   20 Atom     -1.098860
   21 Atom     -1.105614
   22 Atom     -1.110114
   23 Atom     -1.107142
   24 Atom     -1.104020
 -----------------------------------------------------------------
 Unable to Open any file for archive entry.
 1\1\GINC-NOTCH392\SP\RwB97XD\def2TZVP\C12H10F1N1\U1366379\17-Feb-2026\
 0\\#N Guess=Read Geom=Check Integral(Ultrafine) Density Pop=(ChelpG,Re
 adRadii) NMR wB97XD def2TZVP\\prod_3b_1\\0,1\F,0,4.6266110472,-0.73145
 74698,-0.0408550572\C,0,3.3663525435,-0.2876008309,-0.0462917003\C,0,2
 .3625784533,-1.0841775354,-0.5817659333\C,0,1.050529132,-0.6200489105,
 -0.5948876175\C,0,3.0801085546,0.9650662775,0.479877573\C,0,1.76296694
 31,1.4136794148,0.4872226303\C,0,0.7277349806,0.6327011711,-0.04950952
 29\N,0,-0.5710497441,1.1450081062,-0.0694715405\C,0,-1.7761007716,0.45
 05494961,-0.0055808208\C,0,-2.9431598389,1.0735836492,-0.4792327838\C,
 0,-4.1745646683,0.4324575997,-0.3972938387\C,0,-4.2729420431,-0.849980
 0717,0.1418072534\C,0,-3.1184655098,-1.4718574561,0.6145520981\C,0,-1.
 8824780751,-0.833296089,0.5538693381\H,0,2.6181268911,-2.0578152024,-1
 .0030371745\H,0,0.2704209279,-1.2322301307,-1.0491194785\H,0,3.8865261
 209,1.5725085238,0.8936135293\H,0,1.5289681533,2.3886449248,0.92162856
 97\H,0,-0.6466389747,2.15117303,-0.1215509445\H,0,-2.8751687477,2.0714
 883386,-0.9207664452\H,0,-5.0668579504,0.940138645,-0.7707813186\H,0,-
 5.2381825731,-1.3563631353,0.1965806937\H,0,-3.177515111,-2.4701860982
 ,1.0544326213\H,0,-0.9983997398,-1.3252662467,0.9614898693\\Version=ES
 64L-G16RevC.01\State=1-A\HF=-617.9094488\RMSD=2.650e-09\Dipole=-0.5006
 151,0.5186025,-0.0195799\Quadrupole=-4.0900317,6.9723718,-2.8823401,1.
 6041935,1.6308695,0.1152671\PG=C01 [X(C12H10F1N1)]\\@
 The archive entry for this job was punched.


 WE DON'T KNOW ONE MILLIONTH OF ONE PERCENT ABOUT
 ANYTHING.
                                     T. A. EDISON.
 Job cpu time:       0 days  0 hours 42 minutes 26.4 seconds.
 Elapsed time:       0 days  0 hours  5 minutes 27.8 seconds.
 File lengths (MBytes):  RWF=    154 Int=      0 D2E=      0 Chk=     24 Scr=      2
 Normal termination of Gaussian 16 at Tue Feb 17 16:14:09 2026.
