 Entering Gaussian System, Link 0=g16
 Input=prod_5d_5.com
 Output=prod_5d_5.log
 Initial command:
 /uufs/chpc.utah.edu/sys/installdir/gaussian16/C01/AVX/g16/l1.exe "/scratch/general/vast/u1366379/GAUSSSCRDIR/11028644-notchpeak.peaks/Gau-3402232.inp" -scrdir="/scratch/general/vast/u1366379/GAUSSSCRDIR/11028644-notchpeak.peaks/"
 Entering Link 1 = /uufs/chpc.utah.edu/sys/installdir/gaussian16/C01/AVX/g16/l1.exe PID=   3402234.
  
 Copyright (c) 1988-2019, Gaussian, Inc.  All Rights Reserved.
  
 This is part of the Gaussian(R) 16 program.  It is based on
 the Gaussian(R) 09 system (copyright 2009, Gaussian, Inc.),
 the Gaussian(R) 03 system (copyright 2003, Gaussian, Inc.),
 the Gaussian(R) 98 system (copyright 1998, Gaussian, Inc.),
 the Gaussian(R) 94 system (copyright 1995, Gaussian, Inc.),
 the Gaussian 92(TM) system (copyright 1992, Gaussian, Inc.),
 the Gaussian 90(TM) system (copyright 1990, Gaussian, Inc.),
 the Gaussian 88(TM) system (copyright 1988, Gaussian, Inc.),
 the Gaussian 86(TM) system (copyright 1986, Carnegie Mellon
 University), and the Gaussian 82(TM) system (copyright 1983,
 Carnegie Mellon University). Gaussian is a federally registered
 trademark of Gaussian, Inc.
  
 This software contains proprietary and confidential information,
 including trade secrets, belonging to Gaussian, Inc.
  
 This software is provided under written license and may be
 used, copied, transmitted, or stored only in accord with that
 written license.
  
 The following legend is applicable only to US Government
 contracts under FAR:
  
                    RESTRICTED RIGHTS LEGEND
  
 Use, reproduction and disclosure by the US Government is
 subject to restrictions as set forth in subparagraphs (a)
 and (c) of the Commercial Computer Software - Restricted
 Rights clause in FAR 52.227-19.
  
 Gaussian, Inc.
 340 Quinnipiac St., Bldg. 40, Wallingford CT 06492
  
  
 ---------------------------------------------------------------
 Warning -- This program may not be used in any manner that
 competes with the business of Gaussian, Inc. or will provide
 assistance to any competitor of Gaussian, Inc.  The licensee
 of this program is prohibited from giving any competitor of
 Gaussian, Inc. access to this program.  By using this program,
 the user acknowledges that Gaussian, Inc. is engaged in the
 business of creating and licensing software in the field of
 computational chemistry and represents and warrants to the
 licensee that it is not a competitor of Gaussian, Inc. and that
 it will not use this program in any manner prohibited above.
 ---------------------------------------------------------------
  

 Cite this work as:
 Gaussian 16, Revision C.01,
 M. J. Frisch, G. W. Trucks, H. B. Schlegel, G. E. Scuseria, 
 M. A. Robb, J. R. Cheeseman, G. Scalmani, V. Barone, 
 G. A. Petersson, H. Nakatsuji, X. Li, M. Caricato, A. V. Marenich, 
 J. Bloino, B. G. Janesko, R. Gomperts, B. Mennucci, H. P. Hratchian, 
 J. V. Ortiz, A. F. Izmaylov, J. L. Sonnenberg, D. Williams-Young, 
 F. Ding, F. Lipparini, F. Egidi, J. Goings, B. Peng, A. Petrone, 
 T. Henderson, D. Ranasinghe, V. G. Zakrzewski, J. Gao, N. Rega, 
 G. Zheng, W. Liang, M. Hada, M. Ehara, K. Toyota, R. Fukuda, 
 J. Hasegawa, M. Ishida, T. Nakajima, Y. Honda, O. Kitao, H. Nakai, 
 T. Vreven, K. Throssell, J. A. Montgomery, Jr., J. E. Peralta, 
 F. Ogliaro, M. J. Bearpark, J. J. Heyd, E. N. Brothers, K. N. Kudin, 
 V. N. Staroverov, T. A. Keith, R. Kobayashi, J. Normand, 
 K. Raghavachari, A. P. Rendell, J. C. Burant, S. S. Iyengar, 
 J. Tomasi, M. Cossi, J. M. Millam, M. Klene, C. Adamo, R. Cammi, 
 J. W. Ochterski, R. L. Martin, K. Morokuma, O. Farkas, 
 J. B. Foresman, and D. J. Fox, Gaussian, Inc., Wallingford CT, 2019.
 
 ******************************************
 Gaussian 16:  ES64L-G16RevC.01  3-Jul-2019
                17-Feb-2026 
 ******************************************
 %NProcShared=8
 Will use up to    8 processors via shared memory.
 %Mem=8GB
 %chk=prod_5d_5.chk
 ------------------------------------------------------
 #N OPT FREQ=NORAMAN Integral(Ultrafine) wB97XD def2SVP
 ------------------------------------------------------
 1/18=20,19=15,26=4,38=1/1,3;
 2/9=110,12=2,17=6,18=5,40=1/2;
 3/5=43,7=101,11=2,25=1,30=1,71=1,74=-58,75=-5/1,2,3;
 4//1;
 5/5=2,38=5/2;
 6/7=2,8=2,9=2,10=2,28=1/1;
 7//1,2,3,16;
 1/18=20,19=15,26=4/3(2);
 2/9=110/2;
 99//99;
 2/9=110/2;
 3/5=43,7=101,11=2,25=1,30=1,71=1,74=-58,75=-5/1,2,3;
 4/5=5,16=3,69=1/1;
 5/5=2,38=5/2;
 7//1,2,3,16;
 1/18=20,19=15,26=4/3(-5);
 2/9=110/2;
 6/7=2,8=2,9=2,10=2,19=2,28=1/1;
 99/9=1/99;
 ---------
 prod_5d_5
 ---------
 Symbolic Z-matrix:
 Charge =  0 Multiplicity = 1
 C                    -2.73751   2.55355  -0.7982 
 C                    -2.49928   1.16671  -0.31108 
 C                    -1.23902   0.60145  -0.38749 
 C                    -0.9916   -0.70319   0.0398 
 N                     0.32612  -1.25143  -0.05925 
 C                     0.49172  -2.65987  -0.42055 
 C                     1.48993  -0.42574   0.03011 
 C                     1.5256    0.64602   0.92219 
 C                     2.64035   1.44799   1.01873 
 C                     3.74436   1.19704   0.22733 
 C                     3.72775   0.13968  -0.66169 
 C                     2.61426  -0.66467  -0.76059 
 C                    -2.06046  -1.44294   0.54458 
 C                    -3.32073  -0.89425   0.61687 
 C                    -3.54274   0.40043   0.18999 
 H                    -3.57379   3.01788  -0.27358 
 H                    -2.96609   2.55536  -1.86488 
 H                    -1.8592    3.18141  -0.641 
 H                    -0.42963   1.17489  -0.80152 
 H                    -0.19326  -3.29165   0.13914 
 H                     0.30235  -2.79464  -1.48394 
 H                     1.50341  -2.99323  -0.19684 
 H                     0.66848   0.82938   1.54649 
 H                     2.65247   2.27146   1.71415 
 H                     4.61706   1.82514   0.30319 
 H                     4.58772  -0.05389  -1.28212 
 H                     2.59509  -1.47196  -1.47146 
 H                    -1.89293  -2.4427    0.90265 
 H                    -4.13816  -1.4762    1.01073 
 H                    -4.53026   0.82633   0.24295 
 

 GradGradGradGradGradGradGradGradGradGradGradGradGradGradGradGradGradGrad
 Berny optimization.
 Initialization pass.
                           ----------------------------
                           !    Initial Parameters    !
                           ! (Angstroms and Degrees)  !
 --------------------------                            --------------------------
 ! Name  Definition              Value          Derivative Info.                !
 --------------------------------------------------------------------------------
 ! R1    R(1,2)                  1.4891         estimate D2E/DX2                !
 ! R2    R(1,16)                 1.091          estimate D2E/DX2                !
 ! R3    R(1,17)                 1.0909         estimate D2E/DX2                !
 ! R4    R(1,18)                 1.091          estimate D2E/DX2                !
 ! R5    R(2,3)                  1.3833         estimate D2E/DX2                !
 ! R6    R(2,15)                 1.3882         estimate D2E/DX2                !
 ! R7    R(3,4)                  1.3949         estimate D2E/DX2                !
 ! R8    R(3,19)                 1.0749         estimate D2E/DX2                !
 ! R9    R(4,5)                  1.4307         estimate D2E/DX2                !
 ! R10   R(4,13)                 1.3945         estimate D2E/DX2                !
 ! R11   R(5,6)                  1.4634         estimate D2E/DX2                !
 ! R12   R(5,7)                  1.4298         estimate D2E/DX2                !
 ! R13   R(6,20)                 1.087          estimate D2E/DX2                !
 ! R14   R(6,21)                 1.0885         estimate D2E/DX2                !
 ! R15   R(6,22)                 1.0884         estimate D2E/DX2                !
 ! R16   R(7,8)                  1.3949         estimate D2E/DX2                !
 ! R17   R(7,12)                 1.3951         estimate D2E/DX2                !
 ! R18   R(8,9)                  1.3766         estimate D2E/DX2                !
 ! R19   R(8,23)                 1.0761         estimate D2E/DX2                !
 ! R20   R(9,10)                 1.3814         estimate D2E/DX2                !
 ! R21   R(9,24)                 1.0779         estimate D2E/DX2                !
 ! R22   R(10,11)                1.3815         estimate D2E/DX2                !
 ! R23   R(10,25)                1.0779         estimate D2E/DX2                !
 ! R24   R(11,12)                1.3772         estimate D2E/DX2                !
 ! R25   R(11,26)                1.0779         estimate D2E/DX2                !
 ! R26   R(12,27)                1.0758         estimate D2E/DX2                !
 ! R27   R(13,14)                1.3764         estimate D2E/DX2                !
 ! R28   R(13,28)                1.0751         estimate D2E/DX2                !
 ! R29   R(14,15)                1.3812         estimate D2E/DX2                !
 ! R30   R(14,29)                1.078          estimate D2E/DX2                !
 ! R31   R(15,30)                1.0768         estimate D2E/DX2                !
 ! A1    A(2,1,16)             111.2059         estimate D2E/DX2                !
 ! A2    A(2,1,17)             110.7893         estimate D2E/DX2                !
 ! A3    A(2,1,18)             111.1024         estimate D2E/DX2                !
 ! A4    A(16,1,17)            107.9917         estimate D2E/DX2                !
 ! A5    A(16,1,18)            107.6306         estimate D2E/DX2                !
 ! A6    A(17,1,18)            107.9755         estimate D2E/DX2                !
 ! A7    A(1,2,3)              120.5471         estimate D2E/DX2                !
 ! A8    A(1,2,15)             120.7919         estimate D2E/DX2                !
 ! A9    A(3,2,15)             118.6314         estimate D2E/DX2                !
 ! A10   A(2,3,4)              121.792          estimate D2E/DX2                !
 ! A11   A(2,3,19)             119.294          estimate D2E/DX2                !
 ! A12   A(4,3,19)             118.9066         estimate D2E/DX2                !
 ! A13   A(3,4,5)              120.0372         estimate D2E/DX2                !
 ! A14   A(3,4,13)             118.1044         estimate D2E/DX2                !
 ! A15   A(5,4,13)             121.8552         estimate D2E/DX2                !
 ! A16   A(4,5,6)              119.3488         estimate D2E/DX2                !
 ! A17   A(4,5,7)              121.608          estimate D2E/DX2                !
 ! A18   A(6,5,7)              118.6279         estimate D2E/DX2                !
 ! A19   A(5,6,20)             111.1579         estimate D2E/DX2                !
 ! A20   A(5,6,21)             109.9172         estimate D2E/DX2                !
 ! A21   A(5,6,22)             110.4384         estimate D2E/DX2                !
 ! A22   A(20,6,21)            108.7489         estimate D2E/DX2                !
 ! A23   A(20,6,22)            107.5706         estimate D2E/DX2                !
 ! A24   A(21,6,22)            108.9401         estimate D2E/DX2                !
 ! A25   A(5,7,8)              120.2986         estimate D2E/DX2                !
 ! A26   A(5,7,12)             121.4439         estimate D2E/DX2                !
 ! A27   A(8,7,12)             118.2574         estimate D2E/DX2                !
 ! A28   A(7,8,9)              120.8743         estimate D2E/DX2                !
 ! A29   A(7,8,23)             118.7879         estimate D2E/DX2                !
 ! A30   A(9,8,23)             120.3329         estimate D2E/DX2                !
 ! A31   A(8,9,10)             120.0775         estimate D2E/DX2                !
 ! A32   A(8,9,24)             119.9602         estimate D2E/DX2                !
 ! A33   A(10,9,24)            119.9622         estimate D2E/DX2                !
 ! A34   A(9,10,11)            119.8747         estimate D2E/DX2                !
 ! A35   A(9,10,25)            120.0593         estimate D2E/DX2                !
 ! A36   A(11,10,25)           120.066          estimate D2E/DX2                !
 ! A37   A(10,11,12)           120.1948         estimate D2E/DX2                !
 ! A38   A(10,11,26)           119.8827         estimate D2E/DX2                !
 ! A39   A(12,11,26)           119.9222         estimate D2E/DX2                !
 ! A40   A(7,12,11)            120.7212         estimate D2E/DX2                !
 ! A41   A(7,12,27)            119.2512         estimate D2E/DX2                !
 ! A42   A(11,12,27)           120.0083         estimate D2E/DX2                !
 ! A43   A(4,13,14)            120.6212         estimate D2E/DX2                !
 ! A44   A(4,13,28)            119.6334         estimate D2E/DX2                !
 ! A45   A(14,13,28)           119.7284         estimate D2E/DX2                !
 ! A46   A(13,14,15)           120.3049         estimate D2E/DX2                !
 ! A47   A(13,14,29)           119.8877         estimate D2E/DX2                !
 ! A48   A(15,14,29)           119.8073         estimate D2E/DX2                !
 ! A49   A(2,15,14)            120.5413         estimate D2E/DX2                !
 ! A50   A(2,15,30)            119.2613         estimate D2E/DX2                !
 ! A51   A(14,15,30)           120.1974         estimate D2E/DX2                !
 ! D1    D(16,1,2,3)          -152.9378         estimate D2E/DX2                !
 ! D2    D(16,1,2,15)           29.066          estimate D2E/DX2                !
 ! D3    D(17,1,2,3)            86.9504         estimate D2E/DX2                !
 ! D4    D(17,1,2,15)          -91.0457         estimate D2E/DX2                !
 ! D5    D(18,1,2,3)           -33.0724         estimate D2E/DX2                !
 ! D6    D(18,1,2,15)          148.9314         estimate D2E/DX2                !
 ! D7    D(1,2,3,4)           -178.8817         estimate D2E/DX2                !
 ! D8    D(1,2,3,19)             0.1112         estimate D2E/DX2                !
 ! D9    D(15,2,3,4)            -0.8429         estimate D2E/DX2                !
 ! D10   D(15,2,3,19)          178.1501         estimate D2E/DX2                !
 ! D11   D(1,2,15,14)          178.7646         estimate D2E/DX2                !
 ! D12   D(1,2,15,30)           -1.2369         estimate D2E/DX2                !
 ! D13   D(3,2,15,14)            0.7307         estimate D2E/DX2                !
 ! D14   D(3,2,15,30)         -179.2708         estimate D2E/DX2                !
 ! D15   D(2,3,4,5)            179.86           estimate D2E/DX2                !
 ! D16   D(2,3,4,13)             0.5026         estimate D2E/DX2                !
 ! D17   D(19,3,4,5)             0.8632         estimate D2E/DX2                !
 ! D18   D(19,3,4,13)         -178.4941         estimate D2E/DX2                !
 ! D19   D(3,4,5,6)           -142.5702         estimate D2E/DX2                !
 ! D20   D(3,4,5,7)             29.9312         estimate D2E/DX2                !
 ! D21   D(13,4,5,6)            36.7624         estimate D2E/DX2                !
 ! D22   D(13,4,5,7)          -150.7361         estimate D2E/DX2                !
 ! D23   D(3,4,13,14)           -0.0439         estimate D2E/DX2                !
 ! D24   D(3,4,13,28)         -178.5431         estimate D2E/DX2                !
 ! D25   D(5,4,13,14)         -179.3889         estimate D2E/DX2                !
 ! D26   D(5,4,13,28)            2.1118         estimate D2E/DX2                !
 ! D27   D(4,5,6,20)           -45.4534         estimate D2E/DX2                !
 ! D28   D(4,5,6,21)            74.9986         estimate D2E/DX2                !
 ! D29   D(4,5,6,22)          -164.7729         estimate D2E/DX2                !
 ! D30   D(7,5,6,20)           141.821          estimate D2E/DX2                !
 ! D31   D(7,5,6,21)           -97.727          estimate D2E/DX2                !
 ! D32   D(7,5,6,22)            22.5015         estimate D2E/DX2                !
 ! D33   D(4,5,7,8)             37.9834         estimate D2E/DX2                !
 ! D34   D(4,5,7,12)          -142.1509         estimate D2E/DX2                !
 ! D35   D(6,5,7,8)           -149.4627         estimate D2E/DX2                !
 ! D36   D(6,5,7,12)            30.4029         estimate D2E/DX2                !
 ! D37   D(5,7,8,9)            179.9477         estimate D2E/DX2                !
 ! D38   D(5,7,8,23)             0.751          estimate D2E/DX2                !
 ! D39   D(12,7,8,9)             0.0779         estimate D2E/DX2                !
 ! D40   D(12,7,8,23)         -179.1188         estimate D2E/DX2                !
 ! D41   D(5,7,12,11)         -179.957          estimate D2E/DX2                !
 ! D42   D(5,7,12,27)            1.64           estimate D2E/DX2                !
 ! D43   D(8,7,12,11)           -0.0887         estimate D2E/DX2                !
 ! D44   D(8,7,12,27)         -178.4918         estimate D2E/DX2                !
 ! D45   D(7,8,9,10)            -0.0411         estimate D2E/DX2                !
 ! D46   D(7,8,9,24)          -179.9139         estimate D2E/DX2                !
 ! D47   D(23,8,9,10)          179.1432         estimate D2E/DX2                !
 ! D48   D(23,8,9,24)           -0.7296         estimate D2E/DX2                !
 ! D49   D(8,9,10,11)            0.0131         estimate D2E/DX2                !
 ! D50   D(8,9,10,25)         -179.9975         estimate D2E/DX2                !
 ! D51   D(24,9,10,11)         179.886          estimate D2E/DX2                !
 ! D52   D(24,9,10,25)          -0.1247         estimate D2E/DX2                !
 ! D53   D(9,10,11,12)          -0.0241         estimate D2E/DX2                !
 ! D54   D(9,10,11,26)         179.7575         estimate D2E/DX2                !
 ! D55   D(25,10,11,12)        179.9866         estimate D2E/DX2                !
 ! D56   D(25,10,11,26)         -0.2319         estimate D2E/DX2                !
 ! D57   D(10,11,12,7)           0.063          estimate D2E/DX2                !
 ! D58   D(10,11,12,27)        178.454          estimate D2E/DX2                !
 ! D59   D(26,11,12,7)        -179.7185         estimate D2E/DX2                !
 ! D60   D(26,11,12,27)         -1.3275         estimate D2E/DX2                !
 ! D61   D(4,13,14,15)          -0.0552         estimate D2E/DX2                !
 ! D62   D(4,13,14,29)        -179.8955         estimate D2E/DX2                !
 ! D63   D(28,13,14,15)        178.4427         estimate D2E/DX2                !
 ! D64   D(28,13,14,29)         -1.3976         estimate D2E/DX2                !
 ! D65   D(13,14,15,2)          -0.2942         estimate D2E/DX2                !
 ! D66   D(13,14,15,30)        179.7073         estimate D2E/DX2                !
 ! D67   D(29,14,15,2)         179.5462         estimate D2E/DX2                !
 ! D68   D(29,14,15,30)         -0.4522         estimate D2E/DX2                !
 --------------------------------------------------------------------------------
 Trust Radius=3.00D-01 FncErr=1.00D-07 GrdErr=1.00D-06 EigMax=2.50D+02 EigMin=1.00D-04
 Number of steps in this run=    160 maximum allowed number of steps=    180.
 GradGradGradGradGradGradGradGradGradGradGradGradGradGradGradGradGradGrad

                          Input orientation:                          
 ---------------------------------------------------------------------
 Center     Atomic      Atomic             Coordinates (Angstroms)
 Number     Number       Type             X           Y           Z
 ---------------------------------------------------------------------
      1          6           0       -2.737510    2.553550   -0.798200
      2          6           0       -2.499280    1.166710   -0.311080
      3          6           0       -1.239020    0.601450   -0.387490
      4          6           0       -0.991600   -0.703190    0.039800
      5          7           0        0.326120   -1.251430   -0.059250
      6          6           0        0.491720   -2.659870   -0.420550
      7          6           0        1.489930   -0.425740    0.030110
      8          6           0        1.525600    0.646020    0.922190
      9          6           0        2.640350    1.447990    1.018730
     10          6           0        3.744360    1.197040    0.227330
     11          6           0        3.727750    0.139680   -0.661690
     12          6           0        2.614260   -0.664670   -0.760590
     13          6           0       -2.060460   -1.442940    0.544580
     14          6           0       -3.320730   -0.894250    0.616870
     15          6           0       -3.542740    0.400430    0.189990
     16          1           0       -3.573790    3.017880   -0.273580
     17          1           0       -2.966090    2.555360   -1.864880
     18          1           0       -1.859200    3.181410   -0.641000
     19          1           0       -0.429630    1.174890   -0.801520
     20          1           0       -0.193260   -3.291650    0.139140
     21          1           0        0.302350   -2.794640   -1.483940
     22          1           0        1.503410   -2.993230   -0.196840
     23          1           0        0.668480    0.829380    1.546490
     24          1           0        2.652470    2.271460    1.714150
     25          1           0        4.617060    1.825140    0.303190
     26          1           0        4.587720   -0.053890   -1.282120
     27          1           0        2.595090   -1.471960   -1.471460
     28          1           0       -1.892930   -2.442700    0.902650
     29          1           0       -4.138160   -1.476200    1.010730
     30          1           0       -4.530260    0.826330    0.242950
 ---------------------------------------------------------------------
                    Distance matrix (angstroms):
                    1          2          3          4          5
     1  C    0.000000
     2  C    1.489082   0.000000
     3  C    2.494965   1.383334   0.000000
     4  C    3.789037   2.427497   1.394948   0.000000
     5  N    4.940622   3.727426   2.447564   1.430652   0.000000
     6  C    6.144127   4.858063   3.692257   2.498151   1.463443
     7  C    5.237701   4.308840   2.945620   2.497011   1.429756
     8  C    4.977200   4.241666   3.059472   2.989193   2.449958
     9  C    5.783154   5.316325   4.212315   4.333237   3.715450
    10  C    6.701229   6.266885   5.056363   5.106404   4.214439
    11  C    6.902535   6.320888   4.995720   4.845078   3.724139
    12  C    6.244982   5.450165   4.073086   3.693824   2.464092
    13  C    4.270057   2.781185   2.392289   1.394451   2.469221
    14  C    3.772253   2.404876   2.753066   2.407148   3.726155
    15  C    2.502167   1.388188   2.383489   2.783676   4.214124
    16  H    1.090960   2.140749   3.362032   4.540074   5.786384
    17  H    1.090898   2.135546   2.997201   4.259644   5.347018
    18  H    1.091031   2.139525   2.665536   4.038110   4.976357
    19  H    2.688313   2.126981   1.074880   2.133264   2.647480
    20  H    6.443460   5.039583   4.065364   2.710598   2.114619
    21  H    6.189840   4.991696   3.887345   2.893139   2.100429
    22  H    7.008124   5.774052   4.525372   3.394902   2.106848
    23  H    4.480078   3.687691   2.725947   2.715649   2.650544
    24  H    5.953433   5.644693   4.727528   4.993119   4.579040
    25  H    7.472171   7.173085   6.022303   6.157832   5.292335
    26  H    7.790502   7.256607   5.931335   5.770431   4.592466
    27  H    6.715254   5.853347   4.491594   3.967274   2.681640
    28  H    5.344971   3.855988   3.370298   2.140748   2.696026
    29  H    4.633890   3.379065   3.831013   3.382468   4.596213
    30  H    2.698376   2.132531   3.358614   3.860417   5.290826
                    6          7          8          9         10
     6  C    0.000000
     7  C    2.488143   0.000000
     8  C    3.714938   1.394901   0.000000
     9  C    4.854138   2.410747   1.376642   0.000000
    10  C    5.086764   2.784738   2.389424   1.381350   0.000000
    11  C    4.285734   2.409590   2.759442   2.391218   1.381536
    12  C    2.932853   1.395139   2.394752   2.762244   2.391459
    13  C    2.987644   3.728893   4.167274   5.538945   6.384832
    14  C    4.327636   4.868905   5.094366   6.417325   7.378396
    15  C    5.100496   5.102537   5.126841   6.325725   7.330608
    16  H    6.984756   6.131232   5.749727   6.538360   7.557889
    17  H    6.421928   5.686304   5.620375   6.401066   7.159086
    18  H    6.300474   4.967755   4.508729   5.099549   6.007629
    19  H    3.962248   2.634072   2.659662   3.579479   4.298978
    20  H    1.087013   3.325426   4.367252   5.591709   5.971680
    21  H    1.088495   3.051947   4.373093   5.452477   5.541605
    22  H    1.088435   2.577536   3.807474   4.742855   4.770759
    23  H    4.009408   2.132959   1.076116   2.132951   3.366956
    24  H    5.791701   3.385613   2.130514   1.077896   2.134768
    25  H    6.136574   3.862638   3.366097   2.135795   1.077901
    26  H    4.930583   3.384749   3.837374   3.367760   2.134132
    27  H    2.634332   2.137912   3.370342   3.837864   3.366047
    28  H    2.735795   4.034005   4.607268   5.975079   6.744094
    29  H    4.988529   5.808656   6.048953   7.382354   8.360266
    30  H    6.149318   6.152696   6.096501   7.239195   8.282935
                   11         12         13         14         15
    11  C    0.000000
    12  C    1.377178   0.000000
    13  C    6.120715   4.915504   0.000000
    14  C    7.237734   6.097066   1.376433   0.000000
    15  C    7.324846   6.320339   2.391841   1.381199   0.000000
    16  H    7.857936   7.217362   4.781053   4.020162   2.658365
    17  H    7.217387   6.536693   4.755215   4.264348   3.032942
    18  H    6.361333   5.900718   4.778150   4.508804   3.355399
    19  H    4.286609   3.556814   3.365208   3.827745   3.357728
    20  H    5.271591   3.948760   2.658674   3.969486   4.985284
    21  H    4.584724   3.225668   3.394828   4.599086   5.272118
    22  H    3.870258   2.640832   3.956548   5.323548   6.093455
    23  H    3.835476   3.367620   3.689766   4.443972   4.445049
    24  H    3.368283   3.840138   6.113622   6.848712   6.648642
    25  H    2.136034   3.367787   7.438272   8.396546   8.284018
    26  H    1.077938   2.130631   7.033107   8.176549   8.275137
    27  H    2.129796   1.075835   5.073402   6.300143   6.628666
    28  H    6.380273   5.122745   1.075082   2.125554   3.363502
    29  H    8.202475   7.027897   2.129610   1.077953   2.133045
    30  H    8.335742   7.367112   3.367563   2.136159   1.076750
                   16         17         18         19         20
    16  H    0.000000
    17  H    1.765066   0.000000
    18  H    1.761124   1.764944   0.000000
    19  H    3.682536   3.077346   2.468919   0.000000
    20  H    7.169971   6.774379   6.729374   4.570634   0.000000
    21  H    7.090474   6.280949   6.410618   4.093734   1.768343
    22  H    7.868754   7.317489   7.044899   4.634167   1.755171
    23  H    5.108722   5.275088   4.087337   2.615028   4.439157
    24  H    6.578338   6.667704   5.170097   4.126791   6.444147
    25  H    8.297308   7.920727   6.683779   5.206946   7.024787
    26  H    8.778563   8.012979   7.241614   5.187936   5.946498
    27  H    7.723255   6.877558   6.494938   4.074747   3.698675
    28  H    5.833244   5.813046   5.832204   4.258216   2.047570
    29  H    4.707942   5.088846   5.441985   4.905683   4.429194
    30  H    2.446330   3.143107   3.669105   4.245890   5.981480
                   21         22         23         24         25
    21  H    0.000000
    22  H    1.771612   0.000000
    23  H    4.738257   4.283533   0.000000
    24  H    6.435543   5.717445   2.458439   0.000000
    25  H    6.569088   5.758605   4.257771   2.459598   0.000000
    26  H    5.090858   4.396649   4.913415   4.257943   2.458622
    27  H    2.646941   2.265101   4.256291   4.915750   4.255422
    28  H    3.261737   3.612075   4.204980   6.598674   7.807290
    29  H    5.261159   5.965477   5.357847   7.787966   9.383674
    30  H    6.280740   7.154553   5.359676   7.472914   9.201886
                   26         27         28         29         30
    26  H    0.000000
    27  H    2.453028   0.000000
    28  H    7.244202   5.169242   0.000000
    29  H    9.133516   7.176207   2.446806   0.000000
    30  H    9.286452   7.680622   4.251737   2.458632   0.000000
 Stoichiometry    C14H15N
 Framework group  C1[X(C14H15N)]
 Deg. of freedom    84
 Full point group                 C1      NOp   1
 Largest Abelian subgroup         C1      NOp   1
 Largest concise Abelian subgroup C1      NOp   1
                         Standard orientation:                         
 ---------------------------------------------------------------------
 Center     Atomic      Atomic             Coordinates (Angstroms)
 Number     Number       Type             X           Y           Z
 ---------------------------------------------------------------------
      1          6           0        2.778849   -2.483639   -0.806109
      2          6           0        2.511309   -1.103342   -0.315634
      3          6           0        1.237993   -0.567136   -0.384649
      4          6           0        0.962846    0.730857    0.045918
      5          7           0       -0.367640    1.248757   -0.045466
      6          6           0       -0.567489    2.653521   -0.403741
      7          6           0       -1.511659    0.396368    0.048653
      8          6           0       -1.518004   -0.677190    0.939260
      9          6           0       -2.613485   -1.504745    1.040341
     10          6           0       -3.727088   -1.278157    0.255054
     11          6           0       -3.739450   -0.219438   -0.632416
     12          6           0       -2.645296    0.610471   -0.735846
     13          6           0        2.017016    1.494302    0.546290
     14          6           0        3.289939    0.974667    0.611211
     15          6           0        3.539456   -0.313954    0.181201
     16          1           0        3.628316   -2.929337   -0.286540
     17          1           0        3.001847   -2.478677   -1.873960
     18          1           0        1.916051   -3.131774   -0.645327
     19          1           0        0.439867   -1.158470   -0.795362
     20          1           0        0.105678    3.300110    0.153363
     21          1           0       -0.386816    2.794119   -1.467890
     22          1           0       -1.585403    2.963186   -0.174284
     23          1           0       -0.653649   -0.841653    1.558831
     24          1           0       -2.603027   -2.329259    1.734550
     25          1           0       -4.584695   -1.926287    0.334469
     26          1           0       -4.606869   -0.044838   -1.248086
     27          1           0       -2.648414    1.418994   -1.445566
     28          1           0        1.828392    2.489432    0.906757
     29          1           0        4.095802    1.574723    1.001725
     30          1           0        4.536778   -0.717082    0.228392
 ---------------------------------------------------------------------
 Rotational constants (GHZ):           1.1140596           0.3917422           0.3170916
 Standard basis: def2SVP (5D, 7F)
 There are   300 symmetry adapted cartesian basis functions of A   symmetry.
 There are   285 symmetry adapted basis functions of A   symmetry.
   285 basis functions,   480 primitive gaussians,   300 cartesian basis functions
    53 alpha electrons       53 beta electrons
       nuclear repulsion energy       922.3199948136 Hartrees.
 NAtoms=   30 NActive=   30 NUniq=   30 SFac= 1.00D+00 NAtFMM=   60 NAOKFM=F Big=F
 Integral buffers will be    131072 words long.
 Raffenetti 2 integral format.
 Two-electron integral symmetry is turned on.
 Nuclear repulsion after empirical dispersion term =      922.3001255185 Hartrees.
 One-electron integrals computed using PRISM.
   1 Symmetry operations used in ECPInt.
 ECPInt:  NShTT=    9180 NPrTT=   32880 LenC2=    8712 LenP2D=   22814.
 LDataN:  DoStor=T MaxTD1= 4 Len=   56
 NBasis=   285 RedAO= T EigKep=  2.31D-04  NBF=   285
 NBsUse=   285 1.00D-06 EigRej= -1.00D+00 NBFU=   285
 ExpMin= 1.22D-01 ExpMax= 1.71D+03 ExpMxC= 2.58D+02 IAcc=3 IRadAn=         5 AccDes= 0.00D+00
 Harris functional with IExCor= 4639 and IRadAn=       5 diagonalized for initial guess.
 HarFok:  IExCor= 4639 AccDes= 0.00D+00 IRadAn=         5 IDoV= 1 UseB2=F ITyADJ=14
 ICtDFT=  3500011 ScaDFX=  1.000000  1.000000  1.000000  1.000000
 FoFCou: FMM=F IPFlag=           0 FMFlag=      100000 FMFlg1=           0
         NFxFlg=           0 DoJE=T BraDBF=F KetDBF=T FulRan=T
         wScrn=  0.000000 ICntrl=       500 IOpCl=  0 I1Cent=   200000004 NGrid=           0
         NMat0=    1 NMatS0=      1 NMatT0=    0 NMatD0=    1 NMtDS0=    0 NMtDT0=    0
 Petite list used in FoFCou.
 Requested convergence on RMS density matrix=1.00D-08 within 128 cycles.
 Requested convergence on MAX density matrix=1.00D-06.
 Requested convergence on             energy=1.00D-06.
 No special actions if energy rises.
 Integral accuracy reduced to 1.0D-05 until final iterations.
 Initial convergence to 1.0D-05 achieved.  Increase integral accuracy.
 SCF Done:  E(RwB97XD) =  -596.648030217     A.U. after   15 cycles
            NFock= 15  Conv=0.43D-08     -V/T= 2.0108

 **********************************************************************

            Population analysis using the SCF Density.

 **********************************************************************

 Orbital symmetries:
       Occupied  (A) (A) (A) (A) (A) (A) (A) (A) (A) (A) (A) (A)
                 (A) (A) (A) (A) (A) (A) (A) (A) (A) (A) (A) (A)
                 (A) (A) (A) (A) (A) (A) (A) (A) (A) (A) (A) (A)
                 (A) (A) (A) (A) (A) (A) (A) (A) (A) (A) (A) (A)
                 (A) (A) (A) (A) (A)
       Virtual   (A) (A) (A) (A) (A) (A) (A) (A) (A) (A) (A) (A)
                 (A) (A) (A) (A) (A) (A) (A) (A) (A) (A) (A) (A)
                 (A) (A) (A) (A) (A) (A) (A) (A) (A) (A) (A) (A)
                 (A) (A) (A) (A) (A) (A) (A) (A) (A) (A) (A) (A)
                 (A) (A) (A) (A) (A) (A) (A) (A) (A) (A) (A) (A)
                 (A) (A) (A) (A) (A) (A) (A) (A) (A) (A) (A) (A)
                 (A) (A) (A) (A) (A) (A) (A) (A) (A) (A) (A) (A)
                 (A) (A) (A) (A) (A) (A) (A) (A) (A) (A) (A) (A)
                 (A) (A) (A) (A) (A) (A) (A) (A) (A) (A) (A) (A)
                 (A) (A) (A) (A) (A) (A) (A) (A) (A) (A) (A) (A)
                 (A) (A) (A) (A) (A) (A) (A) (A) (A) (A) (A) (A)
                 (A) (A) (A) (A) (A) (A) (A) (A) (A) (A) (A) (A)
                 (A) (A) (A) (A) (A) (A) (A) (A) (A) (A) (A) (A)
                 (A) (A) (A) (A) (A) (A) (A) (A) (A) (A) (A) (A)
                 (A) (A) (A) (A) (A) (A) (A) (A) (A) (A) (A) (A)
                 (A) (A) (A) (A) (A) (A) (A) (A) (A) (A) (A) (A)
                 (A) (A) (A) (A) (A) (A) (A) (A) (A) (A) (A) (A)
                 (A) (A) (A) (A) (A) (A) (A) (A) (A) (A) (A) (A)
                 (A) (A) (A) (A) (A) (A) (A) (A) (A) (A) (A) (A)
                 (A) (A) (A) (A)
 The electronic state is 1-A.
 Alpha  occ. eigenvalues --  -14.46319 -10.33828 -10.33753 -10.32862 -10.30017
 Alpha  occ. eigenvalues --  -10.29615 -10.29517 -10.29438 -10.29282 -10.29021
 Alpha  occ. eigenvalues --  -10.29015 -10.28939 -10.28835 -10.28519 -10.28392
 Alpha  occ. eigenvalues --   -1.03945  -0.95525  -0.94038  -0.86718  -0.84688
 Alpha  occ. eigenvalues --   -0.83921  -0.83139  -0.77518  -0.76964  -0.71018
 Alpha  occ. eigenvalues --   -0.69574  -0.67867  -0.65417  -0.62344  -0.59952
 Alpha  occ. eigenvalues --   -0.56761  -0.56263  -0.55434  -0.53217  -0.52461
 Alpha  occ. eigenvalues --   -0.52027  -0.51412  -0.50843  -0.50500  -0.49556
 Alpha  occ. eigenvalues --   -0.47426  -0.46543  -0.46064  -0.44874  -0.44151
 Alpha  occ. eigenvalues --   -0.43420  -0.42187  -0.41840  -0.37820  -0.33501
 Alpha  occ. eigenvalues --   -0.33134  -0.31902  -0.25893
 Alpha virt. eigenvalues --    0.05514   0.06104   0.07616   0.09169   0.13888
 Alpha virt. eigenvalues --    0.15395   0.15968   0.17330   0.18577   0.19362
 Alpha virt. eigenvalues --    0.19771   0.20620   0.20943   0.21941   0.22785
 Alpha virt. eigenvalues --    0.23184   0.24064   0.24429   0.24821   0.24972
 Alpha virt. eigenvalues --    0.27107   0.29355   0.31886   0.32397   0.34846
 Alpha virt. eigenvalues --    0.37352   0.37494   0.38104   0.38360   0.40020
 Alpha virt. eigenvalues --    0.41551   0.42172   0.42730   0.44757   0.45371
 Alpha virt. eigenvalues --    0.47730   0.48435   0.49167   0.49417   0.50801
 Alpha virt. eigenvalues --    0.51688   0.52582   0.53826   0.54171   0.55844
 Alpha virt. eigenvalues --    0.56034   0.57314   0.57528   0.58518   0.58958
 Alpha virt. eigenvalues --    0.59945   0.60660   0.61904   0.62961   0.64621
 Alpha virt. eigenvalues --    0.65756   0.66711   0.67544   0.68961   0.69847
 Alpha virt. eigenvalues --    0.70390   0.72022   0.72660   0.73009   0.73323
 Alpha virt. eigenvalues --    0.74024   0.74213   0.74760   0.75153   0.75874
 Alpha virt. eigenvalues --    0.76513   0.77221   0.77451   0.77745   0.78591
 Alpha virt. eigenvalues --    0.79906   0.79979   0.80453   0.81595   0.82153
 Alpha virt. eigenvalues --    0.83477   0.84065   0.84633   0.84976   0.86850
 Alpha virt. eigenvalues --    0.87598   0.88098   0.90297   0.91670   0.92169
 Alpha virt. eigenvalues --    0.93885   0.94098   0.97219   1.00682   1.01603
 Alpha virt. eigenvalues --    1.03492   1.05846   1.06765   1.10765   1.12229
 Alpha virt. eigenvalues --    1.17370   1.18819   1.19962   1.23524   1.25366
 Alpha virt. eigenvalues --    1.26886   1.28649   1.31503   1.32548   1.33432
 Alpha virt. eigenvalues --    1.35179   1.36012   1.36925   1.37978   1.38611
 Alpha virt. eigenvalues --    1.39452   1.40368   1.40655   1.42308   1.44464
 Alpha virt. eigenvalues --    1.49466   1.56837   1.58158   1.58902   1.61175
 Alpha virt. eigenvalues --    1.63692   1.64597   1.66214   1.68832   1.71866
 Alpha virt. eigenvalues --    1.76824   1.77629   1.78325   1.79381   1.80372
 Alpha virt. eigenvalues --    1.81635   1.82119   1.83537   1.83747   1.84817
 Alpha virt. eigenvalues --    1.85220   1.85946   1.86227   1.87161   1.87374
 Alpha virt. eigenvalues --    1.88802   1.89440   1.90533   1.90957   1.91316
 Alpha virt. eigenvalues --    1.92278   1.92342   1.93159   1.94779   1.96470
 Alpha virt. eigenvalues --    1.97990   1.99379   2.02244   2.03360   2.04786
 Alpha virt. eigenvalues --    2.06151   2.06612   2.07818   2.08918   2.10874
 Alpha virt. eigenvalues --    2.13178   2.13796   2.14526   2.16682   2.17514
 Alpha virt. eigenvalues --    2.20376   2.22004   2.24500   2.24704   2.25993
 Alpha virt. eigenvalues --    2.27491   2.28789   2.29257   2.29536   2.30882
 Alpha virt. eigenvalues --    2.34102   2.37129   2.38570   2.38943   2.40408
 Alpha virt. eigenvalues --    2.41150   2.41824   2.42549   2.44726   2.45987
 Alpha virt. eigenvalues --    2.46750   2.48921   2.53529   2.56163   2.57986
 Alpha virt. eigenvalues --    2.60014   2.60656   2.65267   2.68872   2.70480
 Alpha virt. eigenvalues --    2.72174   2.72808   2.74561   2.75741   2.75939
 Alpha virt. eigenvalues --    2.77093   2.79638   2.84959   2.85053   2.85506
 Alpha virt. eigenvalues --    2.86006   2.89703   2.92740   2.94352   2.98940
 Alpha virt. eigenvalues --    3.00327   3.01354   3.01847   3.02967   3.04563
 Alpha virt. eigenvalues --    3.06556   3.09069   3.11952   3.15681   3.22043
 Alpha virt. eigenvalues --    3.25209   3.28456   3.29818   3.40356   3.47923
 Alpha virt. eigenvalues --    3.75840   3.79923
          Condensed to atoms (all electrons):
               1          2          3          4          5          6
     1  C    4.552140   0.418324  -0.087158   0.012291  -0.000097   0.000005
     2  C    0.418324   5.223880   0.256991   0.125823   0.011168  -0.000141
     3  C   -0.087158   0.256991   5.253067   0.279496  -0.085729   0.004349
     4  C    0.012291   0.125823   0.279496   5.056612   0.315295  -0.045003
     5  N   -0.000097   0.011168  -0.085729   0.315295   6.820084   0.339809
     6  C    0.000005  -0.000141   0.004349  -0.045003   0.339809   4.434851
     7  C   -0.000055  -0.000663  -0.003937  -0.047575   0.321969  -0.054699
     8  C    0.000010  -0.001265  -0.005391  -0.007027  -0.079033   0.005653
     9  C    0.000002   0.000077  -0.001447  -0.000003   0.008896  -0.000192
    10  C   -0.000000  -0.000005   0.000043   0.000024  -0.000533   0.000069
    11  C    0.000000   0.000007   0.000030  -0.000142   0.008696   0.000139
    12  C    0.000001  -0.000114   0.000789   0.005816  -0.083744  -0.000894
    13  C   -0.000684  -0.161134   0.065845   0.261329  -0.080265  -0.004141
    14  C    0.012017   0.104286  -0.144673   0.116062   0.007761   0.000947
    15  C   -0.081227   0.292982   0.065026  -0.156675  -0.000645  -0.000020
    16  H    0.389392  -0.019050   0.008145  -0.000542   0.000002  -0.000000
    17  H    0.387120  -0.012052  -0.003684  -0.000240   0.000000  -0.000000
    18  H    0.390401  -0.018216  -0.008729   0.001033   0.000001   0.000000
    19  H   -0.013235  -0.077784   0.460777  -0.063741  -0.015457  -0.000187
    20  H    0.000000   0.000102  -0.000474  -0.013957  -0.023089   0.401166
    21  H    0.000000  -0.000168   0.001471   0.003695  -0.041582   0.407769
    22  H   -0.000000   0.000017  -0.000314   0.005097  -0.016877   0.397579
    23  H    0.000024  -0.000857   0.003264   0.005235  -0.013164  -0.000052
    24  H   -0.000001   0.000004   0.000035  -0.000023  -0.000123   0.000006
    25  H    0.000000  -0.000000  -0.000000   0.000001   0.000009   0.000000
    26  H   -0.000000  -0.000000  -0.000002   0.000008  -0.000125  -0.000024
    27  H   -0.000000  -0.000000   0.000003  -0.000320  -0.014651   0.007877
    28  H    0.000027  -0.002306   0.017086  -0.078108  -0.011229  -0.000382
    29  H   -0.000297   0.015433  -0.002150   0.015704  -0.000120  -0.000011
    30  H   -0.015619  -0.073613   0.016554  -0.001682   0.000009  -0.000000
               7          8          9         10         11         12
     1  C   -0.000055   0.000010   0.000002  -0.000000   0.000000   0.000001
     2  C   -0.000663  -0.001265   0.000077  -0.000005   0.000007  -0.000114
     3  C   -0.003937  -0.005391  -0.001447   0.000043   0.000030   0.000789
     4  C   -0.047575  -0.007027  -0.000003   0.000024  -0.000142   0.005816
     5  N    0.321969  -0.079033   0.008896  -0.000533   0.008696  -0.083744
     6  C   -0.054699   0.005653  -0.000192   0.000069   0.000139  -0.000894
     7  C    5.092825   0.274059   0.120608  -0.165788   0.117682   0.269153
     8  C    0.274059   5.172959   0.274488   0.089771  -0.152863   0.062290
     9  C    0.120608   0.274488   5.063816   0.269954   0.101899  -0.151867
    10  C   -0.165788   0.089771   0.269954   5.111034   0.282479   0.087108
    11  C    0.117682  -0.152863   0.101899   0.282479   5.055384   0.267864
    12  C    0.269153   0.062290  -0.151867   0.087108   0.267864   5.190761
    13  C    0.006223   0.000727  -0.000050   0.000001   0.000001  -0.000452
    14  C   -0.000210   0.000025   0.000004  -0.000000  -0.000000  -0.000002
    15  C    0.000071   0.000005  -0.000004   0.000000  -0.000000   0.000001
    16  H    0.000002   0.000002  -0.000000   0.000000  -0.000000   0.000000
    17  H   -0.000001  -0.000001  -0.000000  -0.000000   0.000000   0.000000
    18  H   -0.000013   0.000068   0.000021   0.000000  -0.000000  -0.000004
    19  H    0.006560   0.003105  -0.000758   0.000037   0.000057  -0.000862
    20  H    0.005081   0.000166  -0.000009   0.000002  -0.000008   0.000528
    21  H   -0.003126  -0.000707   0.000042  -0.000010   0.000039   0.002097
    22  H   -0.008828   0.000365  -0.000058  -0.000130   0.001365   0.004126
    23  H   -0.067175   0.458934  -0.070607   0.014775  -0.002470   0.016233
    24  H    0.015362  -0.068207   0.453632  -0.072465   0.014350  -0.002071
    25  H   -0.001629   0.014872  -0.070341   0.452834  -0.070101   0.014847
    26  H    0.015175  -0.001972   0.014153  -0.070550   0.450891  -0.066975
    27  H   -0.073134   0.016375  -0.002517   0.015226  -0.071194   0.457331
    28  H   -0.000181  -0.000038   0.000001   0.000000  -0.000000   0.000005
    29  H    0.000008  -0.000001  -0.000000   0.000000   0.000000  -0.000000
    30  H    0.000001   0.000000  -0.000000  -0.000000  -0.000000   0.000000
              13         14         15         16         17         18
     1  C   -0.000684   0.012017  -0.081227   0.389392   0.387120   0.390401
     2  C   -0.161134   0.104286   0.292982  -0.019050  -0.012052  -0.018216
     3  C    0.065845  -0.144673   0.065026   0.008145  -0.003684  -0.008729
     4  C    0.261329   0.116062  -0.156675  -0.000542  -0.000240   0.001033
     5  N   -0.080265   0.007761  -0.000645   0.000002   0.000000   0.000001
     6  C   -0.004141   0.000947  -0.000020  -0.000000  -0.000000   0.000000
     7  C    0.006223  -0.000210   0.000071   0.000002  -0.000001  -0.000013
     8  C    0.000727   0.000025   0.000005   0.000002  -0.000001   0.000068
     9  C   -0.000050   0.000004  -0.000004  -0.000000  -0.000000   0.000021
    10  C    0.000001  -0.000000   0.000000   0.000000  -0.000000   0.000000
    11  C    0.000001  -0.000000  -0.000000  -0.000000   0.000000  -0.000000
    12  C   -0.000452  -0.000002   0.000001   0.000000   0.000000  -0.000004
    13  C    5.204998   0.285642   0.086642   0.000018   0.000095   0.000057
    14  C    0.285642   5.008469   0.290716   0.000781  -0.000288  -0.000525
    15  C    0.086642   0.290716   5.131157  -0.008680  -0.002827   0.006685
    16  H    0.000018   0.000781  -0.008680   0.632408  -0.018698  -0.022791
    17  H    0.000095  -0.000288  -0.002827  -0.018698   0.612222  -0.018476
    18  H    0.000057  -0.000525   0.006685  -0.022791  -0.018476   0.628614
    19  H    0.016666  -0.002514   0.015607   0.000145   0.000811   0.004599
    20  H    0.002156   0.000745  -0.000059  -0.000000  -0.000000   0.000000
    21  H    0.000758  -0.000060  -0.000015   0.000000   0.000000  -0.000000
    22  H    0.000507  -0.000025   0.000002   0.000000   0.000000  -0.000000
    23  H   -0.000820   0.000010   0.000027  -0.000002   0.000002  -0.000015
    24  H    0.000000  -0.000000  -0.000000  -0.000000  -0.000000   0.000002
    25  H    0.000000  -0.000000  -0.000000  -0.000000   0.000000  -0.000000
    26  H   -0.000000   0.000000   0.000000   0.000000   0.000000   0.000000
    27  H    0.000004  -0.000000   0.000000   0.000000  -0.000000   0.000000
    28  H    0.455201  -0.065138   0.015618  -0.000000  -0.000002  -0.000001
    29  H   -0.069792   0.452508  -0.072068  -0.000004   0.000006   0.000010
    30  H    0.015240  -0.068961   0.453112   0.005143   0.000755   0.000159
              19         20         21         22         23         24
     1  C   -0.013235   0.000000   0.000000  -0.000000   0.000024  -0.000001
     2  C   -0.077784   0.000102  -0.000168   0.000017  -0.000857   0.000004
     3  C    0.460777  -0.000474   0.001471  -0.000314   0.003264   0.000035
     4  C   -0.063741  -0.013957   0.003695   0.005097   0.005235  -0.000023
     5  N   -0.015457  -0.023089  -0.041582  -0.016877  -0.013164  -0.000123
     6  C   -0.000187   0.401166   0.407769   0.397579  -0.000052   0.000006
     7  C    0.006560   0.005081  -0.003126  -0.008828  -0.067175   0.015362
     8  C    0.003105   0.000166  -0.000707   0.000365   0.458934  -0.068207
     9  C   -0.000758  -0.000009   0.000042  -0.000058  -0.070607   0.453632
    10  C    0.000037   0.000002  -0.000010  -0.000130   0.014775  -0.072465
    11  C    0.000057  -0.000008   0.000039   0.001365  -0.002470   0.014350
    12  C   -0.000862   0.000528   0.002097   0.004126   0.016233  -0.002071
    13  C    0.016666   0.002156   0.000758   0.000507  -0.000820   0.000000
    14  C   -0.002514   0.000745  -0.000060  -0.000025   0.000010  -0.000000
    15  C    0.015607  -0.000059  -0.000015   0.000002   0.000027  -0.000000
    16  H    0.000145  -0.000000   0.000000   0.000000  -0.000002  -0.000000
    17  H    0.000811  -0.000000   0.000000   0.000000   0.000002  -0.000000
    18  H    0.004599   0.000000  -0.000000  -0.000000  -0.000015   0.000002
    19  H    0.668420  -0.000045   0.000114  -0.000018  -0.002535   0.000018
    20  H   -0.000045   0.630055  -0.034532  -0.012268  -0.000009  -0.000000
    21  H    0.000114  -0.034532   0.657975  -0.031018  -0.000005  -0.000000
    22  H   -0.000018  -0.012268  -0.031018   0.613021  -0.000025   0.000001
    23  H   -0.002535  -0.000009  -0.000005  -0.000025   0.656296  -0.012640
    24  H    0.000018  -0.000000  -0.000000   0.000001  -0.012640   0.674280
    25  H    0.000000  -0.000000   0.000000  -0.000001  -0.000230  -0.012403
    26  H   -0.000004  -0.000001   0.000009   0.000017   0.000021  -0.000268
    27  H   -0.000016   0.000082  -0.000296  -0.001199  -0.000192   0.000023
    28  H   -0.000195  -0.001533   0.000398  -0.000268  -0.000001  -0.000000
    29  H    0.000018   0.000061  -0.000005  -0.000000  -0.000003   0.000000
    30  H   -0.000251  -0.000000  -0.000000  -0.000000   0.000000   0.000000
              25         26         27         28         29         30
     1  C    0.000000  -0.000000  -0.000000   0.000027  -0.000297  -0.015619
     2  C   -0.000000  -0.000000  -0.000000  -0.002306   0.015433  -0.073613
     3  C   -0.000000  -0.000002   0.000003   0.017086  -0.002150   0.016554
     4  C    0.000001   0.000008  -0.000320  -0.078108   0.015704  -0.001682
     5  N    0.000009  -0.000125  -0.014651  -0.011229  -0.000120   0.000009
     6  C    0.000000  -0.000024   0.007877  -0.000382  -0.000011  -0.000000
     7  C   -0.001629   0.015175  -0.073134  -0.000181   0.000008   0.000001
     8  C    0.014872  -0.001972   0.016375  -0.000038  -0.000001   0.000000
     9  C   -0.070341   0.014153  -0.002517   0.000001  -0.000000  -0.000000
    10  C    0.452834  -0.070550   0.015226   0.000000   0.000000  -0.000000
    11  C   -0.070101   0.450891  -0.071194  -0.000000   0.000000  -0.000000
    12  C    0.014847  -0.066975   0.457331   0.000005  -0.000000   0.000000
    13  C    0.000000  -0.000000   0.000004   0.455201  -0.069792   0.015240
    14  C   -0.000000   0.000000  -0.000000  -0.065138   0.452508  -0.068961
    15  C   -0.000000   0.000000   0.000000   0.015618  -0.072068   0.453112
    16  H   -0.000000   0.000000   0.000000  -0.000000  -0.000004   0.005143
    17  H    0.000000   0.000000  -0.000000  -0.000002   0.000006   0.000755
    18  H   -0.000000   0.000000   0.000000  -0.000001   0.000010   0.000159
    19  H    0.000000  -0.000004  -0.000016  -0.000195   0.000018  -0.000251
    20  H   -0.000000  -0.000001   0.000082  -0.001533   0.000061  -0.000000
    21  H    0.000000   0.000009  -0.000296   0.000398  -0.000005  -0.000000
    22  H   -0.000001   0.000017  -0.001199  -0.000268  -0.000000  -0.000000
    23  H   -0.000230   0.000021  -0.000192  -0.000001  -0.000003   0.000000
    24  H   -0.012403  -0.000268   0.000023  -0.000000   0.000000   0.000000
    25  H    0.678244  -0.012409  -0.000240   0.000000   0.000000  -0.000000
    26  H   -0.012409   0.675689  -0.013176  -0.000000  -0.000000   0.000000
    27  H   -0.000240  -0.013176   0.685878  -0.000002  -0.000000   0.000000
    28  H    0.000000  -0.000000  -0.000002   0.697988  -0.014016  -0.000271
    29  H    0.000000  -0.000000  -0.000000  -0.014016   0.680433  -0.012494
    30  H   -0.000000   0.000000   0.000000  -0.000271  -0.012494   0.694268
 Mulliken charges:
               1
     1  C    0.036618
     2  C   -0.081727
     3  C   -0.089285
     4  C    0.211516
     5  N   -0.367238
     6  C    0.105529
     7  C    0.182233
     8  C   -0.057367
     9  C   -0.009739
    10  C   -0.013876
    11  C   -0.004104
    12  C   -0.071966
    13  C   -0.084774
    14  C    0.002424
    15  C   -0.035432
    16  H    0.033730
    17  H    0.055259
    18  H    0.037121
    19  H    0.000669
    20  H    0.045840
    21  H    0.037158
    22  H    0.048933
    23  H    0.015981
    24  H    0.010488
    25  H    0.006548
    26  H    0.009544
    27  H   -0.005863
    28  H   -0.012653
    29  H    0.006783
    30  H   -0.012351
 Sum of Mulliken charges =  -0.00000
 Mulliken charges with hydrogens summed into heavy atoms:
               1
     1  C    0.162728
     2  C   -0.081727
     3  C   -0.088616
     4  C    0.211516
     5  N   -0.367238
     6  C    0.237459
     7  C    0.182233
     8  C   -0.041386
     9  C    0.000749
    10  C   -0.007328
    11  C    0.005440
    12  C   -0.077829
    13  C   -0.097427
    14  C    0.009207
    15  C   -0.047782
 Electronic spatial extent (au):  <R**2>=           3556.3747
 Charge=             -0.0000 electrons
 Dipole moment (field-independent basis, Debye):
    X=              0.0232    Y=              0.4962    Z=             -0.3817  Tot=              0.6264
 Quadrupole moment (field-independent basis, Debye-Ang):
   XX=            -84.5212   YY=            -80.7304   ZZ=            -90.4364
   XY=             -0.8225   XZ=              2.6160   YZ=             -1.1047
 Traceless Quadrupole moment (field-independent basis, Debye-Ang):
   XX=              0.7081   YY=              4.4989   ZZ=             -5.2070
   XY=             -0.8225   XZ=              2.6160   YZ=             -1.1047
 Octapole moment (field-independent basis, Debye-Ang**2):
  XXX=              4.2075  YYY=             13.9161  ZZZ=             -3.9139  XYY=              1.1413
  XXY=             -9.1441  XXZ=             -6.0026  XZZ=             -2.9820  YZZ=             -0.6766
  YYZ=              3.1265  XYZ=             13.6544
 Hexadecapole moment (field-independent basis, Debye-Ang**3):
 XXXX=          -3246.7936 YYYY=          -1134.4992 ZZZZ=           -321.7562 XXXY=             20.7947
 XXXZ=             75.3993 YYYX=             -4.1392 YYYZ=             -4.1022 ZZZX=             -2.7449
 ZZZY=             -7.0998 XXYY=           -727.6483 XXZZ=           -638.6989 YYZZ=           -241.7070
 XXYZ=             -1.7478 YYXZ=             -3.0307 ZZXY=             -2.8245
 N-N= 9.223001255185D+02 E-N=-3.225166260712D+03  KE= 5.902813674202D+02
   1 Symmetry operations used in ECPInt.
 ECPInt:  NShTT=    9180 NPrTT=   32880 LenC2=    8712 LenP2D=   22814.
 LDataN:  DoStor=T MaxTD1= 5 Len=  102
 Calling FoFJK, ICntrl=      2127 FMM=F ISym2X=0 I1Cent= 0 IOpClX= 0 NMat=1 NMatS=1 NMatT=0.
 ***** Axes restored to original set *****
 -------------------------------------------------------------------
 Center     Atomic                   Forces (Hartrees/Bohr)
 Number     Number              X              Y              Z
 -------------------------------------------------------------------
      1        6           0.000571664    0.004390207    0.001632209
      2        6          -0.001014335   -0.001107958    0.000739005
      3        6           0.000988229   -0.004061917   -0.000834311
      4        6           0.022282115   -0.005745557   -0.002264982
      5        7           0.003653050    0.004244142    0.006703043
      6        6          -0.003400653    0.019678095    0.001908872
      7        6          -0.022240249   -0.011474739   -0.003485388
      8        6          -0.003982127   -0.003698186    0.001995290
      9        6          -0.000268829    0.000629153   -0.000791759
     10        6           0.007229838    0.003383314   -0.001195205
     11        6           0.003342695    0.002309367    0.002674276
     12        6          -0.009054602   -0.005245774   -0.000699301
     13        6           0.009793464   -0.004499255    0.000133390
     14        6          -0.002714752    0.003218787   -0.002221433
     15        6          -0.002529180    0.001228817    0.000849375
     16        1          -0.005006554    0.002572767    0.001689670
     17        1          -0.001609422    0.001023696   -0.007193685
     18        1           0.004659593    0.003768411   -0.000541163
     19        1           0.009066191    0.007106387   -0.004435290
     20        1          -0.004487013   -0.004288025    0.003740123
     21        1          -0.001306744   -0.005768464   -0.010281558
     22        1           0.005356873   -0.000517976    0.002457101
     23        1          -0.008393118    0.002559280    0.006779841
     24        1          -0.000450577    0.007476246    0.007167018
     25        1           0.008390651    0.005986501    0.000587931
     26        1           0.007838692   -0.002346143   -0.006318951
     27        1           0.000916274   -0.008177187   -0.007905779
     28        1           0.000702105   -0.010852454    0.003772335
     29        1          -0.007333996   -0.006016162    0.004012704
     30        1          -0.010999283    0.004224626    0.001326624
 -------------------------------------------------------------------
 Cartesian Forces:  Max     0.022282115 RMS     0.006267991

 GradGradGradGradGradGradGradGradGradGradGradGradGradGradGradGradGradGrad
 Berny optimization.
 FormGI is forming the generalized inverse of G from B-inverse, IUseBI=4.
 Internal  Forces:  Max     0.018608391 RMS     0.005428259
 Search for a local minimum.
 Step number   1 out of a maximum of  160
 All quantities printed in internal units (Hartrees-Bohrs-Radians)
 Mixed Optimization -- RFO/linear search
 Second derivative matrix not updated -- first step.
 ITU=  0
     Eigenvalues ---    0.00853   0.00910   0.01138   0.01286   0.01298
     Eigenvalues ---    0.01718   0.01895   0.01895   0.02182   0.02182
     Eigenvalues ---    0.02230   0.02263   0.02274   0.02278   0.02284
     Eigenvalues ---    0.02299   0.02332   0.02334   0.02336   0.02351
     Eigenvalues ---    0.02364   0.02371   0.02371   0.07299   0.07327
     Eigenvalues ---    0.07344   0.07422   0.15994   0.15995   0.15998
     Eigenvalues ---    0.15999   0.16000   0.16000   0.16000   0.16000
     Eigenvalues ---    0.16000   0.16000   0.16000   0.16000   0.16000
     Eigenvalues ---    0.16000   0.16000   0.22000   0.22000   0.22000
     Eigenvalues ---    0.23455   0.23468   0.23481   0.24820   0.24876
     Eigenvalues ---    0.24984   0.24998   0.25000   0.33550   0.34694
     Eigenvalues ---    0.34702   0.34709   0.34987   0.34994   0.35160
     Eigenvalues ---    0.36243   0.36245   0.36249   0.36250   0.36390
     Eigenvalues ---    0.36468   0.36502   0.36537   0.36595   0.36620
     Eigenvalues ---    0.40896   0.41024   0.42953   0.43038   0.43621
     Eigenvalues ---    0.43726   0.47019   0.47295   0.47404   0.47891
     Eigenvalues ---    0.48526   0.49041   0.49346   0.49673
 RFO step:  Lambda=-1.14508796D-02 EMin= 8.52556236D-03
 Linear search not attempted -- first point.
 Iteration  1 RMS(Cart)=  0.05955989 RMS(Int)=  0.00067802
 Iteration  2 RMS(Cart)=  0.00153959 RMS(Int)=  0.00007700
 Iteration  3 RMS(Cart)=  0.00000185 RMS(Int)=  0.00007700
 Iteration  4 RMS(Cart)=  0.00000000 RMS(Int)=  0.00007700
 Variable       Old X    -DE/DX   Delta X   Delta X   Delta X     New X
                                 (Linear)    (Quad)   (Total)
    R1        2.81396   0.01261   0.00000   0.03635   0.03635   2.85031
    R2        2.06161   0.00575   0.00000   0.01603   0.01603   2.07764
    R3        2.06150   0.00737   0.00000   0.02056   0.02056   2.08206
    R4        2.06175   0.00584   0.00000   0.01630   0.01630   2.07805
    R5        2.61412   0.01344   0.00000   0.02698   0.02698   2.64110
    R6        2.62329   0.01204   0.00000   0.02497   0.02497   2.64826
    R7        2.63607   0.00956   0.00000   0.01970   0.01970   2.65577
    R8        2.03123   0.01233   0.00000   0.03264   0.03264   2.06387
    R9        2.70354  -0.01758   0.00000  -0.04181  -0.04181   2.66173
   R10        2.63513   0.00753   0.00000   0.01550   0.01551   2.65064
   R11        2.76551  -0.00866   0.00000  -0.02298  -0.02298   2.74253
   R12        2.70185  -0.01861   0.00000  -0.04413  -0.04413   2.65772
   R13        2.05416   0.00724   0.00000   0.01995   0.01995   2.07411
   R14        2.05696   0.01099   0.00000   0.03041   0.03041   2.08737
   R15        2.05684   0.00564   0.00000   0.01561   0.01561   2.07246
   R16        2.63598   0.01027   0.00000   0.02114   0.02115   2.65713
   R17        2.63643   0.00836   0.00000   0.01713   0.01713   2.65356
   R18        2.60148   0.01455   0.00000   0.02861   0.02861   2.63008
   R19        2.03356   0.01106   0.00000   0.02939   0.02939   2.06296
   R20        2.61037   0.01462   0.00000   0.02967   0.02966   2.64003
   R21        2.03693   0.01033   0.00000   0.02763   0.02763   2.06456
   R22        2.61073   0.01162   0.00000   0.02366   0.02366   2.63438
   R23        2.03694   0.01032   0.00000   0.02761   0.02761   2.06454
   R24        2.60249   0.01688   0.00000   0.03325   0.03325   2.63574
   R25        2.03701   0.01031   0.00000   0.02758   0.02758   2.06459
   R26        2.03303   0.01134   0.00000   0.03013   0.03013   2.06316
   R27        2.60108   0.01566   0.00000   0.03085   0.03086   2.63194
   R28        2.03161   0.01146   0.00000   0.03036   0.03036   2.06197
   R29        2.61009   0.01143   0.00000   0.02321   0.02320   2.63329
   R30        2.03704   0.01028   0.00000   0.02748   0.02748   2.06452
   R31        2.03476   0.01182   0.00000   0.03150   0.03150   2.06626
    A1        1.94091   0.00061   0.00000   0.00454   0.00451   1.94542
    A2        1.93364   0.00073   0.00000   0.00206   0.00206   1.93570
    A3        1.93910   0.00112   0.00000   0.00773   0.00770   1.94680
    A4        1.88481  -0.00120   0.00000  -0.00926  -0.00926   1.87555
    A5        1.87851  -0.00003   0.00000   0.00401   0.00395   1.88246
    A6        1.88453  -0.00137   0.00000  -0.00989  -0.00989   1.87464
    A7        2.10394  -0.00089   0.00000  -0.00367  -0.00366   2.10028
    A8        2.10822   0.00056   0.00000   0.00188   0.00190   2.11011
    A9        2.07051   0.00032   0.00000   0.00174   0.00172   2.07222
   A10        2.12567   0.00005   0.00000  -0.00055  -0.00057   2.12510
   A11        2.08207  -0.00053   0.00000  -0.00260  -0.00260   2.07947
   A12        2.07531   0.00048   0.00000   0.00328   0.00327   2.07859
   A13        2.09504   0.00305   0.00000   0.01217   0.01211   2.10715
   A14        2.06131   0.00201   0.00000   0.00655   0.00649   2.06780
   A15        2.12677  -0.00507   0.00000  -0.01890  -0.01895   2.10783
   A16        2.08303  -0.00210   0.00000  -0.00882  -0.00888   2.07415
   A17        2.12246   0.00106   0.00000   0.00329   0.00321   2.12567
   A18        2.07045   0.00098   0.00000   0.00299   0.00291   2.07336
   A19        1.94007  -0.00086   0.00000  -0.00708  -0.00733   1.93274
   A20        1.91842   0.00739   0.00000   0.04796   0.04794   1.96636
   A21        1.92751  -0.00362   0.00000  -0.02389  -0.02396   1.90355
   A22        1.89803  -0.00234   0.00000  -0.00838  -0.00855   1.88948
   A23        1.87746   0.00033   0.00000  -0.00737  -0.00770   1.86977
   A24        1.90136  -0.00109   0.00000  -0.00232  -0.00216   1.89920
   A25        2.09961   0.00194   0.00000   0.00816   0.00799   2.10760
   A26        2.11960  -0.00362   0.00000  -0.01312  -0.01327   2.10633
   A27        2.06398   0.00168   0.00000   0.00490   0.00478   2.06876
   A28        2.10965  -0.00120   0.00000  -0.00595  -0.00593   2.10372
   A29        2.07324   0.00149   0.00000   0.00817   0.00816   2.08140
   A30        2.10021  -0.00029   0.00000  -0.00219  -0.00220   2.09800
   A31        2.09575   0.00213   0.00000   0.01023   0.01021   2.10595
   A32        2.09370  -0.00185   0.00000  -0.00970  -0.00973   2.08397
   A33        2.09374  -0.00028   0.00000  -0.00056  -0.00058   2.09315
   A34        2.09221  -0.00361   0.00000  -0.01368  -0.01368   2.07853
   A35        2.09543   0.00193   0.00000   0.00758   0.00758   2.10301
   A36        2.09555   0.00168   0.00000   0.00609   0.00609   2.10164
   A37        2.09779   0.00156   0.00000   0.00772   0.00771   2.10551
   A38        2.09235  -0.00004   0.00000   0.00043   0.00041   2.09276
   A39        2.09304  -0.00152   0.00000  -0.00818  -0.00819   2.08484
   A40        2.10698  -0.00057   0.00000  -0.00323  -0.00322   2.10376
   A41        2.08133   0.00154   0.00000   0.00904   0.00902   2.09034
   A42        2.09454  -0.00096   0.00000  -0.00557  -0.00560   2.08894
   A43        2.10524  -0.00212   0.00000  -0.00935  -0.00936   2.09588
   A44        2.08800   0.00213   0.00000   0.01094   0.01095   2.09895
   A45        2.08966  -0.00001   0.00000  -0.00153  -0.00153   2.08812
   A46        2.09972   0.00207   0.00000   0.01014   0.01011   2.10983
   A47        2.09243  -0.00173   0.00000  -0.00915  -0.00916   2.08328
   A48        2.09103  -0.00034   0.00000  -0.00102  -0.00102   2.09001
   A49        2.10384  -0.00233   0.00000  -0.00851  -0.00853   2.09531
   A50        2.08150   0.00191   0.00000   0.00858   0.00858   2.09008
   A51        2.09784   0.00043   0.00000  -0.00007  -0.00006   2.09778
    D1       -2.66927  -0.00059   0.00000  -0.00734  -0.00737  -2.67664
    D2        0.50730  -0.00055   0.00000  -0.00574  -0.00576   0.50154
    D3        1.51757   0.00002   0.00000  -0.00005  -0.00006   1.51752
    D4       -1.58905   0.00006   0.00000   0.00156   0.00156  -1.58749
    D5       -0.57722   0.00053   0.00000   0.00593   0.00595  -0.57128
    D6        2.59934   0.00057   0.00000   0.00753   0.00756   2.60691
    D7       -3.12208  -0.00005   0.00000  -0.00095  -0.00089  -3.12297
    D8        0.00194   0.00026   0.00000   0.00799   0.00798   0.00992
    D9       -0.01471  -0.00008   0.00000  -0.00251  -0.00247  -0.01718
   D10        3.10930   0.00023   0.00000   0.00643   0.00640   3.11571
   D11        3.12003  -0.00051   0.00000  -0.01473  -0.01470   3.10534
   D12       -0.02159  -0.00030   0.00000  -0.00860  -0.00859  -0.03018
   D13        0.01275  -0.00045   0.00000  -0.01305  -0.01300  -0.00024
   D14       -3.12887  -0.00024   0.00000  -0.00692  -0.00689  -3.13576
   D15        3.13915  -0.00013   0.00000  -0.00431  -0.00449   3.13466
   D16        0.00877   0.00046   0.00000   0.01440   0.01445   0.02323
   D17        0.01507  -0.00043   0.00000  -0.01316  -0.01330   0.00177
   D18       -3.11531   0.00016   0.00000   0.00555   0.00565  -3.10967
   D19       -2.48832   0.00129   0.00000   0.05268   0.05264  -2.43568
   D20        0.52240   0.00082   0.00000   0.03007   0.03007   0.55247
   D21        0.64163   0.00072   0.00000   0.03343   0.03343   0.67506
   D22       -2.63084   0.00026   0.00000   0.01082   0.01086  -2.61998
   D23       -0.00077  -0.00034   0.00000  -0.01112  -0.01115  -0.01192
   D24       -3.11617  -0.00042   0.00000  -0.01375  -0.01377  -3.12993
   D25       -3.13093   0.00020   0.00000   0.00773   0.00759  -3.12334
   D26        0.03686   0.00013   0.00000   0.00510   0.00497   0.04183
   D27       -0.79331  -0.00135   0.00000  -0.01758  -0.01749  -0.81080
   D28        1.30897   0.00006   0.00000  -0.00091  -0.00076   1.30821
   D29       -2.87583   0.00115   0.00000   0.01181   0.01165  -2.86418
   D30        2.47524  -0.00091   0.00000   0.00430   0.00434   2.47958
   D31       -1.70566   0.00050   0.00000   0.02096   0.02107  -1.68459
   D32        0.39273   0.00159   0.00000   0.03369   0.03347   0.42620
   D33        0.66294   0.00174   0.00000   0.06507   0.06508   0.72802
   D34       -2.48100   0.00077   0.00000   0.03298   0.03307  -2.44793
   D35       -2.60862   0.00106   0.00000   0.04176   0.04167  -2.56695
   D36        0.53063   0.00009   0.00000   0.00967   0.00966   0.54029
   D37        3.14068  -0.00054   0.00000  -0.01797  -0.01824   3.12244
   D38        0.01311  -0.00061   0.00000  -0.02033  -0.02054  -0.00744
   D39        0.00136   0.00041   0.00000   0.01313   0.01312   0.01448
   D40       -3.12621   0.00034   0.00000   0.01077   0.01081  -3.11540
   D41       -3.14084   0.00099   0.00000   0.03101   0.03080  -3.11004
   D42        0.02862   0.00066   0.00000   0.02118   0.02098   0.04960
   D43       -0.00155   0.00003   0.00000  -0.00044  -0.00050  -0.00205
   D44       -3.11527  -0.00030   0.00000  -0.01027  -0.01032  -3.12559
   D45       -0.00072  -0.00046   0.00000  -0.01375  -0.01377  -0.01449
   D46       -3.14009  -0.00001   0.00000  -0.00049  -0.00050  -3.14059
   D47        3.12664  -0.00037   0.00000  -0.01127  -0.01136   3.11528
   D48       -0.01273   0.00008   0.00000   0.00199   0.00191  -0.01082
   D49        0.00023   0.00006   0.00000   0.00148   0.00153   0.00176
   D50       -3.14155   0.00022   0.00000   0.00652   0.00655  -3.13500
   D51        3.13960  -0.00039   0.00000  -0.01180  -0.01183   3.12777
   D52       -0.00218  -0.00023   0.00000  -0.00676  -0.00681  -0.00898
   D53       -0.00042   0.00038   0.00000   0.01114   0.01116   0.01074
   D54        3.13736   0.00006   0.00000   0.00208   0.00201   3.13937
   D55        3.14136   0.00022   0.00000   0.00611   0.00614  -3.13569
   D56       -0.00405  -0.00010   0.00000  -0.00296  -0.00301  -0.00706
   D57        0.00110  -0.00043   0.00000  -0.01163  -0.01169  -0.01059
   D58        3.11461  -0.00005   0.00000  -0.00150  -0.00165   3.11296
   D59       -3.13668  -0.00011   0.00000  -0.00258  -0.00260  -3.13928
   D60       -0.02317   0.00027   0.00000   0.00755   0.00744  -0.01573
   D61       -0.00096  -0.00015   0.00000  -0.00394  -0.00400  -0.00497
   D62       -3.13977   0.00019   0.00000   0.00599   0.00596  -3.13381
   D63        3.11441  -0.00004   0.00000  -0.00112  -0.00122   3.11320
   D64       -0.02439   0.00030   0.00000   0.00881   0.00875  -0.01565
   D65       -0.00514   0.00056   0.00000   0.01634   0.01635   0.01121
   D66        3.13648   0.00035   0.00000   0.01015   0.01021  -3.13649
   D67        3.13367   0.00021   0.00000   0.00641   0.00633   3.14001
   D68       -0.00789  -0.00000   0.00000   0.00022   0.00020  -0.00769
         Item               Value     Threshold  Converged?
 Maximum Force            0.018608     0.000450     NO 
 RMS     Force            0.005428     0.000300     NO 
 Maximum Displacement     0.215940     0.001800     NO 
 RMS     Displacement     0.060452     0.001200     NO 
 Predicted change in Energy=-6.004064D-03
 GradGradGradGradGradGradGradGradGradGradGradGradGradGradGradGradGradGrad

                          Input orientation:                          
 ---------------------------------------------------------------------
 Center     Atomic      Atomic             Coordinates (Angstroms)
 Number     Number       Type             X           Y           Z
 ---------------------------------------------------------------------
      1          6           0       -2.790048    2.556477   -0.862251
      2          6           0       -2.526297    1.167870   -0.335723
      3          6           0       -1.244942    0.615178   -0.412988
      4          6           0       -0.970593   -0.683776    0.048022
      5          7           0        0.327292   -1.222486   -0.048042
      6          6           0        0.481237   -2.613331   -0.432848
      7          6           0        1.473928   -0.412770    0.038914
      8          6           0        1.552911    0.622502    0.987105
      9          6           0        2.698835    1.406373    1.084363
     10          6           0        3.797275    1.168536    0.254545
     11          6           0        3.731220    0.133928   -0.677447
     12          6           0        2.581351   -0.647139   -0.792035
     13          6           0       -2.026274   -1.444384    0.571916
     14          6           0       -3.308574   -0.905101    0.640210
     15          6           0       -3.563629    0.391665    0.198479
     16          1           0       -3.637903    3.028423   -0.345355
     17          1           0       -3.031184    2.530230   -1.936998
     18          1           0       -1.913627    3.208841   -0.737542
     19          1           0       -0.436695    1.205154   -0.850550
     20          1           0       -0.210712   -3.251591    0.131505
     21          1           0        0.304030   -2.778922   -1.510480
     22          1           0        1.497992   -2.942648   -0.186870
     23          1           0        0.708314    0.799033    1.655863
     24          1           0        2.740650    2.205261    1.828420
     25          1           0        4.697736    1.781622    0.337441
     26          1           0        4.581710   -0.062449   -1.334507
     27          1           0        2.536389   -1.436004   -1.545460
     28          1           0       -1.844007   -2.452295    0.948077
     29          1           0       -4.120632   -1.505304    1.057185
     30          1           0       -4.573743    0.805467    0.261760
 ---------------------------------------------------------------------
                    Distance matrix (angstroms):
                    1          2          3          4          5
     1  C    0.000000
     2  C    1.508319   0.000000
     3  C    2.521475   1.397609   0.000000
     4  C    3.825997   2.448687   1.405374   0.000000
     5  N    4.966015   3.733569   2.445836   1.408526   0.000000
     6  C    6.132912   4.832409   3.661059   2.462160   1.451284
     7  C    5.273520   4.317473   2.941622   2.459514   1.406405
     8  C    5.101144   4.322874   3.128625   2.992710   2.444924
     9  C    5.936319   5.419920   4.292018   4.348267   3.717184
    10  C    6.823961   6.351062   5.116225   5.119207   4.224846
    11  C    6.959155   6.351562   5.006368   4.827214   3.717894
    12  C    6.254600   5.439720   4.046929   3.650116   2.442403
    13  C    4.318226   2.810285   2.412946   1.402659   2.443944
    14  C    3.809039   2.421077   2.771110   2.421947   3.714020
    15  C    2.531795   1.401400   2.408352   2.811235   4.219659
    16  H    1.099441   2.167352   3.399204   4.587995   5.820772
    17  H    1.101779   2.162178   3.029966   4.303042   5.378698
    18  H    1.099656   2.168498   2.698067   4.081530   5.013361
    19  H    2.713758   2.152412   1.092152   2.158827   2.668545
    20  H    6.432276   5.011175   4.039554   2.679191   2.106882
    21  H    6.201613   4.996796   3.888922   2.905724   2.135827
    22  H    7.005984   5.754427   4.498104   3.354340   2.085370
    23  H    4.654895   3.816434   2.851167   2.757282   2.671144
    24  H    6.160494   5.787956   4.841200   5.028884   4.592913
    25  H    7.622767   7.281243   6.102389   6.188045   5.317334
    26  H    7.837386   7.282515   5.937866   5.755476   4.593555
    27  H    6.691607   5.820173   4.448404   3.924787   2.677304
    28  H    5.409258   3.901187   3.408924   2.168089   2.686861
    29  H    4.685376   3.409979   3.863605   3.408234   4.591899
    30  H    2.740621   2.163413   3.401825   3.904640   5.313070
                    6          7          8          9         10
     6  C    0.000000
     7  C    2.459769   0.000000
     8  C    3.692610   1.406091   0.000000
     9  C    4.835049   2.429535   1.391781   0.000000
    10  C    5.076528   2.818682   2.423214   1.397045   0.000000
    11  C    4.262587   2.430519   2.784685   2.406016   1.394054
    12  C    2.899208   1.404205   2.415578   2.784167   2.422906
    13  C    2.943399   3.687782   4.153910   5.542208   6.390759
    14  C    4.293270   4.845231   5.107636   6.452065   7.412273
    15  C    5.078337   5.103876   5.182103   6.405690   7.401998
    16  H    6.986011   6.174162   5.874389   6.695474   7.687712
    17  H    6.407479   5.732496   5.762268   6.574556   7.299652
    18  H    6.302848   5.019410   4.656226   5.276650   6.145037
    19  H    3.949418   2.656935   2.770378   3.689976   4.375966
    20  H    1.097571   3.302346   4.341776   5.574050   5.967966
    21  H    1.104587   3.060713   4.400832   5.475856   5.558822
    22  H    1.096698   2.540048   3.753869   4.687435   4.731108
    23  H    4.007307   2.160822   1.091670   2.158158   3.412023
    24  H    5.782483   3.414821   2.150269   1.092516   2.160634
    25  H    6.139041   3.911191   3.414022   2.166636   1.092509
    26  H    4.912624   3.415746   3.877198   3.399057   2.157718
    27  H    2.616802   2.164734   3.408601   3.875754   3.407856
    28  H    2.709177   3.999366   4.582025   5.961988   6.739099
    29  H    4.962370   5.790475   6.059832   7.415101   8.395648
    30  H    6.141944   6.173174   6.172154   7.343579   8.378891
                   11         12         13         14         15
    11  C    0.000000
    12  C    1.394774   0.000000
    13  C    6.099239   4.870952   0.000000
    14  C    7.237023   6.067049   1.392761   0.000000
    15  C    7.351768   6.310389   2.423631   1.393478   0.000000
    16  H    7.924163   7.237983   4.841976   4.068465   2.693281
    17  H    7.284150   6.550356   4.806459   4.303538   3.068749
    18  H    6.428297   5.922531   4.835273   4.557257   3.396339
    19  H    4.306856   3.541612   3.401503   3.863060   3.397049
    20  H    5.258799   3.928322   2.599274   3.919380   4.951752
    21  H    4.574306   3.201071   3.398188   4.602996   5.285068
    22  H    3.833183   2.609455   3.903973   5.285711   6.073396
    23  H    3.876165   3.404686   3.699437   4.480069   4.532043
    24  H    3.398679   3.876641   6.133700   6.905020   6.759420
    25  H    2.163111   3.413749   7.461529   8.450512   8.378630
    26  H    1.092531   2.153503   7.014959   8.177173   8.300772
    27  H    2.155401   1.091778   5.030034   6.262795   6.602417
    28  H    6.357203   5.086292   1.091148   2.152568   3.406920
    29  H    8.206559   7.005186   2.150705   1.092497   2.155486
    30  H    8.384836   7.376714   3.412861   2.160999   1.093420
                   16         17         18         19         20
    16  H    0.000000
    17  H    1.774720   0.000000
    18  H    1.777495   1.774300   0.000000
    19  H    3.718503   3.109271   2.491758   0.000000
    20  H    7.170188   6.757456   6.737384   4.569253   0.000000
    21  H    7.114886   6.284319   6.431853   4.105733   1.784513
    22  H    7.877577   7.316336   7.055721   4.624689   1.765355
    23  H    5.278698   5.467133   4.290703   2.785334   4.424459
    24  H    6.788875   6.899134   5.408663   4.274648   6.431741
    25  H    8.455980   8.091335   6.848552   5.301511   7.033385
    26  H    8.837078   8.064809   7.297062   5.198598   5.940297
    27  H    7.713185   6.847056   6.483051   4.037058   3.695285
    28  H    5.910101   5.878656   5.907166   4.311904   1.993317
    29  H    4.770202   5.141747   5.505913   4.955545   4.381081
    30  H    2.487151   3.191995   3.721697   4.302575   5.959255
                   21         22         23         24         25
    21  H    0.000000
    22  H    1.790055   0.000000
    23  H    4.794887   4.244931   0.000000
    24  H    6.475141   5.666265   2.477426   0.000000
    25  H    6.596820   5.729921   4.314997   2.496533   0.000000
    26  H    5.070379   4.372863   4.968668   4.305359   2.491881
    27  H    2.605394   2.279037   4.311115   4.968259   4.309276
    28  H    3.281043   3.563356   4.193619   6.594460   7.816222
    29  H    5.271872   5.931489   5.383968   7.838385   9.438513
    30  H    6.307245   7.149517   5.462938   7.610137   9.323032
                   26         27         28         29         30
    26  H    0.000000
    27  H    2.472751   0.000000
    28  H    7.225745   5.141832   0.000000
    29  H    9.139627   7.148040   2.468141   0.000000
[...]
               7          8          9         10         11         12
     1  C   -0.000010  -0.000291  -0.000057  -0.000003   0.000002  -0.000000
     2  C   -0.005675  -0.004949   0.000251  -0.000032   0.000149  -0.001499
     3  C    0.036326  -0.000989   0.002513   0.000173   0.000037   0.002927
     4  C   -0.152362   0.004976  -0.002764   0.000212  -0.000124   0.001753
     5  N    0.430354  -0.064786   0.002914   0.000260   0.002942  -0.092719
     6  C   -0.078004   0.012872  -0.000805   0.000516  -0.002215  -0.007918
     7  C    4.935638   0.396549  -0.014666  -0.069536  -0.000320   0.379957
     8  C    0.396549   5.079756   0.471082  -0.000903  -0.057197   0.022171
     9  C   -0.014666   0.471082   4.902339   0.457032  -0.001645  -0.071268
    10  C   -0.069536  -0.000903   0.457032   4.944364   0.474861   0.013953
    11  C   -0.000320  -0.057197  -0.001645   0.474861   4.871178   0.446036
    12  C    0.379957   0.022171  -0.071268   0.013953   0.446036   5.210788
    13  C   -0.009756   0.005246   0.000032   0.000058  -0.000034   0.000380
    14  C   -0.000309   0.000034  -0.000050   0.000001  -0.000005   0.000092
    15  C    0.001102   0.000109  -0.000007   0.000004  -0.000005   0.000094
    16  H    0.000011   0.000009   0.000000  -0.000000   0.000000  -0.000000
    17  H   -0.000020   0.000013   0.000001   0.000000  -0.000000   0.000001
    18  H   -0.000038   0.000062   0.000007  -0.000000  -0.000000  -0.000008
    19  H    0.001946   0.000134   0.000008  -0.000008  -0.000055   0.001442
    20  H    0.007121  -0.000444   0.000065  -0.000020   0.000113   0.000549
    21  H   -0.005027  -0.000583  -0.000179   0.000150  -0.001124   0.008495
    22  H   -0.006420   0.000984   0.000044  -0.000299   0.001632  -0.004049
    23  H   -0.046112   0.431748  -0.039991   0.007171  -0.001865   0.007223
    24  H    0.013183  -0.056159   0.440258  -0.057231   0.010864  -0.003406
    25  H   -0.003644   0.012243  -0.059843   0.446606  -0.059082   0.012880
    26  H    0.013052  -0.002727   0.010020  -0.054735   0.436477  -0.055005
    27  H   -0.057410   0.003167  -0.000404   0.005505  -0.022935   0.430199
    28  H    0.000787  -0.000176   0.000007   0.000001  -0.000003  -0.000004
    29  H   -0.000026   0.000012   0.000001  -0.000000   0.000000  -0.000003
    30  H    0.000012  -0.000003  -0.000001   0.000000  -0.000000   0.000001
              13         14         15         16         17         18
     1  C   -0.001927   0.012867  -0.071866   0.426095   0.389981   0.432267
     2  C   -0.067053   0.001062   0.432852  -0.055423  -0.018774  -0.059957
     3  C    0.018155  -0.070469   0.021740   0.007697  -0.006634  -0.002940
     4  C    0.469463  -0.027584  -0.090488  -0.000516  -0.001475   0.002067
     5  N   -0.039252   0.005060   0.001397   0.000005  -0.000004  -0.000025
     6  C   -0.009029   0.000740   0.000037  -0.000000  -0.000007   0.000003
     7  C   -0.009756  -0.000309   0.001102   0.000011  -0.000020  -0.000038
     8  C    0.005246   0.000034   0.000109   0.000009   0.000013   0.000062
     9  C    0.000032  -0.000050  -0.000007   0.000000   0.000001   0.000007
    10  C    0.000058   0.000001   0.000004  -0.000000   0.000000  -0.000000
    11  C   -0.000034  -0.000005  -0.000005   0.000000  -0.000000  -0.000000
    12  C    0.000380   0.000092   0.000094  -0.000000   0.000001  -0.000008
    13  C    5.055805   0.460074   0.024340   0.000021   0.000131   0.000381
    14  C    0.460074   4.863939   0.443601   0.001509  -0.000574  -0.000590
    15  C    0.024340   0.443601   5.061709  -0.005380  -0.002432   0.004901
    16  H    0.000021   0.001509  -0.005380   0.548581  -0.024760  -0.023548
    17  H    0.000131  -0.000574  -0.002432  -0.024760   0.556741  -0.025690
    18  H    0.000381  -0.000590   0.004901  -0.023548  -0.025690   0.541866
    19  H    0.008951  -0.002196   0.009497   0.000020   0.000421   0.001049
    20  H   -0.004290  -0.000181  -0.000180  -0.000000   0.000001  -0.000000
    21  H    0.003481   0.000182   0.000083   0.000000   0.000002  -0.000001
    22  H   -0.000709  -0.000247  -0.000046   0.000000   0.000000  -0.000000
    23  H    0.000020   0.000294   0.000196   0.000004  -0.000002   0.000004
    24  H   -0.000015   0.000004  -0.000005   0.000000  -0.000000   0.000000
    25  H    0.000000  -0.000000   0.000000  -0.000000   0.000000  -0.000000
    26  H    0.000000   0.000000   0.000000   0.000000  -0.000000   0.000000
    27  H   -0.000071   0.000010  -0.000001   0.000000  -0.000000  -0.000000
    28  H    0.426142  -0.034479   0.008348  -0.000001  -0.000002  -0.000000
    29  H   -0.057926   0.446799  -0.062560  -0.000023   0.000007   0.000008
    30  H    0.010594  -0.049931   0.442114   0.001626   0.000337   0.000005
              19         20         21         22         23         24
     1  C   -0.004935   0.000005  -0.000006   0.000000   0.000052   0.000001
     2  C   -0.051024   0.000671  -0.001422   0.000265  -0.000692   0.000022
     3  C    0.424328  -0.000223   0.004564  -0.001578  -0.001516  -0.000085
     4  C   -0.028555  -0.007826  -0.006309   0.014225   0.001280   0.000099
     5  N   -0.004568  -0.026303  -0.053556  -0.044524  -0.003642  -0.000158
     6  C    0.000122   0.407703   0.406178   0.414002  -0.000218   0.000016
     7  C    0.001946   0.007121  -0.005027  -0.006420  -0.046112   0.013183
     8  C    0.000134  -0.000444  -0.000583   0.000984   0.431748  -0.056159
     9  C    0.000008   0.000065  -0.000179   0.000044  -0.039991   0.440258
    10  C   -0.000008  -0.000020   0.000150  -0.000299   0.007171  -0.057231
    11  C   -0.000055   0.000113  -0.001124   0.001632  -0.001865   0.010864
    12  C    0.001442   0.000549   0.008495  -0.004049   0.007223  -0.003406
    13  C    0.008951  -0.004290   0.003481  -0.000709   0.000020  -0.000015
    14  C   -0.002196  -0.000181   0.000182  -0.000247   0.000294   0.000004
    15  C    0.009497  -0.000180   0.000083  -0.000046   0.000196  -0.000005
    16  H    0.000020  -0.000000   0.000000   0.000000   0.000004   0.000000
    17  H    0.000421   0.000001   0.000002   0.000000  -0.000002  -0.000000
    18  H    0.001049  -0.000000  -0.000001  -0.000000   0.000004   0.000000
    19  H    0.501910  -0.000194   0.000574  -0.000049  -0.000711  -0.000005
    20  H   -0.000194   0.517095  -0.026112  -0.012442  -0.000023  -0.000000
    21  H    0.000574  -0.026112   0.590905  -0.049046   0.000032  -0.000000
    22  H   -0.000049  -0.012442  -0.049046   0.557348  -0.000008   0.000000
    23  H   -0.000711  -0.000023   0.000032  -0.000008   0.506579  -0.007052
    24  H   -0.000005  -0.000000  -0.000000   0.000000  -0.007052   0.551384
    25  H    0.000001  -0.000000   0.000001  -0.000001  -0.000102  -0.006960
    26  H   -0.000002  -0.000000  -0.000003  -0.000015   0.000032  -0.000179
    27  H    0.000010   0.000420   0.003116  -0.007219  -0.000156   0.000039
    28  H   -0.000169  -0.002803   0.000622  -0.000725  -0.000037  -0.000000
    29  H    0.000014   0.000031  -0.000008   0.000006  -0.000006   0.000000
    30  H   -0.000071  -0.000001   0.000000  -0.000000   0.000005  -0.000000
              25         26         27         28         29         30
     1  C    0.000000   0.000000   0.000000   0.000036  -0.000118  -0.008342
     2  C   -0.000000  -0.000000  -0.000015  -0.002569   0.013643  -0.066165
     3  C    0.000002  -0.000003   0.000286   0.009942  -0.005065   0.017378
     4  C    0.000001   0.000029  -0.001200  -0.053200   0.015088  -0.004158
     5  N    0.000020  -0.000112  -0.004860   0.005927  -0.000239   0.000014
     6  C   -0.000001  -0.000025   0.005099  -0.002483   0.000020  -0.000001
     7  C   -0.003644   0.013052  -0.057410   0.000787  -0.000026   0.000012
     8  C    0.012243  -0.002727   0.003167  -0.000176   0.000012  -0.000003
     9  C   -0.059843   0.010020  -0.000404   0.000007   0.000001  -0.000001
    10  C    0.446606  -0.054735   0.005505   0.000001  -0.000000   0.000000
    11  C   -0.059082   0.436477  -0.022935  -0.000003   0.000000  -0.000000
    12  C    0.012880  -0.055005   0.430199  -0.000004  -0.000003   0.000001
    13  C    0.000000   0.000000  -0.000071   0.426142  -0.057926   0.010594
    14  C   -0.000000   0.000000   0.000010  -0.034479   0.446799  -0.049931
    15  C    0.000000   0.000000  -0.000001   0.008348  -0.062560   0.442114
    16  H   -0.000000   0.000000   0.000000  -0.000001  -0.000023   0.001626
    17  H    0.000000  -0.000000  -0.000000  -0.000002   0.000007   0.000337
    18  H   -0.000000   0.000000  -0.000000  -0.000000   0.000008   0.000005
    19  H    0.000001  -0.000002   0.000010  -0.000169   0.000014  -0.000071
    20  H   -0.000000  -0.000000   0.000420  -0.002803   0.000031  -0.000001
    21  H    0.000001  -0.000003   0.003116   0.000622  -0.000008   0.000000
    22  H   -0.000001  -0.000015  -0.007219  -0.000725   0.000006  -0.000000
    23  H   -0.000102   0.000032  -0.000156  -0.000037  -0.000006   0.000005
    24  H   -0.006960  -0.000179   0.000039  -0.000000   0.000000  -0.000000
    25  H    0.552334  -0.007003  -0.000149   0.000000  -0.000000   0.000000
    26  H   -0.007003   0.553325  -0.006743   0.000000  -0.000000   0.000000
    27  H   -0.000149  -0.006743   0.523911   0.000003  -0.000000   0.000000
    28  H    0.000000   0.000000   0.000003   0.514416  -0.007138  -0.000113
    29  H   -0.000000  -0.000000  -0.000000  -0.007138   0.547032  -0.007170
    30  H    0.000000   0.000000   0.000000  -0.000113  -0.007170   0.550564
 Mulliken charges:
               1
     1  C   -0.374782
     2  C    0.240893
     3  C   -0.394595
     4  C    0.217047
     5  N   -0.057954
     6  C   -0.313610
     7  C    0.233297
     8  C   -0.251960
     9  C   -0.094894
    10  C   -0.168101
    11  C   -0.097679
    12  C   -0.303064
    13  C   -0.293212
    14  C   -0.049653
    15  C   -0.219153
    16  H    0.124072
    17  H    0.132735
    18  H    0.130179
    19  H    0.142112
    20  H    0.147269
    21  H    0.124992
    22  H    0.138871
    23  H    0.147493
    24  H    0.115387
    25  H    0.112697
    26  H    0.113617
    27  H    0.129397
    28  H    0.137673
    29  H    0.117620
    30  H    0.113306
 Sum of Mulliken charges =  -0.00000
 Mulliken charges with hydrogens summed into heavy atoms:
               1
     1  C    0.012204
     2  C    0.240893
     3  C   -0.252483
     4  C    0.217047
     5  N   -0.057954
     6  C    0.097522
     7  C    0.233297
     8  C   -0.104467
     9  C    0.020493
    10  C   -0.055404
    11  C    0.015938
    12  C   -0.173667
    13  C   -0.155539
    14  C    0.067967
    15  C   -0.105847
 Electronic spatial extent (au):  <R**2>=           3594.9920
 Charge=              0.0000 electrons
 Dipole moment (field-independent basis, Debye):
    X=              1.1886    Y=              0.5232    Z=             -0.5891  Tot=              1.4260
 Quadrupole moment (field-independent basis, Debye-Ang):
   XX=            -85.1415   YY=            -82.9744   ZZ=            -90.1359
   XY=             -1.7055   XZ=              3.0237   YZ=             -0.9129
 Traceless Quadrupole moment (field-independent basis, Debye-Ang):
   XX=              0.9424   YY=              3.1096   ZZ=             -4.0520
   XY=             -1.7055   XZ=              3.0237   YZ=             -0.9129
 Octapole moment (field-independent basis, Debye-Ang**2):
  XXX=             11.8005  YYY=             10.6541  ZZZ=             -4.8315  XYY=              0.8084
  XXY=            -10.8527  XXZ=             -2.6319  XZZ=              5.1848  YZZ=              2.2040
  YYZ=              3.0978  XYZ=             16.2187
 Hexadecapole moment (field-independent basis, Debye-Ang**3):
 XXXX=          -3333.9413 YYYY=          -1042.9169 ZZZZ=           -435.5163 XXXY=             -4.7805
 XXXZ=             84.9662 YYYX=             -3.8543 YYYZ=             -9.4037 ZZZX=              0.5394
 ZZZY=             -0.2896 XXYY=           -739.0347 XXZZ=           -668.5070 YYZZ=           -236.4544
 XXYZ=             -4.0791 YYXZ=             -3.4894 ZZXY=              2.2259
 N-N= 9.184338531899D+02 E-N=-3.222320640761D+03  KE= 5.938395547638D+02
 Breneman (CHELPG) radii used.
 Read replacement radii for each type of atom:
 Atom Element Radius
    1     6    1.50
    2     6    1.50
    3     6    1.50
    4     6    1.50
    5     7    1.70
    6     6    1.50
    7     6    1.50
    8     6    1.50
    9     6    1.50
   10     6    1.50
   11     6    1.50
   12     6    1.50
   13     6    1.50
   14     6    1.50
   15     6    1.50
   16     1    1.45
   17     1    1.45
   18     1    1.45
   19     1    1.45
   20     1    1.45
   21     1    1.45
   22     1    1.45
   23     1    1.45
   24     1    1.45
   25     1    1.45
   26     1    1.45
   27     1    1.45
   28     1    1.45
   29     1    1.45
   30     1    1.45
 Generate Potential Derived Charges using the Breneman model, NDens= 1.
 Grid spacing= 0.300 Box extension= 2.800
 NStep X,Y,Z=   51     40     33   Total possible points=       67320
 Number of Points to Fit=   18575

 **********************************************************************

            Electrostatic Properties Using The SCF Density.

 **********************************************************************

       Atomic Center    1 is at   3.094149 -2.198600 -1.117433
       Atomic Center    2 is at   2.641315 -0.953514 -0.399097
       Atomic Center    3 is at   1.344131 -0.465420 -0.575638
       Atomic Center    4 is at   0.909480  0.701623  0.063331
       Atomic Center    5 is at  -0.407822  1.190645 -0.135767
       Atomic Center    6 is at  -0.558081  2.465259 -0.803050
       Atomic Center    7 is at  -1.513653  0.354259  0.008716
       Atomic Center    8 is at  -1.457203 -0.777653  0.848734
       Atomic Center    9 is at  -2.567023 -1.595041  1.015029
       Atomic Center   10 is at  -3.771598 -1.314256  0.366306
       Atomic Center   11 is at  -3.839942 -0.193362 -0.454494
       Atomic Center   12 is at  -2.731201  0.632426 -0.638731
       Atomic Center   13 is at   1.799017  1.399200  0.887226
       Atomic Center   14 is at   3.100170  0.932657  1.054777
       Atomic Center   15 is at   3.518273 -0.236750  0.423892
       Atomic Center   16 is at   3.899787 -2.707715 -0.569510
       Atomic Center   17 is at   3.481133 -1.952451 -2.119593
       Atomic Center   18 is at   2.266302 -2.909720 -1.250139
       Atomic Center   19 is at   0.642690 -1.005742 -1.216675
       Atomic Center   20 is at   0.365713  3.044862 -0.688001
       Atomic Center   21 is at  -0.752368  2.356870 -1.887361
       Atomic Center   22 is at  -1.383794  3.045694 -0.362204
       Atomic Center   23 is at  -0.532645 -1.007151  1.380245
       Atomic Center   24 is at  -2.491178 -2.463018  1.674503
       Atomic Center   25 is at  -4.641635 -1.958728  0.503884
       Atomic Center   26 is at  -4.770811  0.048879 -0.973021
       Atomic Center   27 is at  -2.822491  1.493433 -1.300440
       Atomic Center   28 is at   1.458749  2.298548  1.404883
       Atomic Center   29 is at   3.790716  1.478246  1.701847
       Atomic Center   30 is at   4.537587 -0.601485  0.574534
   18575 points will be used for fitting atomic charges
 Fitting point charges to electrostatic potential
 Charges from ESP fit, RMS=   0.00385 RRMS=   0.39567:
 ESP charges:
               1
     1  C   -0.182787
     2  C    0.203559
     3  C   -0.268646
     4  C    0.381412
     5  N   -0.447878
     6  C    0.100846
     7  C    0.380953
     8  C   -0.220186
     9  C   -0.042194
    10  C   -0.167895
    11  C   -0.057980
    12  C   -0.260713
    13  C   -0.255735
    14  C   -0.039725
    15  C   -0.268005
    16  H    0.056858
    17  H    0.050654
    18  H    0.061099
    19  H    0.105693
    20  H    0.020345
    21  H    0.009412
    22  H    0.021561
    23  H    0.070268
    24  H    0.090175
    25  H    0.091590
    26  H    0.089055
    27  H    0.121240
    28  H    0.133601
    29  H    0.093352
    30  H    0.130071
 Sum of ESP charges =  -0.00000
 ESP charges with hydrogens summed into heavy atoms:
               1
     1  C   -0.014176
     2  C    0.203559
     3  C   -0.162953
     4  C    0.381412
     5  N   -0.447878
     6  C    0.152164
     7  C    0.380953
     8  C   -0.149917
     9  C    0.047981
    10  C   -0.076306
    11  C    0.031075
    12  C   -0.139473
    13  C   -0.122133
    14  C    0.053626
    15  C   -0.137934
 Charge=  -0.00000 Dipole=     1.1445     0.5652    -0.5233 Tot=     1.3796
 -----------------------------------------------------------------

              Electrostatic Properties (Atomic Units)

 -----------------------------------------------------------------
    Center     Electric         -------- Electric Field --------
               Potential          X             Y             Z
 -----------------------------------------------------------------
    1 Atom    -14.768920
    2 Atom    -14.756590
    3 Atom    -14.773593
    4 Atom    -14.728512
    5 Atom    -18.361621
    6 Atom    -14.736619
    7 Atom    -14.729372
    8 Atom    -14.781203
    9 Atom    -14.776196
   10 Atom    -14.784748
   11 Atom    -14.775614
   12 Atom    -14.779358
   13 Atom    -14.771412
   14 Atom    -14.766801
   15 Atom    -14.772789
   16 Atom     -1.114409
   17 Atom     -1.112520
   18 Atom     -1.114626
   19 Atom     -1.106009
   20 Atom     -1.105224
   21 Atom     -1.115780
   22 Atom     -1.111613
   23 Atom     -1.114914
   24 Atom     -1.115604
   25 Atom     -1.118366
   26 Atom     -1.114884
   27 Atom     -1.111017
   28 Atom     -1.103059
   29 Atom     -1.105632
   30 Atom     -1.107836
 -----------------------------------------------------------------
 Unable to Open any file for archive entry.
 1\1\GINC-NOTCH389\SP\RwB97XD\def2TZVP\C14H15N1\U1366379\17-Feb-2026\0\
 \#N Guess=Read Geom=Check Integral(Ultrafine) Density Pop=(ChelpG,Read
 Radii) NMR wB97XD def2TZVP\\prod_5d_5\\0,1\C,0,-2.9534924936,2.4203993
 238,-1.0218406823\C,0,-2.5779266573,1.1231135715,-0.3530316887\C,0,-1.
 3095330946,0.5688788691,-0.5430020139\C,0,-0.9470718069,-0.6462787326,
 0.0496247806\N,0,0.3415195683,-1.201676434,-0.1628212662\C,0,0.4235031
 209,-2.4545687847,-0.8811686517\C,0,1.4923023119,-0.4368049047,0.02143
 9198\C,0,1.4945382352,0.6613105428,0.906977652\C,0,2.6480561737,1.4061
 131696,1.1122698677\C,0,3.8393253417,1.0832344291,0.4585809652\C,0,3.8
 494523141,-0.0053581644,-0.4072437093\C,0,2.6966633062,-0.7578699603,-
 0.6308023005\C,0,-1.8810910157,-1.3245733499,0.8396979158\C,0,-3.15461
 53038,-0.7912424786,1.0197798582\C,0,-3.5004796598,0.424993316,0.43541
 07824\H,0,-3.7326845382,2.9522219924,-0.4574873403\H,0,-3.3465545344,2
 .2379357046,-2.0351908528\H,0,-2.0853620239,3.0875848998,-1.1210688533
 \H,0,-0.5736365463,1.0936682174,-1.1577769192\H,0,-0.5327595134,-2.984
 3313744,-0.7946561982\H,0,0.6316327072,-2.3134323223,-1.9591242618\H,0
 ,1.2113934626,-3.0989763718,-0.4604319494\H,0,0.5807459129,0.921714130
 9,1.4428463793\H,0,2.6171539045,2.2494209599,1.8064733658\H,0,4.743776
 2166,1.6704994473,0.6268753981\H,0,4.7687200387,-0.2793638784,-0.93063
 13154\H,0,2.7433989704,-1.5950219504,-1.3268766286\H,0,-1.5966491808,-
 2.262334643,1.3216464454\H,0,-3.8799801898,-1.322157573,1.6404203585\H
 ,0,-4.4983350264,0.8412623482,0.5958216646\\Version=ES64L-G16RevC.01\S
 tate=1-A\HF=-597.2789633\RMSD=2.811e-09\Dipole=-0.4769333,-0.1690137,-
 0.2423741\Quadrupole=0.5932929,2.3773963,-2.9706892,-1.0838212,-2.2250
 45,1.018773\PG=C01 [X(C14H15N1)]\\@
 The archive entry for this job was punched.


 MEMORIES ARE LIKE AN ENGLISH GRAMMER LESSON -
 PRESENT TENSE, AND PAST PERFECT.
 Job cpu time:       0 days  1 hours 16 minutes  4.6 seconds.
 Elapsed time:       0 days  0 hours  9 minutes 45.7 seconds.
 File lengths (MBytes):  RWF=    190 Int=      0 D2E=      0 Chk=     29 Scr=      2
 Normal termination of Gaussian 16 at Tue Feb 17 16:44:55 2026.
