 Entering Gaussian System, Link 0=g16
 Input=prod_5f_7.com
 Output=prod_5f_7.log
 Initial command:
 /uufs/chpc.utah.edu/sys/installdir/gaussian16/C01/AVX/g16/l1.exe "/scratch/general/vast/u1366379/GAUSSSCRDIR/11028657-notchpeak.peaks/Gau-492460.inp" -scrdir="/scratch/general/vast/u1366379/GAUSSSCRDIR/11028657-notchpeak.peaks/"
 Entering Link 1 = /uufs/chpc.utah.edu/sys/installdir/gaussian16/C01/AVX/g16/l1.exe PID=    492462.
  
 Copyright (c) 1988-2019, Gaussian, Inc.  All Rights Reserved.
  
 This is part of the Gaussian(R) 16 program.  It is based on
 the Gaussian(R) 09 system (copyright 2009, Gaussian, Inc.),
 the Gaussian(R) 03 system (copyright 2003, Gaussian, Inc.),
 the Gaussian(R) 98 system (copyright 1998, Gaussian, Inc.),
 the Gaussian(R) 94 system (copyright 1995, Gaussian, Inc.),
 the Gaussian 92(TM) system (copyright 1992, Gaussian, Inc.),
 the Gaussian 90(TM) system (copyright 1990, Gaussian, Inc.),
 the Gaussian 88(TM) system (copyright 1988, Gaussian, Inc.),
 the Gaussian 86(TM) system (copyright 1986, Carnegie Mellon
 University), and the Gaussian 82(TM) system (copyright 1983,
 Carnegie Mellon University). Gaussian is a federally registered
 trademark of Gaussian, Inc.
  
 This software contains proprietary and confidential information,
 including trade secrets, belonging to Gaussian, Inc.
  
 This software is provided under written license and may be
 used, copied, transmitted, or stored only in accord with that
 written license.
  
 The following legend is applicable only to US Government
 contracts under FAR:
  
                    RESTRICTED RIGHTS LEGEND
  
 Use, reproduction and disclosure by the US Government is
 subject to restrictions as set forth in subparagraphs (a)
 and (c) of the Commercial Computer Software - Restricted
 Rights clause in FAR 52.227-19.
  
 Gaussian, Inc.
 340 Quinnipiac St., Bldg. 40, Wallingford CT 06492
  
  
 ---------------------------------------------------------------
 Warning -- This program may not be used in any manner that
 competes with the business of Gaussian, Inc. or will provide
 assistance to any competitor of Gaussian, Inc.  The licensee
 of this program is prohibited from giving any competitor of
 Gaussian, Inc. access to this program.  By using this program,
 the user acknowledges that Gaussian, Inc. is engaged in the
 business of creating and licensing software in the field of
 computational chemistry and represents and warrants to the
 licensee that it is not a competitor of Gaussian, Inc. and that
 it will not use this program in any manner prohibited above.
 ---------------------------------------------------------------
  

 Cite this work as:
 Gaussian 16, Revision C.01,
 M. J. Frisch, G. W. Trucks, H. B. Schlegel, G. E. Scuseria, 
 M. A. Robb, J. R. Cheeseman, G. Scalmani, V. Barone, 
 G. A. Petersson, H. Nakatsuji, X. Li, M. Caricato, A. V. Marenich, 
 J. Bloino, B. G. Janesko, R. Gomperts, B. Mennucci, H. P. Hratchian, 
 J. V. Ortiz, A. F. Izmaylov, J. L. Sonnenberg, D. Williams-Young, 
 F. Ding, F. Lipparini, F. Egidi, J. Goings, B. Peng, A. Petrone, 
 T. Henderson, D. Ranasinghe, V. G. Zakrzewski, J. Gao, N. Rega, 
 G. Zheng, W. Liang, M. Hada, M. Ehara, K. Toyota, R. Fukuda, 
 J. Hasegawa, M. Ishida, T. Nakajima, Y. Honda, O. Kitao, H. Nakai, 
 T. Vreven, K. Throssell, J. A. Montgomery, Jr., J. E. Peralta, 
 F. Ogliaro, M. J. Bearpark, J. J. Heyd, E. N. Brothers, K. N. Kudin, 
 V. N. Staroverov, T. A. Keith, R. Kobayashi, J. Normand, 
 K. Raghavachari, A. P. Rendell, J. C. Burant, S. S. Iyengar, 
 J. Tomasi, M. Cossi, J. M. Millam, M. Klene, C. Adamo, R. Cammi, 
 J. W. Ochterski, R. L. Martin, K. Morokuma, O. Farkas, 
 J. B. Foresman, and D. J. Fox, Gaussian, Inc., Wallingford CT, 2019.
 
 ******************************************
 Gaussian 16:  ES64L-G16RevC.01  3-Jul-2019
                17-Feb-2026 
 ******************************************
 %NProcShared=8
 Will use up to    8 processors via shared memory.
 %Mem=8GB
 %chk=prod_5f_7.chk
 ------------------------------------------------------
 #N OPT FREQ=NORAMAN Integral(Ultrafine) wB97XD def2SVP
 ------------------------------------------------------
 1/18=20,19=15,26=4,38=1/1,3;
 2/9=110,12=2,17=6,18=5,40=1/2;
 3/5=43,7=101,11=2,25=1,30=1,71=1,74=-58,75=-5/1,2,3;
 4//1;
 5/5=2,38=5/2;
 6/7=2,8=2,9=2,10=2,28=1/1;
 7//1,2,3,16;
 1/18=20,19=15,26=4/3(2);
 2/9=110/2;
 99//99;
 2/9=110/2;
 3/5=43,7=101,11=2,25=1,30=1,71=1,74=-58,75=-5/1,2,3;
 4/5=5,16=3,69=1/1;
 5/5=2,38=5/2;
 7//1,2,3,16;
 1/18=20,19=15,26=4/3(-5);
 2/9=110/2;
 6/7=2,8=2,9=2,10=2,19=2,28=1/1;
 99/9=1/99;
 ---------
 prod_5f_7
 ---------
 Symbolic Z-matrix:
 Charge =  0 Multiplicity = 1
 Cl                   -4.08504   0.69155  -1.36021 
 C                    -2.76562   0.24753  -0.33403 
 C                    -1.49926   0.73022  -0.59938 
 C                    -0.42062   0.38035   0.2086 
 N                     0.89486   0.87316  -0.05597 
 C                     1.03523   2.18979  -0.67839 
 C                     2.05191   0.0507    0.11803 
 C                     1.96267  -1.32942  -0.06451 
 C                     3.06653  -2.13711   0.08759 
 C                     4.28617  -1.58522   0.42553 
 C                     4.39528  -0.22102   0.61028 
 C                     3.29291   0.58999   0.45788 
 C                    -0.65476  -0.46645   1.29435 
 C                    -1.91997  -0.94637   1.55915 
 C                    -2.97793  -0.59229   0.7479 
 H                    -1.35084   1.35947  -1.45736 
 H                     1.1626    2.07905  -1.75345 
 H                     1.89269   2.72404  -0.27798 
 H                     0.15083   2.79456  -0.48763 
 H                     1.0152   -1.7552   -0.34473 
 H                     2.97947  -3.20118  -0.0598 
 H                     5.15066  -2.21752   0.54501 
 H                     5.3464    0.20964   0.87783 
 H                     3.38263   1.64745   0.62899 
 H                     0.17024  -0.72938   1.93284 
 H                    -2.08344  -1.5973    2.40222 
 H                    -3.97206  -0.95821   0.94016 
 

 GradGradGradGradGradGradGradGradGradGradGradGradGradGradGradGradGradGrad
 Berny optimization.
 Initialization pass.
                           ----------------------------
                           !    Initial Parameters    !
                           ! (Angstroms and Degrees)  !
 --------------------------                            --------------------------
 ! Name  Definition              Value          Derivative Info.                !
 --------------------------------------------------------------------------------
 ! R1    R(1,2)                  1.7295         estimate D2E/DX2                !
 ! R2    R(2,3)                  1.381          estimate D2E/DX2                !
 ! R3    R(2,15)                 1.386          estimate D2E/DX2                !
 ! R4    R(3,4)                  1.3924         estimate D2E/DX2                !
 ! R5    R(3,16)                 1.0743         estimate D2E/DX2                !
 ! R6    R(4,5)                  1.4295         estimate D2E/DX2                !
 ! R7    R(4,13)                 1.3967         estimate D2E/DX2                !
 ! R8    R(5,6)                  1.4631         estimate D2E/DX2                !
 ! R9    R(5,7)                  1.4302         estimate D2E/DX2                !
 ! R10   R(6,17)                 1.0882         estimate D2E/DX2                !
 ! R11   R(6,18)                 1.0867         estimate D2E/DX2                !
 ! R12   R(6,19)                 1.0883         estimate D2E/DX2                !
 ! R13   R(7,8)                  1.395          estimate D2E/DX2                !
 ! R14   R(7,12)                 1.3951         estimate D2E/DX2                !
 ! R15   R(8,9)                  1.3762         estimate D2E/DX2                !
 ! R16   R(8,20)                 1.0759         estimate D2E/DX2                !
 ! R17   R(9,10)                 1.3807         estimate D2E/DX2                !
 ! R18   R(9,21)                 1.0778         estimate D2E/DX2                !
 ! R19   R(10,11)                1.381          estimate D2E/DX2                !
 ! R20   R(10,22)                1.0777         estimate D2E/DX2                !
 ! R21   R(11,12)                1.377          estimate D2E/DX2                !
 ! R22   R(11,23)                1.0778         estimate D2E/DX2                !
 ! R23   R(12,24)                1.075          estimate D2E/DX2                !
 ! R24   R(13,14)                1.3788         estimate D2E/DX2                !
 ! R25   R(13,25)                1.0758         estimate D2E/DX2                !
 ! R26   R(14,15)                1.3794         estimate D2E/DX2                !
 ! R27   R(14,26)                1.0776         estimate D2E/DX2                !
 ! R28   R(15,27)                1.0766         estimate D2E/DX2                !
 ! A1    A(1,2,3)              119.7253         estimate D2E/DX2                !
 ! A2    A(1,2,15)             120.1248         estimate D2E/DX2                !
 ! A3    A(3,2,15)             120.1497         estimate D2E/DX2                !
 ! A4    A(2,3,4)              120.7342         estimate D2E/DX2                !
 ! A5    A(2,3,16)             119.0045         estimate D2E/DX2                !
 ! A6    A(4,3,16)             120.2384         estimate D2E/DX2                !
 ! A7    A(3,4,5)              121.257          estimate D2E/DX2                !
 ! A8    A(3,4,13)             118.267          estimate D2E/DX2                !
 ! A9    A(5,4,13)             120.4757         estimate D2E/DX2                !
 ! A10   A(4,5,6)              118.5074         estimate D2E/DX2                !
 ! A11   A(4,5,7)              121.5829         estimate D2E/DX2                !
 ! A12   A(6,5,7)              119.4484         estimate D2E/DX2                !
 ! A13   A(5,6,17)             109.8721         estimate D2E/DX2                !
 ! A14   A(5,6,18)             111.1834         estimate D2E/DX2                !
 ! A15   A(5,6,19)             110.3379         estimate D2E/DX2                !
 ! A16   A(17,6,18)            108.764          estimate D2E/DX2                !
 ! A17   A(17,6,19)            108.9558         estimate D2E/DX2                !
 ! A18   A(18,6,19)            107.6641         estimate D2E/DX2                !
 ! A19   A(5,7,8)              120.0833         estimate D2E/DX2                !
 ! A20   A(5,7,12)             121.8012         estimate D2E/DX2                !
 ! A21   A(8,7,12)             118.1126         estimate D2E/DX2                !
 ! A22   A(7,8,9)              120.9878         estimate D2E/DX2                !
 ! A23   A(7,8,20)             118.8128         estimate D2E/DX2                !
 ! A24   A(9,8,20)             120.191          estimate D2E/DX2                !
 ! A25   A(8,9,10)             120.0656         estimate D2E/DX2                !
 ! A26   A(8,9,21)             119.9689         estimate D2E/DX2                !
 ! A27   A(10,9,21)            119.9653         estimate D2E/DX2                !
 ! A28   A(9,10,11)            119.8284         estimate D2E/DX2                !
 ! A29   A(9,10,22)            120.0802         estimate D2E/DX2                !
 ! A30   A(11,10,22)           120.0914         estimate D2E/DX2                !
 ! A31   A(10,11,12)           120.2485         estimate D2E/DX2                !
 ! A32   A(10,11,23)           119.8445         estimate D2E/DX2                !
 ! A33   A(12,11,23)           119.9067         estimate D2E/DX2                !
 ! A34   A(7,12,11)            120.757          estimate D2E/DX2                !
 ! A35   A(7,12,24)            119.5558         estimate D2E/DX2                !
 ! A36   A(11,12,24)           119.6656         estimate D2E/DX2                !
 ! A37   A(4,13,14)            120.9401         estimate D2E/DX2                !
 ! A38   A(4,13,25)            118.7493         estimate D2E/DX2                !
 ! A39   A(14,13,25)           120.3054         estimate D2E/DX2                !
 ! A40   A(13,14,15)           120.0974         estimate D2E/DX2                !
 ! A41   A(13,14,26)           119.98           estimate D2E/DX2                !
 ! A42   A(15,14,26)           119.9224         estimate D2E/DX2                !
 ! A43   A(2,15,14)            119.8114         estimate D2E/DX2                !
 ! A44   A(2,15,27)            119.1295         estimate D2E/DX2                !
 ! A45   A(14,15,27)           121.0592         estimate D2E/DX2                !
 ! D1    D(1,2,3,4)           -179.6434         estimate D2E/DX2                !
 ! D2    D(1,2,3,16)            -1.3779         estimate D2E/DX2                !
 ! D3    D(15,2,3,4)             0.1761         estimate D2E/DX2                !
 ! D4    D(15,2,3,16)          178.4416         estimate D2E/DX2                !
 ! D5    D(1,2,15,14)          179.7527         estimate D2E/DX2                !
 ! D6    D(1,2,15,27)           -0.2425         estimate D2E/DX2                !
 ! D7    D(3,2,15,14)           -0.0661         estimate D2E/DX2                !
 ! D8    D(3,2,15,27)          179.9387         estimate D2E/DX2                !
 ! D9    D(2,3,4,5)            179.9832         estimate D2E/DX2                !
 ! D10   D(2,3,4,13)            -0.2006         estimate D2E/DX2                !
 ! D11   D(16,3,4,5)             1.739          estimate D2E/DX2                !
 ! D12   D(16,3,4,13)         -178.4447         estimate D2E/DX2                !
 ! D13   D(3,4,5,6)             30.6423         estimate D2E/DX2                !
 ! D14   D(3,4,5,7)           -141.5188         estimate D2E/DX2                !
 ! D15   D(13,4,5,6)          -149.17           estimate D2E/DX2                !
 ! D16   D(13,4,5,7)            38.669          estimate D2E/DX2                !
 ! D17   D(3,4,13,14)            0.1201         estimate D2E/DX2                !
 ! D18   D(3,4,13,25)         -179.0509         estimate D2E/DX2                !
 ! D19   D(5,4,13,14)          179.9379         estimate D2E/DX2                !
 ! D20   D(5,4,13,25)            0.7668         estimate D2E/DX2                !
 ! D21   D(4,5,6,17)           -96.4779         estimate D2E/DX2                !
 ! D22   D(4,5,6,18)           143.0645         estimate D2E/DX2                !
 ! D23   D(4,5,6,19)            23.6773         estimate D2E/DX2                !
 ! D24   D(7,5,6,17)            75.8544         estimate D2E/DX2                !
 ! D25   D(7,5,6,18)           -44.6031         estimate D2E/DX2                !
 ! D26   D(7,5,6,19)          -163.9903         estimate D2E/DX2                !
 ! D27   D(4,5,7,8)             30.0188         estimate D2E/DX2                !
 ! D28   D(4,5,7,12)          -150.603          estimate D2E/DX2                !
 ! D29   D(6,5,7,8)           -142.0701         estimate D2E/DX2                !
 ! D30   D(6,5,7,12)            37.308          estimate D2E/DX2                !
 ! D31   D(5,7,8,9)            179.4737         estimate D2E/DX2                !
 ! D32   D(5,7,8,20)             0.5264         estimate D2E/DX2                !
 ! D33   D(12,7,8,9)             0.0729         estimate D2E/DX2                !
 ! D34   D(12,7,8,20)         -178.8743         estimate D2E/DX2                !
 ! D35   D(5,7,12,11)         -179.5106         estimate D2E/DX2                !
 ! D36   D(5,7,12,24)            2.1845         estimate D2E/DX2                !
 ! D37   D(8,7,12,11)           -0.1207         estimate D2E/DX2                !
 ! D38   D(8,7,12,24)         -178.4256         estimate D2E/DX2                !
 ! D39   D(7,8,9,10)            -0.0105         estimate D2E/DX2                !
 ! D40   D(7,8,9,21)          -179.8475         estimate D2E/DX2                !
 ! D41   D(20,8,9,10)          178.9223         estimate D2E/DX2                !
 ! D42   D(20,8,9,21)           -0.9147         estimate D2E/DX2                !
 ! D43   D(8,9,10,11)           -0.0065         estimate D2E/DX2                !
 ! D44   D(8,9,10,22)          179.9801         estimate D2E/DX2                !
 ! D45   D(21,9,10,11)         179.8306         estimate D2E/DX2                !
 ! D46   D(21,9,10,22)          -0.1828         estimate D2E/DX2                !
 ! D47   D(9,10,11,12)          -0.0413         estimate D2E/DX2                !
 ! D48   D(9,10,11,23)         179.7635         estimate D2E/DX2                !
 ! D49   D(22,10,11,12)        179.9721         estimate D2E/DX2                !
 ! D50   D(22,10,11,23)         -0.2231         estimate D2E/DX2                !
 ! D51   D(10,11,12,7)           0.1065         estimate D2E/DX2                !
 ! D52   D(10,11,12,24)        178.4095         estimate D2E/DX2                !
 ! D53   D(23,11,12,7)        -179.6982         estimate D2E/DX2                !
 ! D54   D(23,11,12,24)         -1.3952         estimate D2E/DX2                !
 ! D55   D(4,13,14,15)          -0.0144         estimate D2E/DX2                !
 ! D56   D(4,13,14,26)        -179.8806         estimate D2E/DX2                !
 ! D57   D(25,13,14,15)        179.1438         estimate D2E/DX2                !
 ! D58   D(25,13,14,26)         -0.7224         estimate D2E/DX2                !
 ! D59   D(13,14,15,2)          -0.0142         estimate D2E/DX2                !
 ! D60   D(13,14,15,27)        179.9809         estimate D2E/DX2                !
 ! D61   D(26,14,15,2)         179.8522         estimate D2E/DX2                !
 ! D62   D(26,14,15,27)         -0.1528         estimate D2E/DX2                !
 --------------------------------------------------------------------------------
 Trust Radius=3.00D-01 FncErr=1.00D-07 GrdErr=1.00D-06 EigMax=2.50D+02 EigMin=1.00D-04
 Number of steps in this run=    145 maximum allowed number of steps=    162.
 GradGradGradGradGradGradGradGradGradGradGradGradGradGradGradGradGradGrad

                          Input orientation:                          
 ---------------------------------------------------------------------
 Center     Atomic      Atomic             Coordinates (Angstroms)
 Number     Number       Type             X           Y           Z
 ---------------------------------------------------------------------
      1         17           0       -4.085040    0.691550   -1.360210
      2          6           0       -2.765620    0.247530   -0.334030
      3          6           0       -1.499260    0.730220   -0.599380
      4          6           0       -0.420620    0.380350    0.208600
      5          7           0        0.894860    0.873160   -0.055970
      6          6           0        1.035230    2.189790   -0.678390
      7          6           0        2.051910    0.050700    0.118030
      8          6           0        1.962670   -1.329420   -0.064510
      9          6           0        3.066530   -2.137110    0.087590
     10          6           0        4.286170   -1.585220    0.425530
     11          6           0        4.395280   -0.221020    0.610280
     12          6           0        3.292910    0.589990    0.457880
     13          6           0       -0.654760   -0.466450    1.294350
     14          6           0       -1.919970   -0.946370    1.559150
     15          6           0       -2.977930   -0.592290    0.747900
     16          1           0       -1.350840    1.359470   -1.457360
     17          1           0        1.162600    2.079050   -1.753450
     18          1           0        1.892690    2.724040   -0.277980
     19          1           0        0.150830    2.794560   -0.487630
     20          1           0        1.015200   -1.755200   -0.344730
     21          1           0        2.979470   -3.201180   -0.059800
     22          1           0        5.150660   -2.217520    0.545010
     23          1           0        5.346400    0.209640    0.877830
     24          1           0        3.382630    1.647450    0.628990
     25          1           0        0.170240   -0.729380    1.932840
     26          1           0       -2.083440   -1.597300    2.402220
     27          1           0       -3.972060   -0.958210    0.940160
 ---------------------------------------------------------------------
                    Distance matrix (angstroms):
                    1          2          3          4          5
     1  Cl   0.000000
     2  C    1.729471   0.000000
     3  C    2.695666   1.380966   0.000000
     4  C    3.998248   2.410625   1.392374   0.000000
     5  N    5.151061   3.723955   2.459174   1.429457   0.000000
     6  C    5.378361   4.282221   2.925787   2.486026   1.463087
     7  C    6.344922   4.842695   3.686086   2.496052   1.430203
     8  C    6.506762   4.991607   4.063639   2.945840   2.447785
     9  C    7.825752   6.314922   5.435066   4.302611   3.714631
    10  C    8.857184   7.325547   6.315291   5.105330   4.216214
    11  C    8.753939   7.238076   6.092104   4.869896   3.727474
    12  C    7.599336   6.119656   4.909415   3.727787   2.468779
    13  C    4.489373   2.759913   2.394037   1.396691   2.453414
    14  C    3.986599   2.392624   2.765358   2.414999   3.720560
    15  C    2.705192   1.385982   2.398054   2.788675   4.218086
    16  H    2.816275   2.121293   1.074297   2.144623   2.691386
    17  H    5.442198   4.560716   3.199487   3.040034   2.099356
    18  H    6.405895   5.275992   3.947650   3.328821   2.114405
    19  H    4.809017   3.875130   2.645144   2.576762   2.105158
    20  H    5.747194   4.278509   3.544668   2.632172   2.646911
    21  H    8.170172   6.706330   5.983818   4.945706   4.576665
    22  H    9.868673   8.337666   7.363439   6.156400   5.293894
    23  H    9.705314   8.202128   7.022550   5.808230   4.596569
    24  H    7.786961   6.378727   5.116938   4.030754   2.694011
    25  H    5.565126   3.835665   3.365977   2.133921   2.654915
    26  H    4.837470   3.369841   3.842944   3.389401   4.584337
    27  H    2.833050   2.129053   3.366856   3.865184   5.294629
                    6          7          8          9         10
     6  C    0.000000
     7  C    2.498725   0.000000
     8  C    3.690777   1.394997   0.000000
     9  C    4.840968   2.411824   1.376228   0.000000
    10  C    5.102740   2.786164   2.388352   1.380691   0.000000
    11  C    4.331583   2.409881   2.757079   2.389599   1.380970
    12  C    2.991252   1.395139   2.393024   2.761419   2.391475
    13  C    3.715290   2.996203   3.072809   4.253866   5.139969
    14  C    4.855439   4.341291   4.225860   5.333717   6.341088
    15  C    5.087212   5.109742   5.060919   6.273593   7.338732
    16  H    2.643777   3.971579   4.488820   5.841755   6.632673
    17  H    1.088228   2.899571   3.887197   4.978994   5.285028
    18  H    1.086733   2.707198   4.059680   5.014212   4.979297
    19  H    1.088255   3.392594   4.524269   5.757912   6.092403
    20  H    3.959126   2.133117   1.075877   2.130894   3.364735
    21  H    5.764137   3.386254   2.130115   1.077751   2.134089
    22  H    6.152874   3.863856   3.365043   2.135251   1.077693
    23  H    4.992895   3.384704   3.834884   3.365936   2.133116
    24  H    2.741106   2.140445   3.370309   3.836134   3.362727
    25  H    4.011020   2.728139   2.749956   3.711489   4.466019
    26  H    5.792954   5.003454   4.746317   5.671957   6.669286
    27  H    6.132093   6.162955   6.030604   7.187380   8.297973
                   11         12         13         14         15
    11  C    0.000000
    12  C    1.377019   0.000000
    13  C    5.102067   4.171312   0.000000
    14  C    6.427198   5.545026   1.378840   0.000000
    15  C    7.383834   6.387905   2.389887   1.379412   0.000000
    16  H    6.308009   5.081797   3.374970   3.839289   3.364515
    17  H    4.618199   3.412550   4.367087   5.443227   5.526011
    18  H    3.965519   2.656365   4.375037   5.602083   5.981088
    19  H    5.321136   3.953073   3.802448   4.740472   4.773513
    20  H    3.832844   3.366313   2.671372   3.590848   4.300150
    21  H    3.366731   3.839168   4.745535   5.631135   6.553572
    22  H    2.135620   3.367631   6.109882   7.255213   8.291955
    23  H    1.077813   2.130222   6.053471   7.389228   8.363877
    24  H    2.125321   1.074965   4.605626   5.975840   6.744427
    25  H    4.456294   3.696933   1.075838   2.134410   3.366579
    26  H    6.861414   6.121261   2.132446   1.077590   2.132354
    27  H    8.406227   7.443743   3.372204   2.143446   1.076641
                   16         17         18         19         20
    16  H    0.000000
    17  H    2.631130   0.000000
    18  H    3.711263   1.768065   0.000000
    19  H    2.292351   1.771421   1.755848   0.000000
    20  H    4.066603   4.087504   4.564870   4.633343   0.000000
    21  H    6.442382   5.835263   6.028012   6.643278   2.455687
    22  H    7.685951   6.296670   5.975843   7.154411   4.255280
    23  H    7.185280   5.284175   4.425632   5.961564   4.910656
    24  H    5.180881   3.284940   2.049771   3.606554   4.258037
    25  H    4.262679   4.739282   4.447546   4.275185   2.636966
    26  H    4.916864   6.428213   6.455003   5.712410   4.143940
    27  H    4.241525   6.545626   7.031225   5.755006   5.211420
                   21         22         23         24         25
    21  H    0.000000
    22  H    2.459156   0.000000
    23  H    4.256196   2.457680   0.000000
    24  H    4.913877   4.250997   2.446551   0.000000
    25  H    4.239361   5.380076   5.365393   4.203427   0.000000
    26  H    5.853805   7.494405   7.796879   6.599293   2.460219
    27  H    7.372557   9.217702   9.391563   7.808826   4.265727
                   26         27
    26  H    0.000000
    27  H    2.472436   0.000000
 Stoichiometry    C13H12ClN
 Framework group  C1[X(C13H12ClN)]
 Deg. of freedom    75
 Full point group                 C1      NOp   1
 Largest Abelian subgroup         C1      NOp   1
 Largest concise Abelian subgroup C1      NOp   1
                         Standard orientation:                         
 ---------------------------------------------------------------------
 Center     Atomic      Atomic             Coordinates (Angstroms)
 Number     Number       Type             X           Y           Z
 ---------------------------------------------------------------------
      1         17           0        4.366423    0.452199    0.718440
      2          6           0        2.879717   -0.147441    0.069435
      3          6           0        1.738305    0.626252    0.144575
      4          6           0        0.528633    0.161192   -0.364460
      5          7           0       -0.659660    0.952459   -0.292335
      6          6           0       -0.531879    2.409426   -0.331638
      7          6           0       -1.934917    0.365582   -0.018887
      8          6           0       -2.021759   -0.783391    0.767456
      9          6           0       -3.239954   -1.357417    1.051181
     10          6           0       -4.400711   -0.797101    0.556210
     11          6           0       -4.335929    0.340558   -0.223928
     12          6           0       -3.118685    0.917908   -0.508828
     13          6           0        0.502371   -1.104074   -0.955357
     14          6           0        1.643118   -1.874879   -1.031216
     15          6           0        2.833493   -1.400879   -0.520227
     16          1           0        1.789295    1.584291    0.627975
     17          1           0       -0.538925    2.808817    0.680625
     18          1           0       -1.347317    2.860199   -0.890972
     19          1           0        0.399155    2.694479   -0.817662
     20          1           0       -1.117408   -1.208285    1.166360
     21          1           0       -3.288156   -2.243698    1.662516
     22          1           0       -5.354753   -1.246596    0.777976
     23          1           0       -5.241590    0.775989   -0.613617
     24          1           0       -3.076993    1.788425   -1.138122
     25          1           0       -0.424735   -1.464701   -1.365051
     26          1           0        1.605664   -2.848172   -1.492190
     27          1           0        3.733391   -1.989755   -0.570865
 ---------------------------------------------------------------------
 Rotational constants (GHZ):           1.3734686           0.2616618           0.2385195
 Standard basis: def2SVP (5D, 7F)
 There are   289 symmetry adapted cartesian basis functions of A   symmetry.
 There are   274 symmetry adapted basis functions of A   symmetry.
   274 basis functions,   471 primitive gaussians,   289 cartesian basis functions
    57 alpha electrons       57 beta electrons
       nuclear repulsion energy       998.2885385820 Hartrees.
 NAtoms=   27 NActive=   27 NUniq=   27 SFac= 1.00D+00 NAtFMM=   60 NAOKFM=F Big=F
 Integral buffers will be    131072 words long.
 Raffenetti 2 integral format.
 Two-electron integral symmetry is turned on.
 Nuclear repulsion after empirical dispersion term =      998.2706369493 Hartrees.
 One-electron integrals computed using PRISM.
   1 Symmetry operations used in ECPInt.
 ECPInt:  NShTT=    8256 NPrTT=   30622 LenC2=    7772 LenP2D=   20999.
 LDataN:  DoStor=T MaxTD1= 4 Len=   56
 NBasis=   274 RedAO= T EigKep=  2.29D-04  NBF=   274
 NBsUse=   274 1.00D-06 EigRej= -1.00D+00 NBFU=   274
 ExpMin= 1.22D-01 ExpMax= 1.04D+04 ExpMxC= 1.57D+03 IAcc=3 IRadAn=         5 AccDes= 0.00D+00
 Harris functional with IExCor= 4639 and IRadAn=       5 diagonalized for initial guess.
 HarFok:  IExCor= 4639 AccDes= 0.00D+00 IRadAn=         5 IDoV= 1 UseB2=F ITyADJ=14
 ICtDFT=  3500011 ScaDFX=  1.000000  1.000000  1.000000  1.000000
 FoFCou: FMM=F IPFlag=           0 FMFlag=      100000 FMFlg1=           0
         NFxFlg=           0 DoJE=T BraDBF=F KetDBF=T FulRan=T
         wScrn=  0.000000 ICntrl=       500 IOpCl=  0 I1Cent=   200000004 NGrid=           0
         NMat0=    1 NMatS0=      1 NMatT0=    0 NMatD0=    1 NMtDS0=    0 NMtDT0=    0
 Petite list used in FoFCou.
 Requested convergence on RMS density matrix=1.00D-08 within 128 cycles.
 Requested convergence on MAX density matrix=1.00D-06.
 Requested convergence on             energy=1.00D-06.
 No special actions if energy rises.
 Integral accuracy reduced to 1.0D-05 until final iterations.
 Initial convergence to 1.0D-05 achieved.  Increase integral accuracy.
 SCF Done:  E(RwB97XD) =  -1016.82260841     A.U. after   16 cycles
            NFock= 16  Conv=0.46D-08     -V/T= 2.0067

 **********************************************************************

            Population analysis using the SCF Density.

 **********************************************************************

 Orbital symmetries:
       Occupied  (A) (A) (A) (A) (A) (A) (A) (A) (A) (A) (A) (A)
                 (A) (A) (A) (A) (A) (A) (A) (A) (A) (A) (A) (A)
                 (A) (A) (A) (A) (A) (A) (A) (A) (A) (A) (A) (A)
                 (A) (A) (A) (A) (A) (A) (A) (A) (A) (A) (A) (A)
                 (A) (A) (A) (A) (A) (A) (A) (A) (A)
       Virtual   (A) (A) (A) (A) (A) (A) (A) (A) (A) (A) (A) (A)
                 (A) (A) (A) (A) (A) (A) (A) (A) (A) (A) (A) (A)
                 (A) (A) (A) (A) (A) (A) (A) (A) (A) (A) (A) (A)
                 (A) (A) (A) (A) (A) (A) (A) (A) (A) (A) (A) (A)
                 (A) (A) (A) (A) (A) (A) (A) (A) (A) (A) (A) (A)
                 (A) (A) (A) (A) (A) (A) (A) (A) (A) (A) (A) (A)
                 (A) (A) (A) (A) (A) (A) (A) (A) (A) (A) (A) (A)
                 (A) (A) (A) (A) (A) (A) (A) (A) (A) (A) (A) (A)
                 (A) (A) (A) (A) (A) (A) (A) (A) (A) (A) (A) (A)
                 (A) (A) (A) (A) (A) (A) (A) (A) (A) (A) (A) (A)
                 (A) (A) (A) (A) (A) (A) (A) (A) (A) (A) (A) (A)
                 (A) (A) (A) (A) (A) (A) (A) (A) (A) (A) (A) (A)
                 (A) (A) (A) (A) (A) (A) (A) (A) (A) (A) (A) (A)
                 (A) (A) (A) (A) (A) (A) (A) (A) (A) (A) (A) (A)
                 (A) (A) (A) (A) (A) (A) (A) (A) (A) (A) (A) (A)
                 (A) (A) (A) (A) (A) (A) (A) (A) (A) (A) (A) (A)
                 (A) (A) (A) (A) (A) (A) (A) (A) (A) (A) (A) (A)
                 (A) (A) (A) (A) (A) (A) (A) (A) (A) (A) (A) (A)
                 (A)
 The electronic state is 1-A.
 Alpha  occ. eigenvalues -- -101.67568 -14.47231 -10.35758 -10.35188 -10.34522
 Alpha  occ. eigenvalues --  -10.33497 -10.30886 -10.30642 -10.30257 -10.30109
 Alpha  occ. eigenvalues --  -10.30056 -10.29997 -10.29891 -10.29571 -10.29328
 Alpha  occ. eigenvalues --   -9.58386  -7.33768  -7.32795  -7.32768  -1.04918
 Alpha  occ. eigenvalues --   -0.99058  -0.95400  -0.93077  -0.85908  -0.84988
 Alpha  occ. eigenvalues --   -0.83693  -0.82973  -0.77856  -0.71894  -0.70309
 Alpha  occ. eigenvalues --   -0.69974  -0.66765  -0.63057  -0.61178  -0.57989
 Alpha  occ. eigenvalues --   -0.57227  -0.56308  -0.54145  -0.53851  -0.52899
 Alpha  occ. eigenvalues --   -0.52193  -0.51760  -0.51065  -0.49062  -0.48218
 Alpha  occ. eigenvalues --   -0.46880  -0.45933  -0.44952  -0.43966  -0.42887
 Alpha  occ. eigenvalues --   -0.42447  -0.39269  -0.38400  -0.34379  -0.33817
 Alpha  occ. eigenvalues --   -0.32499  -0.26835
 Alpha virt. eigenvalues --    0.04556   0.04968   0.06698   0.08250   0.12027
 Alpha virt. eigenvalues --    0.14023   0.15864   0.17345   0.17685   0.19612
 Alpha virt. eigenvalues --    0.20228   0.20760   0.21449   0.21969   0.22480
 Alpha virt. eigenvalues --    0.23099   0.23667   0.24469   0.24968   0.28656
 Alpha virt. eigenvalues --    0.31403   0.33500   0.34659   0.35895   0.36446
 Alpha virt. eigenvalues --    0.37427   0.39126   0.39735   0.40877   0.41903
 Alpha virt. eigenvalues --    0.42435   0.44726   0.46813   0.47520   0.48088
 Alpha virt. eigenvalues --    0.48490   0.50285   0.51407   0.52457   0.53258
 Alpha virt. eigenvalues --    0.53875   0.54782   0.56496   0.56839   0.57114
 Alpha virt. eigenvalues --    0.58062   0.58273   0.59156   0.60601   0.62108
 Alpha virt. eigenvalues --    0.63316   0.64057   0.64901   0.65883   0.66780
 Alpha virt. eigenvalues --    0.68043   0.68663   0.69966   0.71364   0.72159
 Alpha virt. eigenvalues --    0.72469   0.73004   0.74038   0.74490   0.74962
 Alpha virt. eigenvalues --    0.75877   0.76255   0.77477   0.77514   0.77798
 Alpha virt. eigenvalues --    0.78676   0.79106   0.80858   0.82305   0.82440
 Alpha virt. eigenvalues --    0.82642   0.83034   0.85099   0.85518   0.86588
 Alpha virt. eigenvalues --    0.87540   0.89503   0.89574   0.90373   0.91314
 Alpha virt. eigenvalues --    0.91541   0.93028   0.93665   0.95245   0.98296
 Alpha virt. eigenvalues --    0.99052   1.01036   1.03306   1.03603   1.05922
 Alpha virt. eigenvalues --    1.10801   1.13130   1.15928   1.16689   1.18420
 Alpha virt. eigenvalues --    1.21087   1.24993   1.26657   1.29212   1.30601
 Alpha virt. eigenvalues --    1.32217   1.33317   1.34154   1.34983   1.35730
 Alpha virt. eigenvalues --    1.36199   1.37101   1.37580   1.38808   1.39838
 Alpha virt. eigenvalues --    1.40287   1.41817   1.46465   1.50667   1.55911
 Alpha virt. eigenvalues --    1.58430   1.60085   1.61528   1.65087   1.68138
 Alpha virt. eigenvalues --    1.71123   1.75963   1.77222   1.78703   1.79102
 Alpha virt. eigenvalues --    1.80532   1.81342   1.81837   1.83127   1.84048
 Alpha virt. eigenvalues --    1.84428   1.85786   1.86070   1.86642   1.87339
 Alpha virt. eigenvalues --    1.88882   1.89964   1.90809   1.91297   1.91552
 Alpha virt. eigenvalues --    1.92326   1.93633   1.95695   1.96105   1.98649
 Alpha virt. eigenvalues --    2.00516   2.02197   2.04360   2.05466   2.05860
 Alpha virt. eigenvalues --    2.07646   2.09041   2.10088   2.11856   2.15503
 Alpha virt. eigenvalues --    2.15735   2.19110   2.20530   2.22682   2.24095
 Alpha virt. eigenvalues --    2.24772   2.26117   2.27878   2.28580   2.28829
 Alpha virt. eigenvalues --    2.33098   2.35645   2.36831   2.37676   2.38316
 Alpha virt. eigenvalues --    2.39229   2.39983   2.40755   2.42625   2.45114
 Alpha virt. eigenvalues --    2.45403   2.47072   2.50963   2.55065   2.56062
 Alpha virt. eigenvalues --    2.61213   2.65177   2.68884   2.70512   2.71198
 Alpha virt. eigenvalues --    2.72403   2.74143   2.74991   2.76369   2.78415
 Alpha virt. eigenvalues --    2.83990   2.84606   2.85409   2.88019   2.91733
 Alpha virt. eigenvalues --    2.93128   2.94686   2.97036   2.99921   3.00711
 Alpha virt. eigenvalues --    3.03431   3.06502   3.09449   3.11024   3.17609
 Alpha virt. eigenvalues --    3.23821   3.24289   3.28680   3.38482   3.45510
 Alpha virt. eigenvalues --    3.71805   3.79348
          Condensed to atoms (all electrons):
               1          2          3          4          5          6
     1  Cl  16.968725   0.235969  -0.061349   0.003771  -0.000022  -0.000022
     2  C    0.235969   5.251854   0.225993   0.153514   0.010694   0.000030
     3  C   -0.061349   0.225993   5.226888   0.238051  -0.088545   0.001935
     4  C    0.003771   0.153514   0.238051   5.096075   0.333116  -0.055614
     5  N   -0.000022   0.010694  -0.088545   0.333116   6.815843   0.336644
     6  C   -0.000022   0.000030   0.001935  -0.055614   0.336644   4.436112
     7  C    0.000001  -0.000119   0.006047  -0.047832   0.311171  -0.044764
     8  C    0.000000   0.000047   0.000570  -0.003891  -0.081656   0.004186
     9  C    0.000000   0.000006  -0.000098  -0.000307   0.009483  -0.000161
    10  C    0.000000  -0.000000   0.000002   0.000054  -0.000507  -0.000020
    11  C    0.000000  -0.000000  -0.000002  -0.000178   0.007343   0.000968
    12  C   -0.000000   0.000002  -0.000474   0.005938  -0.078032  -0.004219
    13  C    0.000405  -0.187312   0.079303   0.245043  -0.081729   0.005622
    14  C    0.004110   0.137611  -0.157895   0.139593   0.009527  -0.000219
    15  C   -0.055339   0.262860   0.099857  -0.173174  -0.000998   0.000084
    16  H    0.002795  -0.074390   0.447270  -0.060073  -0.015470   0.008371
    17  H   -0.000000   0.000108   0.002439  -0.004249  -0.040488   0.408105
    18  H   -0.000000  -0.000019   0.000586   0.005128  -0.022531   0.401737
    19  H   -0.000003   0.001636   0.003935  -0.009580  -0.016657   0.398640
    20  H   -0.000000   0.000078  -0.001102   0.006250  -0.015276  -0.000172
    21  H    0.000000  -0.000000   0.000001  -0.000024  -0.000126   0.000006
    22  H    0.000000   0.000000   0.000000   0.000001   0.000010  -0.000000
    23  H   -0.000000   0.000000  -0.000000   0.000007  -0.000118  -0.000011
    24  H    0.000000   0.000000   0.000001  -0.000180  -0.010891  -0.000498
    25  H    0.000008  -0.002404   0.016709  -0.066440  -0.012935  -0.000063
    26  H   -0.000122   0.015166  -0.002331   0.014907  -0.000122   0.000005
    27  H    0.000827  -0.071788   0.016146  -0.001876   0.000009   0.000001
               7          8          9         10         11         12
     1  Cl   0.000001   0.000000   0.000000   0.000000   0.000000  -0.000000
     2  C   -0.000119   0.000047   0.000006  -0.000000  -0.000000   0.000002
     3  C    0.006047   0.000570  -0.000098   0.000002  -0.000002  -0.000474
     4  C   -0.047832  -0.003891  -0.000307   0.000054  -0.000178   0.005938
     5  N    0.311171  -0.081656   0.009483  -0.000507   0.007343  -0.078032
     6  C   -0.044764   0.004186  -0.000161  -0.000020   0.000968  -0.004219
     7  C    5.092133   0.278622   0.118396  -0.164190   0.113034   0.269416
     8  C    0.278622   5.172042   0.270510   0.087509  -0.149541   0.063220
     9  C    0.118396   0.270510   5.059867   0.276573   0.098641  -0.149329
    10  C   -0.164190   0.087509   0.276573   5.103163   0.286316   0.083367
    11  C    0.113034  -0.149541   0.098641   0.286316   5.020851   0.299076
    12  C    0.269416   0.063220  -0.149329   0.083367   0.299076   5.163756
    13  C   -0.006747  -0.005421  -0.001000   0.000000   0.000028   0.000641
    14  C   -0.000115  -0.001407   0.000042  -0.000004   0.000004  -0.000048
    15  C    0.000068   0.000008  -0.000005   0.000000  -0.000000   0.000002
    16  H   -0.000188  -0.000025  -0.000001   0.000000  -0.000000   0.000002
    17  H    0.004053   0.001436  -0.000131  -0.000011  -0.000074   0.000365
    18  H   -0.014232  -0.000419   0.000085  -0.000053   0.000748   0.002655
    19  H    0.004992  -0.000308   0.000014   0.000002  -0.000024   0.000544
    20  H   -0.067210   0.459459  -0.070539   0.014752  -0.002423   0.015895
    21  H    0.015231  -0.067319   0.453533  -0.072081   0.014279  -0.002068
    22  H   -0.001547   0.014819  -0.069758   0.452866  -0.069727   0.014613
    23  H    0.015375  -0.002012   0.014122  -0.070683   0.451073  -0.066073
    24  H   -0.077194   0.016551  -0.002598   0.015497  -0.063750   0.455194
    25  H    0.005144   0.002792  -0.000612   0.000048  -0.000003  -0.000883
    26  H   -0.000015   0.000030   0.000002  -0.000000  -0.000000   0.000000
    27  H    0.000001  -0.000000  -0.000000  -0.000000   0.000000   0.000000
              13         14         15         16         17         18
     1  Cl   0.000405   0.004110  -0.055339   0.002795  -0.000000  -0.000000
     2  C   -0.187312   0.137611   0.262860  -0.074390   0.000108  -0.000019
     3  C    0.079303  -0.157895   0.099857   0.447270   0.002439   0.000586
     4  C    0.245043   0.139593  -0.173174  -0.060073  -0.004249   0.005128
     5  N   -0.081729   0.009527  -0.000998  -0.015470  -0.040488  -0.022531
     6  C    0.005622  -0.000219   0.000084   0.008371   0.408105   0.401737
     7  C   -0.006747  -0.000115   0.000068  -0.000188   0.004053  -0.014232
     8  C   -0.005421  -0.001407   0.000008  -0.000025   0.001436  -0.000419
     9  C   -0.001000   0.000042  -0.000005  -0.000001  -0.000131   0.000085
    10  C    0.000000  -0.000004   0.000000   0.000000  -0.000011  -0.000053
    11  C    0.000028   0.000004  -0.000000  -0.000000  -0.000074   0.000748
    12  C    0.000641  -0.000048   0.000002   0.000002   0.000365   0.002655
    13  C    5.227216   0.236352   0.112038   0.016674  -0.000750   0.000165
    14  C    0.236352   5.089021   0.233606  -0.002868   0.000045  -0.000010
    15  C    0.112038   0.233606   5.114429   0.016223  -0.000013   0.000003
    16  H    0.016674  -0.002868   0.016223   0.670483  -0.000310   0.000039
    17  H   -0.000750   0.000045  -0.000013  -0.000310   0.651769  -0.033110
    18  H    0.000165  -0.000010   0.000003   0.000039  -0.033110   0.624039
    19  H    0.000222  -0.000047  -0.000125  -0.001423  -0.030291  -0.012252
    20  H    0.002986  -0.000698  -0.000004  -0.000038   0.000109  -0.000041
    21  H    0.000046   0.000003  -0.000000   0.000000   0.000001  -0.000000
    22  H   -0.000000   0.000000  -0.000000   0.000000  -0.000000  -0.000000
    23  H   -0.000001  -0.000000   0.000000  -0.000000  -0.000005   0.000060
    24  H   -0.000039   0.000001   0.000000  -0.000002   0.000363  -0.001177
    25  H    0.459241  -0.070470   0.014910  -0.000170  -0.000001  -0.000012
    26  H   -0.068603   0.455591  -0.070385   0.000024  -0.000000  -0.000000
    27  H    0.014613  -0.062547   0.448453  -0.000293   0.000000   0.000000
              19         20         21         22         23         24
     1  Cl  -0.000003  -0.000000   0.000000   0.000000  -0.000000   0.000000
     2  C    0.001636   0.000078  -0.000000   0.000000   0.000000   0.000000
     3  C    0.003935  -0.001102   0.000001   0.000000  -0.000000   0.000001
     4  C   -0.009580   0.006250  -0.000024   0.000001   0.000007  -0.000180
     5  N   -0.016657  -0.015276  -0.000126   0.000010  -0.000118  -0.010891
     6  C    0.398640  -0.000172   0.000006  -0.000000  -0.000011  -0.000498
     7  C    0.004992  -0.067210   0.015231  -0.001547   0.015375  -0.077194
     8  C   -0.000308   0.459459  -0.067319   0.014819  -0.002012   0.016551
     9  C    0.000014  -0.070539   0.453533  -0.069758   0.014122  -0.002598
    10  C    0.000002   0.014752  -0.072081   0.452866  -0.070683   0.015497
    11  C   -0.000024  -0.002423   0.014279  -0.069727   0.451073  -0.063750
    12  C    0.000544   0.015895  -0.002068   0.014613  -0.066073   0.455194
    13  C    0.000222   0.002986   0.000046  -0.000000  -0.000001  -0.000039
    14  C   -0.000047  -0.000698   0.000003   0.000000  -0.000000   0.000001
    15  C   -0.000125  -0.000004  -0.000000  -0.000000   0.000000   0.000000
    16  H   -0.001423  -0.000038   0.000000   0.000000  -0.000000  -0.000002
    17  H   -0.030291   0.000109   0.000001  -0.000000  -0.000005   0.000363
    18  H   -0.012252  -0.000041  -0.000000  -0.000000   0.000060  -0.001177
    19  H    0.608636  -0.000015  -0.000000   0.000000  -0.000000  -0.000262
    20  H   -0.000015   0.655061  -0.012630  -0.000233   0.000019  -0.000173
    21  H   -0.000000  -0.012630   0.670862  -0.012319  -0.000266   0.000025
    22  H    0.000000  -0.000233  -0.012319   0.674785  -0.012280  -0.000250
    23  H   -0.000000   0.000019  -0.000266  -0.012280   0.673157  -0.013893
    24  H   -0.000262  -0.000173   0.000025  -0.000250  -0.013893   0.690581
    25  H   -0.000027  -0.002119   0.000017   0.000000  -0.000003   0.000001
    26  H    0.000001   0.000003  -0.000000   0.000000   0.000000  -0.000000
    27  H   -0.000001  -0.000000   0.000000  -0.000000   0.000000  -0.000000
              25         26         27
     1  Cl   0.000008  -0.000122   0.000827
     2  C   -0.002404   0.015166  -0.071788
     3  C    0.016709  -0.002331   0.016146
     4  C   -0.066440   0.014907  -0.001876
     5  N   -0.012935  -0.000122   0.000009
     6  C   -0.000063   0.000005   0.000001
     7  C    0.005144  -0.000015   0.000001
     8  C    0.002792   0.000030  -0.000000
     9  C   -0.000612   0.000002  -0.000000
    10  C    0.000048  -0.000000  -0.000000
    11  C   -0.000003  -0.000000   0.000000
    12  C   -0.000883   0.000000   0.000000
    13  C    0.459241  -0.068603   0.014613
    14  C   -0.070470   0.455591  -0.062547
    15  C    0.014910  -0.070385   0.448453
    16  H   -0.000170   0.000024  -0.000293
    17  H   -0.000001  -0.000000   0.000000
    18  H   -0.000012  -0.000000   0.000000
    19  H   -0.000027   0.000001  -0.000001
    20  H   -0.002119   0.000003  -0.000000
    21  H    0.000017  -0.000000   0.000000
    22  H    0.000000   0.000000  -0.000000
    23  H   -0.000003   0.000000   0.000000
    24  H    0.000001  -0.000000  -0.000000
    25  H    0.650437  -0.012248  -0.000204
    26  H   -0.012248   0.660594  -0.012440
    27  H   -0.000204  -0.012440   0.662283
 Mulliken charges:
               1
     1  Cl  -0.099752
     2  C    0.040462
     3  C   -0.053936
     4  C    0.181970
     5  N   -0.367736
     6  C    0.103319
     7  C    0.190468
     8  C   -0.059800
     9  C   -0.006735
    10  C   -0.012601
    11  C   -0.006637
    12  C   -0.073561
    13  C   -0.048991
    14  C   -0.009178
    15  C   -0.002495
    16  H   -0.006630
    17  H    0.040641
    18  H    0.048612
    19  H    0.052392
    20  H    0.018060
    21  H    0.012830
    22  H    0.009021
    23  H    0.011533
    24  H   -0.007305
    25  H    0.019287
    26  H    0.019945
    27  H    0.006818
 Sum of Mulliken charges =  -0.00000
 Mulliken charges with hydrogens summed into heavy atoms:
               1
     1  Cl  -0.099752
     2  C    0.040462
     3  C   -0.060567
     4  C    0.181970
     5  N   -0.367736
     6  C    0.244963
     7  C    0.190468
     8  C   -0.041740
     9  C    0.006095
    10  C   -0.003580
    11  C    0.004896
    12  C   -0.080866
    13  C   -0.029704
    14  C    0.010767
    15  C    0.004322
 Electronic spatial extent (au):  <R**2>=           4411.4875
 Charge=             -0.0000 electrons
 Dipole moment (field-independent basis, Debye):
    X=             -1.5727    Y=              0.3465    Z=             -0.6052  Tot=              1.7204
 Quadrupole moment (field-independent basis, Debye-Ang):
   XX=            -96.3148   YY=            -85.4008   ZZ=            -96.3946
   XY=             -2.3877   XZ=             -0.2406   YZ=             -1.1600
 Traceless Quadrupole moment (field-independent basis, Debye-Ang):
   XX=             -3.6114   YY=              7.3026   ZZ=             -3.6912
   XY=             -2.3877   XZ=             -0.2406   YZ=             -1.1600
 Octapole moment (field-independent basis, Debye-Ang**2):
  XXX=            -31.2123  YYY=              8.7382  ZZZ=              4.8537  XYY=              7.7798
  XXY=             -7.9307  XXZ=             -6.1535  XZZ=              6.8063  YZZ=             -0.3786
  YYZ=             -4.1915  XYZ=             15.0979
 Hexadecapole moment (field-independent basis, Debye-Ang**3):
 XXXX=          -4575.9627 YYYY=           -836.6969 ZZZZ=           -359.8369 XXXY=            -11.1163
 XXXZ=             24.1328 YYYX=             -7.3734 YYYZ=              1.1890 ZZZX=             28.1616
 ZZZY=             -2.5889 XXYY=           -892.8124 XXZZ=           -868.8414 YYZZ=           -188.1057
 XXYZ=            -30.7085 YYXZ=             -6.7817 ZZXY=              8.2049
 N-N= 9.982706369493D+02 E-N=-4.378891184043D+03  KE= 1.010066001055D+03
   1 Symmetry operations used in ECPInt.
 ECPInt:  NShTT=    8256 NPrTT=   30622 LenC2=    7772 LenP2D=   20999.
 LDataN:  DoStor=T MaxTD1= 5 Len=  102
 Calling FoFJK, ICntrl=      2127 FMM=F ISym2X=0 I1Cent= 0 IOpClX= 0 NMat=1 NMatS=1 NMatT=0.
 ***** Axes restored to original set *****
 -------------------------------------------------------------------
 Center     Atomic                   Forces (Hartrees/Bohr)
 Number     Number              X              Y              Z
 -------------------------------------------------------------------
      1       17          -0.004295690    0.001518236   -0.003554244
      2        6           0.001062229   -0.002470670    0.006846476
      3        6           0.004571102    0.003894167   -0.005023537
      4        6           0.024708291    0.003132463   -0.002992359
      5        7          -0.006685424   -0.002047031    0.007811411
      6        6          -0.001523460   -0.018762949    0.004788136
      7        6          -0.019784422    0.010814569   -0.001861903
      8        6          -0.004877497    0.003303868   -0.003298653
      9        6           0.000914795   -0.000682941    0.001529245
     10        6           0.006931101   -0.003668940    0.001244498
     11        6           0.002265553   -0.002711182   -0.000890492
     12        6          -0.009021300    0.005214097   -0.000518509
     13        6           0.004400616    0.002339849    0.001376606
     14        6           0.004538307    0.001828578   -0.003267937
     15        6          -0.012394341    0.000159800   -0.004509305
     16        1           0.001298536    0.006823061   -0.009633369
     17        1           0.001794821    0.003335230   -0.011332404
     18        1           0.005592659    0.003534484    0.002774400
     19        1          -0.004876727    0.002599910    0.002458076
     20        1          -0.009171365   -0.005496173   -0.003008113
     21        1          -0.001573016   -0.010127673   -0.001890693
     22        1           0.008435461   -0.006014294    0.001148365
     23        1           0.008718070    0.004912104    0.002709129
     24        1           0.002107762    0.011395828    0.001539417
     25        1           0.008003652   -0.003225744    0.007036162
     26        1          -0.001582771   -0.005754492    0.008087735
     27        1          -0.009556940   -0.003844155    0.002431863
 -------------------------------------------------------------------
 Cartesian Forces:  Max     0.024708291 RMS     0.006611353

 GradGradGradGradGradGradGradGradGradGradGradGradGradGradGradGradGradGrad
 Berny optimization.
 FormGI is forming the generalized inverse of G from B-inverse, IUseBI=4.
 Internal  Forces:  Max     0.021212016 RMS     0.005565757
 Search for a local minimum.
 Step number   1 out of a maximum of  145
 All quantities printed in internal units (Hartrees-Bohrs-Radians)
 Mixed Optimization -- RFO/linear search
 Second derivative matrix not updated -- first step.
 ITU=  0
     Eigenvalues ---    0.00857   0.01146   0.01292   0.01302   0.01893
     Eigenvalues ---    0.01899   0.02182   0.02183   0.02248   0.02264
     Eigenvalues ---    0.02266   0.02286   0.02296   0.02304   0.02325
     Eigenvalues ---    0.02336   0.02341   0.02342   0.02358   0.02365
     Eigenvalues ---    0.02369   0.02377   0.07348   0.07439   0.15993
     Eigenvalues ---    0.15993   0.15998   0.15998   0.16000   0.16000
     Eigenvalues ---    0.16000   0.16000   0.16000   0.16000   0.16000
     Eigenvalues ---    0.16000   0.22000   0.22000   0.22000   0.23464
     Eigenvalues ---    0.23466   0.23492   0.24800   0.24862   0.24998
     Eigenvalues ---    0.25000   0.25000   0.32565   0.35015   0.35018
     Eigenvalues ---    0.35193   0.36260   0.36267   0.36275   0.36287
     Eigenvalues ---    0.36403   0.36497   0.36502   0.36580   0.36610
     Eigenvalues ---    0.36692   0.40960   0.41067   0.43020   0.43062
     Eigenvalues ---    0.43736   0.43742   0.47018   0.47323   0.47773
     Eigenvalues ---    0.47966   0.48872   0.49134   0.49159   0.49728
 RFO step:  Lambda=-1.09293055D-02 EMin= 8.57254082D-03
 Linear search not attempted -- first point.
 Iteration  1 RMS(Cart)=  0.04647904 RMS(Int)=  0.00047408
 Iteration  2 RMS(Cart)=  0.00090679 RMS(Int)=  0.00009184
 Iteration  3 RMS(Cart)=  0.00000061 RMS(Int)=  0.00009184
 Variable       Old X    -DE/DX   Delta X   Delta X   Delta X     New X
                                 (Linear)    (Quad)   (Total)
    R1        3.26823   0.00578   0.00000   0.01716   0.01716   3.28539
    R2        2.60965   0.01286   0.00000   0.02573   0.02574   2.63539
    R3        2.61913   0.00675   0.00000   0.01402   0.01402   2.63315
    R4        2.63121   0.00933   0.00000   0.01915   0.01916   2.65037
    R5        2.03013   0.01187   0.00000   0.03142   0.03142   2.06154
    R6        2.70128  -0.02121   0.00000  -0.05031  -0.05031   2.65097
    R7        2.63936   0.00808   0.00000   0.01681   0.01680   2.65616
    R8        2.76483  -0.00771   0.00000  -0.02047  -0.02047   2.74437
    R9        2.70269  -0.01657   0.00000  -0.03940  -0.03940   2.66330
   R10        2.05645   0.01107   0.00000   0.03064   0.03064   2.08710
   R11        2.05363   0.00717   0.00000   0.01977   0.01977   2.07340
   R12        2.05650   0.00584   0.00000   0.01617   0.01617   2.07267
   R13        2.63616   0.01039   0.00000   0.02142   0.02141   2.65757
   R14        2.63643   0.00785   0.00000   0.01600   0.01599   2.65242
   R15        2.60069   0.01544   0.00000   0.03042   0.03041   2.63111
   R16        2.03311   0.01104   0.00000   0.02936   0.02936   2.06247
   R17        2.60913   0.01419   0.00000   0.02885   0.02886   2.63798
   R18        2.03666   0.01039   0.00000   0.02780   0.02780   2.06445
   R19        2.60966   0.01254   0.00000   0.02548   0.02549   2.63515
   R20        2.03654   0.01042   0.00000   0.02789   0.02789   2.06444
   R21        2.60219   0.01634   0.00000   0.03211   0.03211   2.63430
   R22        2.03677   0.01033   0.00000   0.02765   0.02765   2.06442
   R23        2.03139   0.01163   0.00000   0.03085   0.03085   2.06224
   R24        2.60563   0.01167   0.00000   0.02315   0.02314   2.62877
   R25        2.03304   0.01110   0.00000   0.02953   0.02953   2.06257
   R26        2.60671   0.01490   0.00000   0.02990   0.02989   2.63660
   R27        2.03635   0.01004   0.00000   0.02687   0.02687   2.06322
   R28        2.03456   0.01057   0.00000   0.02818   0.02818   2.06273
    A1        2.08960  -0.00278   0.00000  -0.01124  -0.01126   2.07834
    A2        2.09657  -0.00225   0.00000  -0.00921  -0.00924   2.08733
    A3        2.09701   0.00504   0.00000   0.02042   0.02043   2.11744
    A4        2.10721  -0.00293   0.00000  -0.01252  -0.01251   2.09470
    A5        2.07702   0.00109   0.00000   0.00424   0.00420   2.08122
    A6        2.09856   0.00184   0.00000   0.00861   0.00858   2.10713
    A7        2.11633  -0.00432   0.00000  -0.01631  -0.01643   2.09990
    A8        2.06415   0.00270   0.00000   0.00981   0.00969   2.07384
    A9        2.10270   0.00162   0.00000   0.00642   0.00628   2.10898
   A10        2.06834   0.00121   0.00000   0.00380   0.00371   2.07205
   A11        2.12202   0.00003   0.00000  -0.00077  -0.00086   2.12117
   A12        2.08477  -0.00130   0.00000  -0.00586  -0.00594   2.07883
   A13        1.91763   0.00744   0.00000   0.04853   0.04852   1.96615
   A14        1.94052  -0.00119   0.00000  -0.00938  -0.00961   1.93090
   A15        1.92576  -0.00315   0.00000  -0.02104  -0.02116   1.90460
   A16        1.89829  -0.00227   0.00000  -0.00835  -0.00847   1.88982
   A17        1.90164  -0.00121   0.00000  -0.00234  -0.00225   1.89939
   A18        1.87909   0.00020   0.00000  -0.00845  -0.00879   1.87031
   A19        2.09585   0.00327   0.00000   0.01330   0.01325   2.10910
   A20        2.12583  -0.00514   0.00000  -0.01893  -0.01897   2.10686
   A21        2.06145   0.00187   0.00000   0.00544   0.00535   2.06681
   A22        2.11163  -0.00130   0.00000  -0.00619  -0.00622   2.10541
   A23        2.07367   0.00193   0.00000   0.01063   0.01063   2.08431
   A24        2.09773  -0.00062   0.00000  -0.00431  -0.00431   2.09342
   A25        2.09554   0.00193   0.00000   0.00974   0.00971   2.10525
   A26        2.09385  -0.00180   0.00000  -0.00980  -0.00982   2.08403
   A27        2.09379  -0.00012   0.00000   0.00003   0.00001   2.09380
   A28        2.09140  -0.00367   0.00000  -0.01380  -0.01380   2.07760
   A29        2.09580   0.00196   0.00000   0.00761   0.00760   2.10340
   A30        2.09599   0.00172   0.00000   0.00619   0.00618   2.10217
   A31        2.09873   0.00168   0.00000   0.00808   0.00808   2.10681
   A32        2.09168   0.00006   0.00000   0.00119   0.00119   2.09287
   A33        2.09277  -0.00173   0.00000  -0.00929  -0.00929   2.08347
   A34        2.10761  -0.00050   0.00000  -0.00328  -0.00330   2.10430
   A35        2.08664   0.00132   0.00000   0.00799   0.00799   2.09463
   A36        2.08856  -0.00081   0.00000  -0.00446  -0.00447   2.08408
   A37        2.11080  -0.00268   0.00000  -0.01158  -0.01158   2.09922
   A38        2.07257   0.00221   0.00000   0.01087   0.01088   2.08344
   A39        2.09973   0.00048   0.00000   0.00074   0.00074   2.10047
   A40        2.09609   0.00379   0.00000   0.01765   0.01760   2.11369
   A41        2.09405  -0.00191   0.00000  -0.00890  -0.00893   2.08512
   A42        2.09304  -0.00189   0.00000  -0.00878  -0.00881   2.08423
   A43        2.09110  -0.00592   0.00000  -0.02377  -0.02377   2.06734
   A44        2.07920   0.00359   0.00000   0.01561   0.01560   2.09480
   A45        2.11288   0.00232   0.00000   0.00816   0.00815   2.12103
    D1       -3.13537  -0.00020   0.00000  -0.00550  -0.00547  -3.14084
    D2       -0.02405   0.00024   0.00000   0.00714   0.00706  -0.01699
    D3        0.00307  -0.00054   0.00000  -0.01525  -0.01532  -0.01225
    D4        3.11439  -0.00010   0.00000  -0.00261  -0.00279   3.11160
    D5        3.13728   0.00001   0.00000   0.00095   0.00092   3.13820
    D6       -0.00423  -0.00016   0.00000  -0.00455  -0.00457  -0.00880
    D7       -0.00115   0.00035   0.00000   0.01074   0.01083   0.00967
    D8        3.14052   0.00018   0.00000   0.00525   0.00534  -3.13732
    D9        3.14130   0.00107   0.00000   0.03370   0.03343  -3.10846
   D10       -0.00350   0.00019   0.00000   0.00427   0.00411   0.00061
   D11        0.03035   0.00064   0.00000   0.02098   0.02080   0.05115
   D12       -3.11445  -0.00024   0.00000  -0.00844  -0.00852  -3.12297
   D13        0.53481  -0.00025   0.00000  -0.00579  -0.00575   0.52906
   D14       -2.46997   0.00038   0.00000   0.01861   0.01872  -2.45125
   D15       -2.60351   0.00064   0.00000   0.02427   0.02416  -2.57935
   D16        0.67490   0.00128   0.00000   0.04867   0.04863   0.72353
   D17        0.00210   0.00034   0.00000   0.01128   0.01122   0.01331
   D18       -3.12503   0.00025   0.00000   0.00818   0.00822  -3.11681
   D19        3.14051  -0.00054   0.00000  -0.01795  -0.01830   3.12221
   D20        0.01338  -0.00063   0.00000  -0.02105  -0.02130  -0.00791
   D21       -1.68386   0.00045   0.00000   0.02109   0.02117  -1.66269
   D22        2.49695  -0.00086   0.00000   0.00549   0.00558   2.50253
   D23        0.41325   0.00171   0.00000   0.03586   0.03568   0.44893
   D24        1.32391  -0.00007   0.00000  -0.00239  -0.00231   1.32160
   D25       -0.77847  -0.00138   0.00000  -0.01799  -0.01790  -0.79637
   D26       -2.86217   0.00119   0.00000   0.01237   0.01220  -2.84997
   D27        0.52393   0.00096   0.00000   0.03553   0.03554   0.55946
   D28       -2.62852   0.00035   0.00000   0.01479   0.01485  -2.61367
   D29       -2.47959   0.00142   0.00000   0.05941   0.05936  -2.42024
   D30        0.65115   0.00081   0.00000   0.03868   0.03867   0.68982
   D31        3.13241  -0.00000   0.00000  -0.00065  -0.00090   3.13151
   D32        0.00919  -0.00026   0.00000  -0.00878  -0.00899   0.00020
   D33        0.00127   0.00063   0.00000   0.01949   0.01948   0.02075
   D34       -3.12195   0.00037   0.00000   0.01136   0.01138  -3.11057
   D35       -3.13305   0.00037   0.00000   0.01242   0.01221  -3.12084
   D36        0.03813   0.00004   0.00000   0.00248   0.00228   0.04040
   D37       -0.00211  -0.00022   0.00000  -0.00787  -0.00793  -0.01004
   D38       -3.11411  -0.00055   0.00000  -0.01781  -0.01786  -3.13198
   D39       -0.00018  -0.00056   0.00000  -0.01663  -0.01662  -0.01681
   D40       -3.13893  -0.00013   0.00000  -0.00404  -0.00403   3.14022
   D41        3.12278  -0.00027   0.00000  -0.00823  -0.00833   3.11445
   D42       -0.01596   0.00016   0.00000   0.00435   0.00426  -0.01170
   D43       -0.00011   0.00007   0.00000   0.00176   0.00181   0.00170
   D44        3.14125   0.00027   0.00000   0.00787   0.00790  -3.13404
   D45        3.13864  -0.00036   0.00000  -0.01084  -0.01087   3.12777
   D46       -0.00319  -0.00016   0.00000  -0.00473  -0.00477  -0.00797
   D47       -0.00072   0.00033   0.00000   0.00976   0.00977   0.00905
   D48        3.13747   0.00012   0.00000   0.00391   0.00384   3.14131
   D49        3.14111   0.00013   0.00000   0.00365   0.00368  -3.13840
   D50       -0.00389  -0.00008   0.00000  -0.00220  -0.00225  -0.00614
   D51        0.00186  -0.00025   0.00000  -0.00657  -0.00664  -0.00478
   D52        3.11383   0.00012   0.00000   0.00359   0.00344   3.11727
   D53       -3.13633  -0.00004   0.00000  -0.00074  -0.00076  -3.13708
   D54       -0.02435   0.00032   0.00000   0.00943   0.00932  -0.01503
   D55       -0.00025  -0.00052   0.00000  -0.01580  -0.01583  -0.01608
   D56       -3.13951   0.00001   0.00000   0.00002   0.00008  -3.13943
   D57        3.12665  -0.00041   0.00000  -0.01257  -0.01272   3.11393
   D58       -0.01261   0.00012   0.00000   0.00324   0.00319  -0.00942
   D59       -0.00025   0.00017   0.00000   0.00466   0.00477   0.00452
   D60        3.14126   0.00035   0.00000   0.01026   0.01034  -3.13158
   D61        3.13901  -0.00036   0.00000  -0.01115  -0.01113   3.12788
   D62       -0.00267  -0.00019   0.00000  -0.00555  -0.00556  -0.00822
         Item               Value     Threshold  Converged?
 Maximum Force            0.021212     0.000450     NO 
 RMS     Force            0.005566     0.000300     NO 
 Maximum Displacement     0.155459     0.001800     NO 
 RMS     Displacement     0.046929     0.001200     NO 
 Predicted change in Energy=-5.716219D-03
 GradGradGradGradGradGradGradGradGradGradGradGradGradGradGradGradGradGrad

                          Input orientation:                          
 ---------------------------------------------------------------------
 Center     Atomic      Atomic             Coordinates (Angstroms)
 Number     Number       Type             X           Y           Z
 ---------------------------------------------------------------------
      1         17           0       -4.066659    0.707851   -1.391201
      2          6           0       -2.759239    0.257035   -0.337644
      3          6           0       -1.472126    0.712785   -0.621372
      4          6           0       -0.402771    0.360293    0.214854
      5          7           0        0.887396    0.847574   -0.041984
      6          6           0        1.029406    2.145650   -0.677501
      7          6           0        2.028015    0.036250    0.122407
      8          6           0        1.966730   -1.349409   -0.109850
      9          6           0        3.099191   -2.144986    0.042312
     10          6           0        4.321599   -1.579261    0.408895
     11          6           0        4.393439   -0.203258    0.623309
     12          6           0        3.261612    0.598783    0.485581
     13          6           0       -0.656124   -0.454222    1.332010
     14          6           0       -1.944421   -0.912108    1.588416
     15          6           0       -3.011902   -0.561768    0.761126
     16          1           0       -1.307994    1.329140   -1.506401
     17          1           0        1.150599    2.072027   -1.772804
     18          1           0        1.895500    2.682574   -0.270768
     19          1           0        0.141484    2.751531   -0.459563
     20          1           0        1.022570   -1.799557   -0.421473
     21          1           0        3.028610   -3.219461   -0.142065
     22          1           0        5.210665   -2.204130    0.520940
     23          1           0        5.342767    0.254446    0.910917
     24          1           0        3.336842    1.669844    0.680721
     25          1           0        0.165275   -0.714819    2.001849
     26          1           0       -2.126680   -1.542397    2.461089
     27          1           0       -4.027045   -0.909577    0.961119
 ---------------------------------------------------------------------
                    Distance matrix (angstroms):
                    1          2          3          4          5
     1  Cl   0.000000
     2  C    1.738553   0.000000
     3  C    2.706338   1.394586   0.000000
     4  C    4.015506   2.422573   1.402513   0.000000
     5  N    5.136397   3.705955   2.433352   1.402832   0.000000
     6  C    5.342894   4.246905   2.883386   2.456609   1.452257
     7  C    6.315625   4.814374   3.641688   2.454031   1.409355
     8  C    6.501997   4.996732   4.042280   2.939906   2.448734
     9  C    7.844938   6.343128   5.431783   4.309284   3.722171
    10  C    8.878857   7.353065   6.315233   5.110693   4.229251
    11  C    8.744234   7.231604   6.065740   4.846447   3.720107
    12  C    7.565564   6.086471   4.862778   3.682101   2.444815
    13  C    4.516419   2.777899   2.417325   1.405581   2.442331
    14  C    4.000785   2.395940   2.783254   2.425358   3.711317
    15  C    2.712371   1.393403   2.430369   2.820669   4.223240
    16  H    2.830107   2.149771   1.090921   2.172743   2.682567
    17  H    5.406143   4.543205   3.170492   3.048569   2.136422
    18  H    6.379830   5.249219   3.917128   3.303160   2.106143
    19  H    4.770015   3.827737   2.605072   2.543436   2.087057
    20  H    5.755668   4.305656   3.546171   2.664856   2.677608
    21  H    8.205301   6.754514   5.995741   4.971559   4.597345
    22  H    9.909827   8.385336   7.380580   6.179046   5.321695
    23  H    9.697557   8.197646   7.000053   5.788515   4.594578
    24  H    7.747911   6.339976   5.073222   3.989569   2.682949
    25  H    5.607677   3.869174   3.405939   2.161457   2.672037
    26  H    4.864903   3.386886   3.875030   3.411403   4.589335
    27  H    2.855005   2.157568   3.415252   3.912141   5.314652
                    6          7          8          9         10
     6  C    0.000000
     7  C    2.467112   0.000000
     8  C    3.662818   1.406324   0.000000
     9  C    4.817852   2.431383   1.392323   0.000000
    10  C    5.088590   2.820014   2.422258   1.395961   0.000000
    11  C    4.304206   2.429711   2.782103   2.404775   1.394460
    12  C    2.954369   1.403602   2.413857   2.784086   2.423496
    13  C    3.693031   2.984678   3.124049   4.315599   5.186094
    14  C    4.829898   4.339218   4.286309   5.417421   6.410879
    15  C    5.072665   5.115305   5.115247   6.353639   7.412125
    16  H    2.610978   3.931099   4.455199   5.821627   6.619628
    17  H    1.104444   2.916517   3.890721   4.987470   5.305371
    18  H    1.097195   2.678653   4.035821   4.985201   4.950873
    19  H    1.096811   3.357147   4.502391   5.742454   6.081393
    20  H    3.953511   2.162617   1.091413   2.155638   3.409052
    21  H    5.750471   3.416253   2.150749   1.092462   2.160007
    22  H    6.151404   3.912466   3.413438   2.165850   1.092453
    23  H    4.970393   3.414225   3.874524   3.397849   2.158076
    24  H    2.719452   2.166420   3.408533   3.875174   3.405925
    25  H    4.013468   2.750674   2.847318   3.806971   4.534291
    26  H    5.780426   5.022256   4.837662   5.789933   6.767064
    27  H    6.130839   6.185611   6.104569   7.290657   8.393645
                   11         12         13         14         15
    11  C    0.000000
    12  C    1.394012   0.000000
    13  C    5.105225   4.144142   0.000000
    14  C    6.449989   5.531890   1.391084   0.000000
    15  C    7.415294   6.385904   2.426348   1.395229   0.000000
    16  H    6.276164   5.038125   3.414951   3.873774   3.408887
    17  H    4.629718   3.424489   4.391588   5.457290   5.539322
    18  H    3.920089   2.603941   4.349617   5.578825   5.972700
    19  H    5.289849   3.906765   3.758026   4.686946   4.734118
    20  H    3.873305   3.404128   2.775363   3.691917   4.382650
    21  H    3.397945   3.876495   4.837014   5.748868   6.660846
    22  H    2.163753   3.414144   6.175696   7.348747   8.388424
    23  H    1.092445   2.151903   6.055263   7.411002   8.395780
    24  H    2.151326   1.091289   4.569421   5.948288   6.730016
    25  H    4.476543   3.689434   1.091463   2.158858   3.414275
    26  H    6.905264   6.125436   2.149763   1.091807   2.152935
    27  H    8.456805   7.458271   3.421698   2.175047   1.091551
                   16         17         18         19         20
    16  H    0.000000
    17  H    2.582156   0.000000
    18  H    3.690656   1.784308   0.000000
    19  H    2.284744   1.790151   1.765494   0.000000
    20  H    4.049363   4.102639   4.568830   4.635748   0.000000
    21  H    6.430965   5.846886   6.011199   6.639957   2.473538
    22  H    7.686809   6.326999   5.957936   7.156574   4.311840
    23  H    7.157584   5.299078   4.379022   5.930176   4.965711
    24  H    5.145298   3.310770   2.002104   3.560984   4.313633
    25  H    4.319272   4.794307   4.438552   4.251434   2.790000
    26  H    4.965577   6.459913   6.441378   5.666797   4.277040
    27  H    4.300436   6.570563   7.035455   5.727013   5.310577
                   21         22         23         24         25
    21  H    0.000000
    22  H    2.496365   0.000000
    23  H    4.304895   2.492815   0.000000
    24  H    4.967624   4.306323   2.465781   0.000000
    25  H    4.366725   5.465080   5.379222   4.182205   0.000000
    26  H    6.013815   7.618313   7.837366   6.583182   2.479686
    27  H    7.505654   9.338357   9.441972   7.807616   4.323956
                   26         27
    26  H    0.000000
    27  H    2.502351   0.000000
 Stoichiometry    C13H12ClN
 Framework group  C1[X(C13H12ClN)]
 Deg. of freedom    75
 Full point group                 C1      NOp   1
 Largest Abelian subgroup         C1      NOp   1
 Largest concise Abelian subgroup C1      NOp   1
                         Standard orientation:                         
 ---------------------------------------------------------------------
 Center     Atomic      Atomic             Coordinates (Angstroms)
 Number     Number       Type             X           Y           Z
 ---------------------------------------------------------------------
      1         17           0        4.356261    0.481935    0.735338
      2          6           0        2.876459   -0.144634    0.071890
      3          6           0        1.714751    0.621490    0.163311
      4          6           0        0.509934    0.134721   -0.364437
      5          7           0       -0.653522    0.916701   -0.311384
      6          6           0       -0.524956    2.362676   -0.352343
      7          6           0       -1.911594    0.348008   -0.028318
      8          6           0       -2.024307   -0.765726    0.822940
      9          6           0       -3.270559   -1.316672    1.109080
     10          6           0       -4.433561   -0.761673    0.572322
     11          6           0       -4.330397    0.353709   -0.258220
     12          6           0       -3.085619    0.903862   -0.560100
     13          6           0        0.501198   -1.129014   -0.979705
     14          6           0        1.667152   -1.884832   -1.046064
     15          6           0        2.868706   -1.403641   -0.525115
     16          1           0        1.753365    1.590612    0.662731
     17          1           0       -0.518515    2.817811    0.653941
     18          1           0       -1.347414    2.807853   -0.926117
     19          1           0        0.407671    2.626125   -0.865953
     20          1           0       -1.124411   -1.192979    1.268837
     21          1           0       -3.334794   -2.182654    1.771969
     22          1           0       -5.411083   -1.191090    0.803638
     23          1           0       -5.231280    0.799401   -0.686243
     24          1           0       -3.027782    1.762856   -1.230693
     25          1           0       -0.426192   -1.506535   -1.414123
     26          1           0        1.645837   -2.863879   -1.528820
     27          1           0        3.789592   -1.986952   -0.581680
 ---------------------------------------------------------------------
 Rotational constants (GHZ):           1.3654932           0.2604831           0.2389337
 Standard basis: def2SVP (5D, 7F)
 There are   289 symmetry adapted cartesian basis functions of A   symmetry.
 There are   274 symmetry adapted basis functions of A   symmetry.
   274 basis functions,   471 primitive gaussians,   289 cartesian basis functions
    57 alpha electrons       57 beta electrons
       nuclear repulsion energy       995.4474196593 Hartrees.
 NAtoms=   27 NActive=   27 NUniq=   27 SFac= 1.00D+00 NAtFMM=   60 NAOKFM=F Big=F
 Integral buffers will be    131072 words long.
 Raffenetti 2 integral format.
 Two-electron integral symmetry is turned on.
 Nuclear repulsion after empirical dispersion term =      995.4295640384 Hartrees.
 One-electron integrals computed using PRISM.
   1 Symmetry operations used in ECPInt.
 ECPInt:  NShTT=    8256 NPrTT=   30622 LenC2=    7773 LenP2D=   20963.
 LDataN:  DoStor=T MaxTD1= 4 Len=   56
 NBasis=   274 RedAO= T EigKep=  2.55D-04  NBF=   274
 NBsUse=   274 1.00D-06 EigRej= -1.00D+00 NBFU=   274
 Initial guess from the checkpoint file:  "prod_5f_7.chk"
 B after Tr=     0.000000   -0.000000    0.000000
         Rot=    0.999969    0.007776    0.001116    0.000111 Ang=   0.90 deg.
 ExpMin= 1.22D-01 ExpMax= 1.04D+04 ExpMxC= 1.57D+03 IAcc=3 IRadAn=         5 AccDes= 0.00D+00
 Harris functional with IExCor= 4639 and IRadAn=       5 diagonalized for initial guess.
 HarFok:  IExCor= 4639 AccDes= 0.00D+00 IRadAn=         5 IDoV= 1 UseB2=F ITyADJ=14
 ICtDFT=  3500011 ScaDFX=  1.000000  1.000000  1.000000  1.000000
 FoFCou: FMM=F IPFlag=           0 FMFlag=      100000 FMFlg1=           0
         NFxFlg=           0 DoJE=T BraDBF=F KetDBF=T FulRan=T
         wScrn=  0.000000 ICntrl=       500 IOpCl=  0 I1Cent=   200000004 NGrid=           0
         NMat0=    1 NMatS0=      1 NMatT0=    0 NMatD0=    1 NMtDS0=    0 NMtDT0=    0
 Petite list used in FoFCou.
 Requested convergence on RMS density matrix=1.00D-08 within 128 cycles.
 Requested convergence on MAX density matrix=1.00D-06.
 Requested convergence on             energy=1.00D-06.
 No special actions if energy rises.
 Integral accuracy reduced to 1.0D-05 until final iterations.
 Initial convergence to 1.0D-05 achieved.  Increase integral accuracy.
 SCF Done:  E(RwB97XD) =  -1016.82790963     A.U. after   14 cycles
            NFock= 14  Conv=0.48D-08     -V/T= 2.0072
   1 Symmetry operations used in ECPInt.
 ECPInt:  NShTT=    8256 NPrTT=   30622 LenC2=    7773 LenP2D=   20963.
 LDataN:  DoStor=T MaxTD1= 5 Len=  102
 Calling FoFJK, ICntrl=      2127 FMM=F ISym2X=0 I1Cent= 0 IOpClX= 0 NMat=1 NMatS=1 NMatT=0.
 ***** Axes restored to original set *****
 -------------------------------------------------------------------
 Center     Atomic                   Forces (Hartrees/Bohr)
 Number     Number              X              Y              Z
 -------------------------------------------------------------------
      1       17          -0.001559906    0.000730865   -0.001449111
      2        6           0.003765043   -0.001753821    0.003932178
      3        6          -0.002035161    0.000043936   -0.001155585
      4        6           0.002632546    0.000414281   -0.001419208
      5        7          -0.001229970    0.002563866    0.001350106
      6        6          -0.000512668   -0.002754788    0.001281080
      7        6          -0.000451334    0.000076428   -0.000609285
      8        6           0.001140412    0.000261977   -0.000209045
      9        6           0.000207666    0.001542647    0.000626281
     10        6          -0.000326787    0.000371780   -0.000148839
     11        6          -0.000834930   -0.000780289   -0.000433515
     12        6           0.000828768   -0.001600657    0.000896152
     13        6          -0.001725440   -0.001152478    0.000840542
     14        6           0.002316966    0.001131252   -0.001352900
     15        6          -0.002221247    0.000538638   -0.001379835
     16        1          -0.000550189   -0.000811780    0.000458247
     17        1           0.000084643    0.000200358   -0.000451594
     18        1          -0.000200065    0.000554176   -0.000973949
     19        1           0.000211644    0.000926180   -0.000141359
     20        1           0.000075454   -0.000125532    0.000351952
     21        1          -0.000292993    0.000101046   -0.000139132
     22        1          -0.000529282    0.000307841   -0.000038092
     23        1          -0.000188403    0.000267181    0.000054056
     24        1           0.000784507   -0.000887105    0.000145801
     25        1          -0.000324510   -0.000300209   -0.000349310
     26        1           0.000002090   -0.000019542    0.000192103
     27        1           0.000933143    0.000153748    0.000122262
 -------------------------------------------------------------------
 Cartesian Forces:  Max     0.003932178 RMS     0.001165841

 GradGradGradGradGradGradGradGradGradGradGradGradGradGradGradGradGradGrad
 Berny optimization.
 Using GEDIIS/GDIIS optimizer.
 FormGI is forming the generalized inverse of G from B-inverse, IUseBI=4.
 Internal  Forces:  Max     0.003666390 RMS     0.000844497
 Search for a local minimum.
 Step number   2 out of a maximum of  145
 All quantities printed in internal units (Hartrees-Bohrs-Radians)
 Mixed Optimization -- En-DIIS/RFO-DIIS
 Update second derivatives using D2CorX and points    1    2
 DE= -5.30D-03 DEPred=-5.72D-03 R= 9.27D-01
 TightC=F SS=  1.41D+00  RLast= 2.15D-01 DXNew= 5.0454D-01 6.4538D-01
 Trust test= 9.27D-01 RLast= 2.15D-01 DXMaxT set to 5.05D-01
 ITU=  1  0
 Use linear search instead of GDIIS.
[...]
 Alpha virt. eigenvalues --   22.90389  22.95610  23.27740  23.33441  25.98641
 Alpha virt. eigenvalues --   33.15090
          Condensed to atoms (all electrons):
               1          2          3          4          5          6
     1  Cl  16.878559   0.281581  -0.048514   0.009317  -0.000308  -0.000302
     2  C    0.281581   4.909772   0.315314   0.064009  -0.000485  -0.001631
     3  C   -0.048514   0.315314   5.433495   0.309768  -0.091863  -0.003750
     4  C    0.009317   0.064009   0.309768   4.956850   0.437845  -0.082849
     5  N   -0.000308  -0.000485  -0.091863   0.437845   6.425425   0.310157
     6  C   -0.000302  -0.001631  -0.003750  -0.082849   0.310157   4.935679
     7  C   -0.000001  -0.000432   0.006572  -0.142690   0.243774  -0.073456
     8  C   -0.000002   0.000121   0.001012   0.024374  -0.050945  -0.003426
     9  C   -0.000000   0.000065  -0.000989  -0.003286   0.008835   0.000572
    10  C    0.000000  -0.000001   0.000076   0.001008   0.000934  -0.000156
    11  C    0.000000  -0.000011   0.000087  -0.000171   0.005780   0.000568
    12  C    0.000001   0.000021   0.000689  -0.009302  -0.039153  -0.008104
    13  C   -0.000096  -0.100131   0.055597   0.362049  -0.068241   0.013180
    14  C    0.013759   0.063160  -0.125946   0.016613   0.002034  -0.001194
    15  C   -0.038920   0.374397   0.072693  -0.109926   0.001527   0.000907
    16  H    0.006460  -0.037527   0.424082  -0.049798  -0.005156   0.005870
    17  H    0.000031  -0.000846   0.008585  -0.006569  -0.049928   0.407686
    18  H   -0.000003   0.000136   0.000348   0.007533  -0.026695   0.406520
    19  H    0.000036   0.001672  -0.003394  -0.006363  -0.045409   0.414134
    20  H   -0.000001  -0.000035   0.000735   0.001269  -0.003136   0.000153
    21  H   -0.000000   0.000000   0.000005   0.000048  -0.000224   0.000004
    22  H    0.000000  -0.000000   0.000000   0.000005   0.000012  -0.000002
    23  H   -0.000000   0.000000  -0.000003  -0.000025  -0.000256   0.000027
    24  H   -0.000000  -0.000002   0.000023   0.000778   0.005932  -0.001954
    25  H    0.000019  -0.001780   0.007945  -0.045063  -0.004560  -0.000276
    26  H   -0.000286   0.010450  -0.002327   0.012014  -0.000154   0.000013
    27  H    0.000948  -0.067050   0.019501  -0.004407   0.000040   0.000009
               7          8          9         10         11         12
     1  Cl  -0.000001  -0.000002  -0.000000   0.000000   0.000000   0.000001
     2  C   -0.000432   0.000121   0.000065  -0.000001  -0.000011   0.000021
     3  C    0.006572   0.001012  -0.000989   0.000076   0.000087   0.000689
     4  C   -0.142690   0.024374  -0.003286   0.001008  -0.000171  -0.009302
     5  N    0.243774  -0.050945   0.008835   0.000934   0.005780  -0.039153
     6  C   -0.073456  -0.003426   0.000572  -0.000156   0.000568  -0.008104
     7  C    5.078926   0.420275  -0.013840  -0.084392  -0.031131   0.468706
     8  C    0.420275   5.098183   0.406459   0.033546  -0.059305   0.023997
     9  C   -0.013840   0.406459   4.936975   0.431905  -0.001082  -0.056222
    10  C   -0.084392   0.033546   0.431905   4.948221   0.451262   0.012420
    11  C   -0.031131  -0.059305  -0.001082   0.451262   4.881327   0.456292
    12  C    0.468706   0.023997  -0.056222   0.012420   0.456292   5.027845
    13  C    0.005886  -0.002295  -0.002261   0.000387  -0.000123   0.004031
    14  C   -0.002709   0.002660   0.000097   0.000015  -0.000063   0.000099
    15  C    0.000291   0.000086  -0.000017   0.000001   0.000003   0.000049
    16  H   -0.000680   0.000128  -0.000008  -0.000001   0.000010  -0.000049
    17  H   -0.006081   0.002709  -0.000858   0.000052   0.000242   0.003296
    18  H   -0.006635   0.000219   0.000477  -0.000136  -0.000334  -0.005083
    19  H    0.013643  -0.001031   0.000162  -0.000027  -0.000310  -0.000753
    20  H   -0.042017   0.431599  -0.041232   0.007959  -0.002137   0.008547
    21  H    0.012872  -0.053972   0.441001  -0.056214   0.010400  -0.003339
    22  H   -0.003492   0.011367  -0.055032   0.442747  -0.054627   0.010724
    23  H    0.014599  -0.004377   0.011399  -0.057327   0.441835  -0.055056
    24  H   -0.052645   0.009217  -0.002921   0.008548  -0.035863   0.428631
    25  H    0.002704  -0.003681  -0.000444   0.000156   0.000235   0.000064
    26  H    0.000091  -0.000046   0.000012  -0.000004   0.000004  -0.000017
    27  H   -0.000000   0.000003  -0.000000   0.000000  -0.000000  -0.000000
              13         14         15         16         17         18
     1  Cl  -0.000096   0.013759  -0.038920   0.006460   0.000031  -0.000003
     2  C   -0.100131   0.063160   0.374397  -0.037527  -0.000846   0.000136
     3  C    0.055597  -0.125946   0.072693   0.424082   0.008585   0.000348
     4  C    0.362049   0.016613  -0.109926  -0.049798  -0.006569   0.007533
     5  N   -0.068241   0.002034   0.001527  -0.005156  -0.049928  -0.026695
     6  C    0.013180  -0.001194   0.000907   0.005870   0.407686   0.406520
     7  C    0.005886  -0.002709   0.000291  -0.000680  -0.006081  -0.006635
     8  C   -0.002295   0.002660   0.000086   0.000128   0.002709   0.000219
     9  C   -0.002261   0.000097  -0.000017  -0.000008  -0.000858   0.000477
    10  C    0.000387   0.000015   0.000001  -0.000001   0.000052  -0.000136
    11  C   -0.000123  -0.000063   0.000003   0.000010   0.000242  -0.000334
    12  C    0.004031   0.000099   0.000049  -0.000049   0.003296  -0.005083
    13  C    5.128970   0.436372   0.039034   0.006768  -0.000327  -0.000489
    14  C    0.436372   4.953522   0.382650  -0.003243  -0.000094   0.000057
    15  C    0.039034   0.382650   5.116208   0.012458   0.000070  -0.000015
    16  H    0.006768  -0.003243   0.012458   0.503171   0.002253   0.000396
    17  H   -0.000327  -0.000094   0.000070   0.002253   0.578441  -0.023770
    18  H   -0.000489   0.000057  -0.000015   0.000396  -0.023770   0.511557
    19  H    0.000798   0.000011  -0.000280  -0.006753  -0.046951  -0.013351
    20  H   -0.000320   0.000154  -0.000006  -0.000007   0.000376  -0.000162
    21  H   -0.000089  -0.000012  -0.000001   0.000000   0.000003   0.000002
    22  H    0.000000  -0.000000   0.000000   0.000000  -0.000000  -0.000001
    23  H    0.000009   0.000000  -0.000000  -0.000000  -0.000008   0.000032
    24  H   -0.000157   0.000005   0.000002   0.000003   0.000519  -0.002522
    25  H    0.430547  -0.038639   0.007207  -0.000113   0.000019  -0.000020
    26  H   -0.054250   0.438176  -0.055702   0.000042  -0.000000  -0.000000
    27  H    0.012385  -0.059494   0.445840  -0.000024   0.000000   0.000000
              19         20         21         22         23         24
     1  Cl   0.000036  -0.000001  -0.000000   0.000000  -0.000000  -0.000000
     2  C    0.001672  -0.000035   0.000000  -0.000000   0.000000  -0.000002
     3  C   -0.003394   0.000735   0.000005   0.000000  -0.000003   0.000023
     4  C   -0.006363   0.001269   0.000048   0.000005  -0.000025   0.000778
     5  N   -0.045409  -0.003136  -0.000224   0.000012  -0.000256   0.005932
     6  C    0.414134   0.000153   0.000004  -0.000002   0.000027  -0.001954
     7  C    0.013643  -0.042017   0.012872  -0.003492   0.014599  -0.052645
     8  C   -0.001031   0.431599  -0.053972   0.011367  -0.004377   0.009217
     9  C    0.000162  -0.041232   0.441001  -0.055032   0.011399  -0.002921
    10  C   -0.000027   0.007959  -0.056214   0.442747  -0.057327   0.008548
    11  C   -0.000310  -0.002137   0.010400  -0.054627   0.441835  -0.035863
    12  C   -0.000753   0.008547  -0.003339   0.010724  -0.055056   0.428631
    13  C    0.000798  -0.000320  -0.000089   0.000000   0.000009  -0.000157
    14  C    0.000011   0.000154  -0.000012  -0.000000   0.000000   0.000005
    15  C   -0.000280  -0.000006  -0.000001   0.000000  -0.000000   0.000002
    16  H   -0.006753  -0.000007   0.000000   0.000000  -0.000000   0.000003
    17  H   -0.046951   0.000376   0.000003  -0.000000  -0.000008   0.000519
    18  H   -0.013351  -0.000162   0.000002  -0.000001   0.000032  -0.002522
    19  H    0.552645  -0.000018  -0.000001   0.000000   0.000007  -0.000709
    20  H   -0.000018   0.498905  -0.006395  -0.000078   0.000017  -0.000143
    21  H   -0.000001  -0.006395   0.537458  -0.006693  -0.000133   0.000031
    22  H    0.000000  -0.000078  -0.006693   0.538117  -0.006755  -0.000084
    23  H    0.000007   0.000017  -0.000133  -0.006755   0.539954  -0.007102
    24  H   -0.000709  -0.000143   0.000031  -0.000084  -0.007102   0.509916
    25  H    0.000010  -0.000689   0.000000   0.000003  -0.000007  -0.000034
    26  H   -0.000000  -0.000002   0.000001  -0.000000   0.000000  -0.000000
    27  H   -0.000001   0.000001   0.000000   0.000000   0.000000   0.000000
              25         26         27
     1  Cl   0.000019  -0.000286   0.000948
     2  C   -0.001780   0.010450  -0.067050
     3  C    0.007945  -0.002327   0.019501
     4  C   -0.045063   0.012014  -0.004407
     5  N   -0.004560  -0.000154   0.000040
     6  C   -0.000276   0.000013   0.000009
     7  C    0.002704   0.000091  -0.000000
     8  C   -0.003681  -0.000046   0.000003
     9  C   -0.000444   0.000012  -0.000000
    10  C    0.000156  -0.000004   0.000000
    11  C    0.000235   0.000004  -0.000000
    12  C    0.000064  -0.000017  -0.000000
    13  C    0.430547  -0.054250   0.012385
    14  C   -0.038639   0.438176  -0.059494
    15  C    0.007207  -0.055702   0.445840
    16  H   -0.000113   0.000042  -0.000024
    17  H    0.000019  -0.000000   0.000000
    18  H   -0.000020  -0.000000   0.000000
    19  H    0.000010  -0.000000  -0.000001
    20  H   -0.000689  -0.000002   0.000001
    21  H    0.000000   0.000001   0.000000
    22  H    0.000003  -0.000000   0.000000
    23  H   -0.000007   0.000000   0.000000
    24  H   -0.000034  -0.000000   0.000000
    25  H    0.499926  -0.006647  -0.000083
    26  H   -0.006647   0.543229  -0.006647
    27  H   -0.000083  -0.006647   0.529928
 Mulliken charges:
               1
     1  Cl  -0.102276
     2  C    0.189233
     3  C   -0.379741
     4  C    0.256970
     5  N   -0.055782
     6  C   -0.318379
     7  C    0.191860
     8  C   -0.286877
     9  C   -0.059767
    10  C   -0.140979
    11  C   -0.062886
    12  C   -0.268335
    13  C   -0.267234
    14  C   -0.077991
    15  C   -0.248554
    16  H    0.141717
    17  H    0.131150
    18  H    0.151940
    19  H    0.142232
    20  H    0.146663
    21  H    0.125247
    22  H    0.123790
    23  H    0.123169
    24  H    0.140529
    25  H    0.153200
    26  H    0.122048
    27  H    0.129052
 Sum of Mulliken charges =   0.00000
 Mulliken charges with hydrogens summed into heavy atoms:
               1
     1  Cl  -0.102276
     2  C    0.189233
     3  C   -0.238024
     4  C    0.256970
     5  N   -0.055782
     6  C    0.106943
     7  C    0.191860
     8  C   -0.140214
     9  C    0.065480
    10  C   -0.017189
    11  C    0.060283
    12  C   -0.127806
    13  C   -0.114033
    14  C    0.044058
    15  C   -0.119502
 Electronic spatial extent (au):  <R**2>=           4449.3711
 Charge=             -0.0000 electrons
 Dipole moment (field-independent basis, Debye):
    X=             -3.0404    Y=              0.2948    Z=             -0.1130  Tot=              3.0567
 Quadrupole moment (field-independent basis, Debye-Ang):
   XX=            -96.7113   YY=            -87.6536   ZZ=            -95.3733
   XY=             -1.0526   XZ=              0.5043   YZ=             -1.6202
 Traceless Quadrupole moment (field-independent basis, Debye-Ang):
   XX=             -3.4652   YY=              5.5925   ZZ=             -2.1272
   XY=             -1.0526   XZ=              0.5043   YZ=             -1.6202
 Octapole moment (field-independent basis, Debye-Ang**2):
  XXX=            -54.0455  YYY=              6.7529  ZZZ=              5.6248  XYY=             13.0720
  XXY=            -16.8559  XXZ=             -9.2983  XZZ=             -4.4452  YZZ=              2.1105
  YYZ=             -2.9137  XYZ=             14.7843
 Hexadecapole moment (field-independent basis, Debye-Ang**3):
 XXXX=          -4711.4079 YYYY=           -819.1849 ZZZZ=           -341.9660 XXXY=             39.6156
 XXXZ=             43.1340 YYYX=            -14.4077 YYYZ=             10.8562 ZZZX=             15.3450
 ZZZY=            -18.7250 XXYY=           -929.9569 XXZZ=           -863.6235 YYZZ=           -194.8061
 XXYZ=            -37.2655 YYXZ=             -9.3264 ZZXY=             11.9666
 N-N= 9.952363277715D+02 E-N=-4.378149362632D+03  KE= 1.013778228992D+03
 Breneman (CHELPG) radii used.
 Read replacement radii for each type of atom:
 Atom Element Radius
    1    17    2.00
    2     6    1.50
    3     6    1.50
    4     6    1.50
    5     7    1.70
    6     6    1.50
    7     6    1.50
    8     6    1.50
    9     6    1.50
   10     6    1.50
   11     6    1.50
   12     6    1.50
   13     6    1.50
   14     6    1.50
   15     6    1.50
   16     1    1.45
   17     1    1.45
   18     1    1.45
   19     1    1.45
   20     1    1.45
   21     1    1.45
   22     1    1.45
   23     1    1.45
   24     1    1.45
   25     1    1.45
   26     1    1.45
   27     1    1.45
 Generate Potential Derived Charges using the Breneman model, NDens= 1.
 Grid spacing= 0.300 Box extension= 2.800
 NStep X,Y,Z=   52     40     33   Total possible points=       68640
 Number of Points to Fit=   16869

 **********************************************************************

            Electrostatic Properties Using The SCF Density.

 **********************************************************************

       Atomic Center    1 is at   4.470257  0.484899  0.365387
       Atomic Center    2 is at   2.904197 -0.193905 -0.003287
       Atomic Center    3 is at   1.785986  0.632639  0.085252
       Atomic Center    4 is at   0.508321  0.119214 -0.202855
       Atomic Center    5 is at  -0.614516  0.935830 -0.154345
       Atomic Center    6 is at  -0.460740  2.362372  0.036374
       Atomic Center    7 is at  -1.914297  0.382983 -0.003950
       Atomic Center    8 is at  -2.208618 -0.479047  1.059748
       Atomic Center    9 is at  -3.491131 -1.000538  1.206425
       Atomic Center   10 is at  -4.499912 -0.652981  0.307549
       Atomic Center   11 is at  -4.213960  0.212637 -0.746971
       Atomic Center   12 is at  -2.926207  0.720039 -0.909006
       Atomic Center   13 is at   0.406504 -1.237133 -0.579635
       Atomic Center   14 is at   1.538426 -2.035870 -0.650718
       Atomic Center   15 is at   2.808738 -1.531973 -0.365117
       Atomic Center   16 is at   1.928077  1.668142  0.388292
       Atomic Center   17 is at  -0.089250  2.615748  1.047151
       Atomic Center   18 is at  -1.434843  2.849137 -0.092222
       Atomic Center   19 is at   0.235589  2.787506 -0.703565
       Atomic Center   20 is at  -1.418762 -0.741892  1.766646
       Atomic Center   21 is at  -3.707521 -1.674310  2.038397
       Atomic Center   22 is at  -5.506818 -1.057485  0.428780
       Atomic Center   23 is at  -4.995417  0.484959 -1.459743
       Atomic Center   24 is at  -2.691603  1.379158 -1.747793
       Atomic Center   25 is at  -0.568428 -1.657807 -0.826629
       Atomic Center   26 is at   1.432467 -3.081558 -0.948176
       Atomic Center   27 is at   3.699899 -2.156308 -0.425171
   16869 points will be used for fitting atomic charges
 Fitting point charges to electrostatic potential
 Charges from ESP fit, RMS=   0.00393 RRMS=   0.38384:
 ESP charges:
               1
     1  Cl  -0.148114
     2  C    0.138197
     3  C   -0.243263
     4  C    0.358946
     5  N   -0.418365
     6  C    0.040352
     7  C    0.361795
     8  C   -0.140205
     9  C   -0.102000
    10  C   -0.127247
    11  C   -0.074001
    12  C   -0.227152
    13  C   -0.242039
    14  C   -0.064273
    15  C   -0.175562
    16  H    0.119887
    17  H    0.031118
    18  H    0.031534
    19  H    0.045580
    20  H    0.083224
    21  H    0.107193
    22  H    0.102686
    23  H    0.099745
    24  H    0.132086
    25  H    0.087758
    26  H    0.110722
    27  H    0.111397
 Sum of ESP charges =  -0.00000
 ESP charges with hydrogens summed into heavy atoms:
               1
     1  Cl  -0.148114
     2  C    0.138197
     3  C   -0.123376
     4  C    0.358946
     5  N   -0.418365
     6  C    0.148584
     7  C    0.361795
     8  C   -0.056981
     9  C    0.005193
    10  C   -0.024561
    11  C    0.025744
    12  C   -0.095066
    13  C   -0.154281
    14  C    0.046449
    15  C   -0.064164
 Charge=  -0.00000 Dipole=    -3.1814     0.2739    -0.1630 Tot=     3.1973
 -----------------------------------------------------------------

              Electrostatic Properties (Atomic Units)

 -----------------------------------------------------------------
    Center     Electric         -------- Electric Field --------
               Potential          X             Y             Z
 -----------------------------------------------------------------
    1 Atom    -64.439942
    2 Atom    -14.709377
    3 Atom    -14.766263
    4 Atom    -14.715677
    5 Atom    -18.351611
    6 Atom    -14.729371
    7 Atom    -14.720052
    8 Atom    -14.761803
    9 Atom    -14.759203
   10 Atom    -14.761622
   11 Atom    -14.758635
   12 Atom    -14.760850
   13 Atom    -14.771527
   14 Atom    -14.763092
   15 Atom    -14.771444
   16 Atom     -1.095886
   17 Atom     -1.108236
   18 Atom     -1.097818
   19 Atom     -1.104533
   20 Atom     -1.096852
   21 Atom     -1.098953
   22 Atom     -1.099815
   23 Atom     -1.098113
   24 Atom     -1.094495
   25 Atom     -1.105067
   26 Atom     -1.104146
   27 Atom     -1.103103
 -----------------------------------------------------------------
 Unable to Open any file for archive entry.
 1\1\GINC-NOTCH130\SP\RwB97XD\def2TZVP\C13H12Cl1N1\U1366379\17-Feb-2026
 \0\\#N Guess=Read Geom=Check Integral(Ultrafine) Density Pop=(ChelpG,R
 eadRadii) NMR wB97XD def2TZVP\\prod_5f_7\\0,1\Cl,0,-4.2005601837,1.131
 6390913,-0.8927309682\C,0,-2.8090799506,0.4579325024,-0.0808563571\C,0
 ,-1.5421827915,0.8892515774,-0.4685984452\C,0,-0.3985607106,0.36675127
 21,0.162400807\N,0,0.8713846166,0.8096035748,-0.1855939902\C,0,1.02159
 84439,1.9307314518,-1.0886727152\C,0,2.0212155278,0.0232541203,0.09231
 57456\C,0,2.1083537543,-1.30214102,-0.3514261576\C,0,3.248044602,-2.05
 71153992,-0.0879404946\C,0,4.3219145562,-1.4941369162,0.6021837397\C,0
 ,4.2435685623,-0.1720843414,1.0370572075\C,0,3.0960063661,0.5800703863
 ,0.7933684503\C,0,-0.5816282376,-0.5897050242,1.1840096011\C,0,-1.8562
 834482,-1.0042367047,1.5413565639\C,0,-2.9947094,-0.4897901253,0.91805
 48776\H,0,-1.4655419432,1.6237421273,-1.2679357087\H,0,0.6964066198,1.
 6901796653,-2.1183609173\H,0,2.0788890032,2.2181793884,-1.1318417631\H
 ,0,0.4435807219,2.8005709442,-0.7388191826\H,0,1.2694611965,-1.7367948
 297,-0.8991487281\H,0,3.3028046534,-3.0907597038,-0.4365855983\H,0,5.2
 176400372,-2.0859048884,0.8013487863\H,0,5.0763665861,0.2751126738,1.5
 841777574\H,0,3.0204440386,1.6084732847,1.1535316646\H,0,0.2853071015,
 -0.9984814129,1.7034233253\H,0,-1.9704797197,-1.7432403456,2.337600417
 1\H,0,-3.9972200021,-0.8102713488,1.2006020824\\Version=ES64L-G16RevC.
 01\State=1-A\HF=-1017.5717992\RMSD=1.286e-09\Dipole=1.1940302,-0.10770
 93,0.0947435\Quadrupole=-1.9260433,3.0971217,-1.1710784,2.1470881,-0.5
 634079,-1.7757409\PG=C01 [X(C13H12Cl1N1)]\\@
 The archive entry for this job was punched.


 DO NOT LET SELFISH MEN OR GREEDY INTERESTS SKIN YOUR COUNTRY OF ITS
 BEAUTY, ITS RICHES, OR ITS ROMANCE. -- THEODORE ROOSEVELT
 Job cpu time:       0 days  1 hours 18 minutes 54.2 seconds.
 Elapsed time:       0 days  0 hours 10 minutes 10.4 seconds.
 File lengths (MBytes):  RWF=    183 Int=      0 D2E=      0 Chk=     28 Scr=      2
 Normal termination of Gaussian 16 at Tue Feb 17 16:40:11 2026.
