 Entering Gaussian System, Link 0=g16
 Input=prod_5i_1.com
 Output=prod_5i_1.log
 Initial command:
 /uufs/chpc.utah.edu/sys/installdir/gaussian16/C01/AVX/g16/l1.exe "/scratch/general/vast/u1366379/GAUSSSCRDIR/11028675-notchpeak.peaks/Gau-80596.inp" -scrdir="/scratch/general/vast/u1366379/GAUSSSCRDIR/11028675-notchpeak.peaks/"
 Entering Link 1 = /uufs/chpc.utah.edu/sys/installdir/gaussian16/C01/AVX/g16/l1.exe PID=     80598.
  
 Copyright (c) 1988-2019, Gaussian, Inc.  All Rights Reserved.
  
 This is part of the Gaussian(R) 16 program.  It is based on
 the Gaussian(R) 09 system (copyright 2009, Gaussian, Inc.),
 the Gaussian(R) 03 system (copyright 2003, Gaussian, Inc.),
 the Gaussian(R) 98 system (copyright 1998, Gaussian, Inc.),
 the Gaussian(R) 94 system (copyright 1995, Gaussian, Inc.),
 the Gaussian 92(TM) system (copyright 1992, Gaussian, Inc.),
 the Gaussian 90(TM) system (copyright 1990, Gaussian, Inc.),
 the Gaussian 88(TM) system (copyright 1988, Gaussian, Inc.),
 the Gaussian 86(TM) system (copyright 1986, Carnegie Mellon
 University), and the Gaussian 82(TM) system (copyright 1983,
 Carnegie Mellon University). Gaussian is a federally registered
 trademark of Gaussian, Inc.
  
 This software contains proprietary and confidential information,
 including trade secrets, belonging to Gaussian, Inc.
  
 This software is provided under written license and may be
 used, copied, transmitted, or stored only in accord with that
 written license.
  
 The following legend is applicable only to US Government
 contracts under FAR:
  
                    RESTRICTED RIGHTS LEGEND
  
 Use, reproduction and disclosure by the US Government is
 subject to restrictions as set forth in subparagraphs (a)
 and (c) of the Commercial Computer Software - Restricted
 Rights clause in FAR 52.227-19.
  
 Gaussian, Inc.
 340 Quinnipiac St., Bldg. 40, Wallingford CT 06492
  
  
 ---------------------------------------------------------------
 Warning -- This program may not be used in any manner that
 competes with the business of Gaussian, Inc. or will provide
 assistance to any competitor of Gaussian, Inc.  The licensee
 of this program is prohibited from giving any competitor of
 Gaussian, Inc. access to this program.  By using this program,
 the user acknowledges that Gaussian, Inc. is engaged in the
 business of creating and licensing software in the field of
 computational chemistry and represents and warrants to the
 licensee that it is not a competitor of Gaussian, Inc. and that
 it will not use this program in any manner prohibited above.
 ---------------------------------------------------------------
  

 Cite this work as:
 Gaussian 16, Revision C.01,
 M. J. Frisch, G. W. Trucks, H. B. Schlegel, G. E. Scuseria, 
 M. A. Robb, J. R. Cheeseman, G. Scalmani, V. Barone, 
 G. A. Petersson, H. Nakatsuji, X. Li, M. Caricato, A. V. Marenich, 
 J. Bloino, B. G. Janesko, R. Gomperts, B. Mennucci, H. P. Hratchian, 
 J. V. Ortiz, A. F. Izmaylov, J. L. Sonnenberg, D. Williams-Young, 
 F. Ding, F. Lipparini, F. Egidi, J. Goings, B. Peng, A. Petrone, 
 T. Henderson, D. Ranasinghe, V. G. Zakrzewski, J. Gao, N. Rega, 
 G. Zheng, W. Liang, M. Hada, M. Ehara, K. Toyota, R. Fukuda, 
 J. Hasegawa, M. Ishida, T. Nakajima, Y. Honda, O. Kitao, H. Nakai, 
 T. Vreven, K. Throssell, J. A. Montgomery, Jr., J. E. Peralta, 
 F. Ogliaro, M. J. Bearpark, J. J. Heyd, E. N. Brothers, K. N. Kudin, 
 V. N. Staroverov, T. A. Keith, R. Kobayashi, J. Normand, 
 K. Raghavachari, A. P. Rendell, J. C. Burant, S. S. Iyengar, 
 J. Tomasi, M. Cossi, J. M. Millam, M. Klene, C. Adamo, R. Cammi, 
 J. W. Ochterski, R. L. Martin, K. Morokuma, O. Farkas, 
 J. B. Foresman, and D. J. Fox, Gaussian, Inc., Wallingford CT, 2019.
 
 ******************************************
 Gaussian 16:  ES64L-G16RevC.01  3-Jul-2019
                17-Feb-2026 
 ******************************************
 %NProcShared=8
 Will use up to    8 processors via shared memory.
 %Mem=8GB
 %chk=prod_5i_1.chk
 ------------------------------------------------------
 #N OPT FREQ=NORAMAN Integral(Ultrafine) wB97XD def2SVP
 ------------------------------------------------------
 1/18=20,19=15,26=4,38=1/1,3;
 2/9=110,12=2,17=6,18=5,40=1/2;
 3/5=43,7=101,11=2,25=1,30=1,71=1,74=-58,75=-5/1,2,3;
 4//1;
 5/5=2,38=5/2;
 6/7=2,8=2,9=2,10=2,28=1/1;
 7//1,2,3,16;
 1/18=20,19=15,26=4/3(2);
 2/9=110/2;
 99//99;
 2/9=110/2;
 3/5=43,7=101,11=2,25=1,30=1,71=1,74=-58,75=-5/1,2,3;
 4/5=5,16=3,69=1/1;
 5/5=2,38=5/2;
 7//1,2,3,16;
 1/18=20,19=15,26=4/3(-5);
 2/9=110/2;
 6/7=2,8=2,9=2,10=2,19=2,28=1/1;
 99/9=1/99;
 ---------
 prod_5i_1
 ---------
 Symbolic Z-matrix:
 Charge =  0 Multiplicity = 1
 C                    -0.57785   2.99286   0.67781 
 C                    -0.04391   2.24539  -0.52464 
 N                     0.00379   0.78844  -0.29926 
 C                     1.2813    0.1551   -0.17807 
 C                     2.35216   0.79039   0.45139 
 C                     3.57567   0.16747   0.55805 
 C                     3.75798  -1.09947   0.03824 
 C                     2.70943  -1.74291  -0.58998 
 C                     1.48483  -1.12338  -0.69773 
 C                    -1.21588   0.06666  -0.12205 
 C                    -2.4079    0.47969  -0.71839 
 C                    -3.57652  -0.22123  -0.5186 
 C                    -3.58429  -1.34667   0.28205 
 C                    -2.41559  -1.76849   0.88479 
 C                    -1.24606  -1.07002   0.68631 
 H                     0.03296   2.79984   1.56107 
 H                    -0.5987    4.0729    0.51626 
 H                    -1.59325   2.67381   0.91825 
 H                     0.96257   2.58935  -0.78499 
 H                    -0.64761   2.44146  -1.416 
 H                     2.20757   1.76775   0.87678 
 H                     4.39287   0.66847   1.05114 
 H                     4.71659  -1.58501   0.12281 
 H                     2.85083  -2.73047  -0.99815 
 H                     0.66909  -1.61465  -1.19902 
 H                    -2.41066   1.34725  -1.3533 
 H                    -4.48832   0.10856  -0.98965 
 H                    -4.50019  -1.89341   0.43707 
 H                    -2.41978  -2.64389   1.51374 
 H                    -0.33939  -1.3862    1.17159 
 

 GradGradGradGradGradGradGradGradGradGradGradGradGradGradGradGradGradGrad
 Berny optimization.
 Initialization pass.
                           ----------------------------
                           !    Initial Parameters    !
                           ! (Angstroms and Degrees)  !
 --------------------------                            --------------------------
 ! Name  Definition              Value          Derivative Info.                !
 --------------------------------------------------------------------------------
 ! R1    R(1,2)                  1.5132         estimate D2E/DX2                !
 ! R2    R(1,16)                 1.0911         estimate D2E/DX2                !
 ! R3    R(1,17)                 1.0923         estimate D2E/DX2                !
 ! R4    R(1,18)                 1.0912         estimate D2E/DX2                !
 ! R5    R(2,3)                  1.4751         estimate D2E/DX2                !
 ! R6    R(2,19)                 1.095          estimate D2E/DX2                !
 ! R7    R(2,20)                 1.0943         estimate D2E/DX2                !
 ! R8    R(3,4)                  1.431          estimate D2E/DX2                !
 ! R9    R(3,10)                 1.4283         estimate D2E/DX2                !
 ! R10   R(4,5)                  1.3952         estimate D2E/DX2                !
 ! R11   R(4,9)                  1.395          estimate D2E/DX2                !
 ! R12   R(5,6)                  1.3771         estimate D2E/DX2                !
 ! R13   R(5,21)                 1.0757         estimate D2E/DX2                !
 ! R14   R(6,7)                  1.3815         estimate D2E/DX2                !
 ! R15   R(6,22)                 1.0779         estimate D2E/DX2                !
 ! R16   R(7,8)                  1.3814         estimate D2E/DX2                !
 ! R17   R(7,23)                 1.0779         estimate D2E/DX2                !
 ! R18   R(8,9)                  1.3766         estimate D2E/DX2                !
 ! R19   R(8,24)                 1.0779         estimate D2E/DX2                !
 ! R20   R(9,25)                 1.0761         estimate D2E/DX2                !
 ! R21   R(10,11)                1.3954         estimate D2E/DX2                !
 ! R22   R(10,15)                1.3951         estimate D2E/DX2                !
 ! R23   R(11,12)                1.3773         estimate D2E/DX2                !
 ! R24   R(11,26)                1.0751         estimate D2E/DX2                !
 ! R25   R(12,13)                1.3812         estimate D2E/DX2                !
 ! R26   R(12,27)                1.078          estimate D2E/DX2                !
 ! R27   R(13,14)                1.381          estimate D2E/DX2                !
 ! R28   R(13,28)                1.0779         estimate D2E/DX2                !
 ! R29   R(14,15)                1.3766         estimate D2E/DX2                !
 ! R30   R(14,29)                1.0779         estimate D2E/DX2                !
 ! R31   R(15,30)                1.0759         estimate D2E/DX2                !
 ! A1    A(2,1,16)             110.9997         estimate D2E/DX2                !
 ! A2    A(2,1,17)             112.1884         estimate D2E/DX2                !
 ! A3    A(2,1,18)             111.0405         estimate D2E/DX2                !
 ! A4    A(16,1,17)            107.7789         estimate D2E/DX2                !
 ! A5    A(16,1,18)            106.9081         estimate D2E/DX2                !
 ! A6    A(17,1,18)            107.6951         estimate D2E/DX2                !
 ! A7    A(1,2,3)              112.204          estimate D2E/DX2                !
 ! A8    A(1,2,19)             110.9834         estimate D2E/DX2                !
 ! A9    A(1,2,20)             111.3536         estimate D2E/DX2                !
 ! A10   A(3,2,19)             108.4732         estimate D2E/DX2                !
 ! A11   A(3,2,20)             108.6196         estimate D2E/DX2                !
 ! A12   A(19,2,20)            104.8998         estimate D2E/DX2                !
 ! A13   A(2,3,4)              118.6172         estimate D2E/DX2                !
 ! A14   A(2,3,10)             119.373          estimate D2E/DX2                !
 ! A15   A(4,3,10)             121.8821         estimate D2E/DX2                !
 ! A16   A(3,4,5)              121.4585         estimate D2E/DX2                !
 ! A17   A(3,4,9)              120.286          estimate D2E/DX2                !
 ! A18   A(5,4,9)              118.2551         estimate D2E/DX2                !
 ! A19   A(4,5,6)              120.7244         estimate D2E/DX2                !
 ! A20   A(4,5,21)             119.2729         estimate D2E/DX2                !
 ! A21   A(6,5,21)             119.9864         estimate D2E/DX2                !
 ! A22   A(5,6,7)              120.1943         estimate D2E/DX2                !
 ! A23   A(5,6,22)             119.9176         estimate D2E/DX2                !
 ! A24   A(7,6,22)             119.8878         estimate D2E/DX2                !
 ! A25   A(6,7,8)              119.8758         estimate D2E/DX2                !
 ! A26   A(6,7,23)             120.0622         estimate D2E/DX2                !
 ! A27   A(8,7,23)             120.062          estimate D2E/DX2                !
 ! A28   A(7,8,9)              120.0807         estimate D2E/DX2                !
 ! A29   A(7,8,24)             119.9605         estimate D2E/DX2                !
 ! A30   A(9,8,24)             119.9587         estimate D2E/DX2                !
 ! A31   A(4,9,8)              120.8695         estimate D2E/DX2                !
 ! A32   A(4,9,25)             118.7715         estimate D2E/DX2                !
 ! A33   A(8,9,25)             120.3534         estimate D2E/DX2                !
 ! A34   A(3,10,11)            121.795          estimate D2E/DX2                !
 ! A35   A(3,10,15)            120.1387         estimate D2E/DX2                !
 ! A36   A(11,10,15)           118.0539         estimate D2E/DX2                !
 ! A37   A(10,11,12)           120.8108         estimate D2E/DX2                !
 ! A38   A(10,11,26)           119.5672         estimate D2E/DX2                !
 ! A39   A(12,11,26)           119.6156         estimate D2E/DX2                !
 ! A40   A(11,12,13)           120.2347         estimate D2E/DX2                !
 ! A41   A(11,12,27)           119.9086         estimate D2E/DX2                !
 ! A42   A(13,12,27)           119.8566         estimate D2E/DX2                !
 ! A43   A(12,13,14)           119.8106         estimate D2E/DX2                !
 ! A44   A(12,13,28)           120.0965         estimate D2E/DX2                !
 ! A45   A(14,13,28)           120.0928         estimate D2E/DX2                !
 ! A46   A(13,14,15)           120.071          estimate D2E/DX2                !
 ! A47   A(13,14,29)           119.9629         estimate D2E/DX2                !
 ! A48   A(15,14,29)           119.9659         estimate D2E/DX2                !
 ! A49   A(10,15,14)           121.018          estimate D2E/DX2                !
 ! A50   A(10,15,30)           118.8524         estimate D2E/DX2                !
 ! A51   A(14,15,30)           120.12           estimate D2E/DX2                !
 ! D1    D(16,1,2,3)            58.4743         estimate D2E/DX2                !
 ! D2    D(16,1,2,19)          -63.0659         estimate D2E/DX2                !
 ! D3    D(16,1,2,20)         -179.53           estimate D2E/DX2                !
 ! D4    D(17,1,2,3)           179.1236         estimate D2E/DX2                !
 ! D5    D(17,1,2,19)           57.5835         estimate D2E/DX2                !
 ! D6    D(17,1,2,20)          -58.8806         estimate D2E/DX2                !
 ! D7    D(18,1,2,3)           -60.3055         estimate D2E/DX2                !
 ! D8    D(18,1,2,19)          178.1544         estimate D2E/DX2                !
 ! D9    D(18,1,2,20)           61.6902         estimate D2E/DX2                !
 ! D10   D(1,2,3,4)           -110.553          estimate D2E/DX2                !
 ! D11   D(1,2,3,10)            65.4168         estimate D2E/DX2                !
 ! D12   D(19,2,3,4)            12.4138         estimate D2E/DX2                !
 ! D13   D(19,2,3,10)         -171.6163         estimate D2E/DX2                !
 ! D14   D(20,2,3,4)           125.9062         estimate D2E/DX2                !
 ! D15   D(20,2,3,10)          -58.124          estimate D2E/DX2                !
 ! D16   D(2,3,4,5)             35.9799         estimate D2E/DX2                !
 ! D17   D(2,3,4,9)           -143.7731         estimate D2E/DX2                !
 ! D18   D(10,3,4,5)          -139.8839         estimate D2E/DX2                !
 ! D19   D(10,3,4,9)            40.3631         estimate D2E/DX2                !
 ! D20   D(2,3,10,11)           29.6462         estimate D2E/DX2                !
 ! D21   D(2,3,10,15)         -149.0463         estimate D2E/DX2                !
 ! D22   D(4,3,10,11)         -154.5204         estimate D2E/DX2                !
 ! D23   D(4,3,10,15)           26.7871         estimate D2E/DX2                !
 ! D24   D(3,4,5,6)           -179.9151         estimate D2E/DX2                !
 ! D25   D(3,4,5,21)             1.5572         estimate D2E/DX2                !
 ! D26   D(9,4,5,6)             -0.1572         estimate D2E/DX2                !
 ! D27   D(9,4,5,21)          -178.6849         estimate D2E/DX2                !
 ! D28   D(3,4,9,8)            179.8842         estimate D2E/DX2                !
 ! D29   D(3,4,9,25)             0.74           estimate D2E/DX2                !
 ! D30   D(5,4,9,8)              0.1234         estimate D2E/DX2                !
 ! D31   D(5,4,9,25)          -179.0209         estimate D2E/DX2                !
 ! D32   D(4,5,6,7)              0.1044         estimate D2E/DX2                !
 ! D33   D(4,5,6,22)          -179.7115         estimate D2E/DX2                !
 ! D34   D(21,5,6,7)           178.6217         estimate D2E/DX2                !
 ! D35   D(21,5,6,22)           -1.1943         estimate D2E/DX2                !
 ! D36   D(5,6,7,8)             -0.0139         estimate D2E/DX2                !
 ! D37   D(5,6,7,23)           179.9923         estimate D2E/DX2                !
 ! D38   D(22,6,7,8)           179.8021         estimate D2E/DX2                !
 ! D39   D(22,6,7,23)           -0.1917         estimate D2E/DX2                !
 ! D40   D(6,7,8,9)             -0.0199         estimate D2E/DX2                !
 ! D41   D(6,7,8,24)           179.852          estimate D2E/DX2                !
 ! D42   D(23,7,8,9)           179.9739         estimate D2E/DX2                !
 ! D43   D(23,7,8,24)           -0.1542         estimate D2E/DX2                !
 ! D44   D(7,8,9,4)             -0.0365         estimate D2E/DX2                !
 ! D45   D(7,8,9,25)           179.0942         estimate D2E/DX2                !
 ! D46   D(24,8,9,4)          -179.9085         estimate D2E/DX2                !
 ! D47   D(24,8,9,25)           -0.7777         estimate D2E/DX2                !
 ! D48   D(3,10,11,12)        -179.0808         estimate D2E/DX2                !
 ! D49   D(3,10,11,26)           1.8396         estimate D2E/DX2                !
 ! D50   D(15,10,11,12)         -0.3621         estimate D2E/DX2                !
 ! D51   D(15,10,11,26)       -179.4417         estimate D2E/DX2                !
 ! D52   D(3,10,15,14)         179.0776         estimate D2E/DX2                !
 ! D53   D(3,10,15,30)           0.2045         estimate D2E/DX2                !
 ! D54   D(11,10,15,14)          0.3368         estimate D2E/DX2                !
 ! D55   D(11,10,15,30)       -178.5363         estimate D2E/DX2                !
 ! D56   D(10,11,12,13)          0.165          estimate D2E/DX2                !
 ! D57   D(10,11,12,27)       -179.7517         estimate D2E/DX2                !
 ! D58   D(26,11,12,13)        179.2441         estimate D2E/DX2                !
 ! D59   D(26,11,12,27)         -0.6726         estimate D2E/DX2                !
 ! D60   D(11,12,13,14)          0.0682         estimate D2E/DX2                !
 ! D61   D(11,12,13,28)        179.9857         estimate D2E/DX2                !
 ! D62   D(27,12,13,14)        179.985          estimate D2E/DX2                !
 ! D63   D(27,12,13,28)         -0.0975         estimate D2E/DX2                !
 ! D64   D(12,13,14,15)         -0.0939         estimate D2E/DX2                !
 ! D65   D(12,13,14,29)        179.7213         estimate D2E/DX2                !
 ! D66   D(28,13,14,15)        179.9886         estimate D2E/DX2                !
 ! D67   D(28,13,14,29)         -0.1963         estimate D2E/DX2                !
 ! D68   D(13,14,15,10)         -0.1134         estimate D2E/DX2                !
 ! D69   D(13,14,15,30)        178.7455         estimate D2E/DX2                !
 ! D70   D(29,14,15,10)       -179.9286         estimate D2E/DX2                !
 ! D71   D(29,14,15,30)         -1.0696         estimate D2E/DX2                !
 --------------------------------------------------------------------------------
 Trust Radius=3.00D-01 FncErr=1.00D-07 GrdErr=1.00D-06 EigMax=2.50D+02 EigMin=1.00D-04
 Number of steps in this run=    163 maximum allowed number of steps=    180.
 GradGradGradGradGradGradGradGradGradGradGradGradGradGradGradGradGradGrad

                          Input orientation:                          
 ---------------------------------------------------------------------
 Center     Atomic      Atomic             Coordinates (Angstroms)
 Number     Number       Type             X           Y           Z
 ---------------------------------------------------------------------
      1          6           0       -0.577850    2.992860    0.677810
      2          6           0       -0.043910    2.245390   -0.524640
      3          7           0        0.003790    0.788440   -0.299260
      4          6           0        1.281300    0.155100   -0.178070
      5          6           0        2.352160    0.790390    0.451390
      6          6           0        3.575670    0.167470    0.558050
      7          6           0        3.757980   -1.099470    0.038240
      8          6           0        2.709430   -1.742910   -0.589980
      9          6           0        1.484830   -1.123380   -0.697730
     10          6           0       -1.215880    0.066660   -0.122050
     11          6           0       -2.407900    0.479690   -0.718390
     12          6           0       -3.576520   -0.221230   -0.518600
     13          6           0       -3.584290   -1.346670    0.282050
     14          6           0       -2.415590   -1.768490    0.884790
     15          6           0       -1.246060   -1.070020    0.686310
     16          1           0        0.032960    2.799840    1.561070
     17          1           0       -0.598700    4.072900    0.516260
     18          1           0       -1.593250    2.673810    0.918250
     19          1           0        0.962570    2.589350   -0.784990
     20          1           0       -0.647610    2.441460   -1.416000
     21          1           0        2.207570    1.767750    0.876780
     22          1           0        4.392870    0.668470    1.051140
     23          1           0        4.716590   -1.585010    0.122810
     24          1           0        2.850830   -2.730470   -0.998150
     25          1           0        0.669090   -1.614650   -1.199020
     26          1           0       -2.410660    1.347250   -1.353300
     27          1           0       -4.488320    0.108560   -0.989650
     28          1           0       -4.500190   -1.893410    0.437070
     29          1           0       -2.419780   -2.643890    1.513740
     30          1           0       -0.339390   -1.386200    1.171590
 ---------------------------------------------------------------------
                    Distance matrix (angstroms):
                    1          2          3          4          5
     1  C    0.000000
     2  C    1.513172   0.000000
     3  N    2.480411   1.475051   0.000000
     4  C    3.498836   2.499121   1.431027   0.000000
     5  C    3.672479   2.968301   2.465425   1.395190   0.000000
     6  C    5.024828   4.311766   3.725441   2.409597   1.377092
     7  C    5.996302   5.095026   4.215691   2.784723   2.391358
     8  C    5.902628   4.846822   3.716549   2.410740   2.762192
     9  C    4.805225   3.703460   2.450982   1.394985   2.394839
    10  C    3.099920   2.506483   1.428273   2.499373   3.685584
    11  C    3.408002   2.956972   2.467234   3.742660   4.911526
    12  C    4.555633   4.308548   3.726414   4.884260   6.092085
    13  C    5.294037   5.107635   4.215559   5.112826   6.311667
    14  C    5.107894   4.870584   3.713929   4.300798   5.428365
    15  C    4.117471   3.728741   2.446906   2.938643   4.057524
    16  H    1.091098   2.159516   2.739965   3.402589   3.263122
    17  H    1.092254   2.175099   3.437404   4.400642   4.414369
    18  H    1.091165   2.160076   2.754539   3.976035   4.396759
    19  H    2.162290   1.095031   2.097253   2.528935   2.587635
    20  H    2.166321   1.094267   2.098548   3.237376   3.900230
    21  H    3.049434   2.694676   2.683051   2.138066   1.075684
    22  H    5.500020   4.965358   4.593691   3.384727   2.130507
    23  H    7.021112   6.144389   5.293571   3.862606   3.367643
    24  H    6.879040   5.776064   4.580045   3.385627   3.840090
    25  H    5.128986   3.982846   2.650855   2.132875   3.367610
    26  H    3.192590   2.663614   2.693109   4.053758   5.123617
    27  H    5.137255   4.953287   4.595425   5.826606   7.023792
    28  H    6.270434   6.157352   5.293424   6.164448   7.359191
    29  H    5.988692   5.805584   4.576194   4.939085   5.974469
    30  H    4.413258   4.019073   2.647684   2.612245   3.535629
                    6          7          8          9         10
     6  C    0.000000
     7  C    1.381512   0.000000
     8  C    2.391212   1.381352   0.000000
     9  C    2.759509   2.389442   1.376616   0.000000
    10  C    4.840625   5.111246   4.347593   3.006898   0.000000
    11  C    6.126164   6.409704   5.580637   4.209941   1.395395
    12  C    7.243210   7.407852   6.467903   5.144242   2.410965
    13  C    7.323512   7.350475   6.366188   5.167766   2.787501
    14  C    6.304752   6.267153   5.333051   4.258381   2.412635
    15  C    4.979650   5.045917   4.210415   3.062054   1.395134
    16  H    4.526170   5.603517   5.694478   4.754131   3.444237
    17  H    5.716598   6.779570   6.781677   5.728542   4.103451
    18  H    5.755799   6.606642   6.347852   5.148264   2.832289
    19  H    3.807565   4.701002   4.675257   3.750298   3.398396
    20  H    5.186906   5.836285   5.427797   4.215602   2.763496
    21  H    2.129362   3.365690   3.837705   3.370470   3.951124
    22  H    1.077940   2.134166   3.367788   3.837443   5.761651
    23  H    2.135958   1.077884   2.135812   3.366105   6.162968
    24  H    3.368265   2.134757   1.077901   2.130480   5.012945
    25  H    3.835551   3.367115   2.133159   1.076136   2.745866
    26  H    6.393848   6.780482   6.028853   4.659252   2.140885
    27  H    8.211381   8.397461   7.442801   6.105851   3.385757
    28  H    8.335549   8.305828   7.283962   6.140129   3.865382
    29  H    6.690479   6.536593   5.616600   4.737988   3.387073
    30  H    4.256526   4.260885   3.539163   2.625111   2.133669
                   11         12         13         14         15
    11  C    0.000000
    12  C    1.377272   0.000000
    13  C    2.391728   1.381201   0.000000
    14  C    2.761260   2.389827   1.380973   0.000000
    15  C    2.392625   2.757408   2.388992   1.376610   0.000000
    16  H    4.066550   5.145895   5.649242   5.227082   4.168563
    17  H    4.208173   5.327091   6.191958   6.128519   5.186291
    18  H    2.855943   3.791986   4.531363   4.517897   3.767041
    19  H    3.976829   5.345434   6.107763   5.761154   4.520372
    20  H    2.726504   4.058788   5.085016   5.113029   4.136223
    21  H    5.050369   6.273661   6.602951   5.820538   4.474011
    22  H    7.029747   8.171097   8.263617   7.233365   5.912105
    23  H    7.465183   8.428937   8.305828   7.175115   6.011318
    24  H    6.167466   6.916436   6.705564   5.675037   4.730646
    25  H    3.753016   4.519933   4.511831   3.725746   2.742060
    26  H    1.075071   2.125108   3.362883   3.836262   3.370385
    27  H    2.130602   1.077974   2.133585   3.366460   3.835380
    28  H    3.368140   2.136038   1.077882   2.135794   3.365925
    29  H    3.839179   3.367155   2.134461   1.077924   2.130569
    30  H    3.366349   3.833133   3.364851   2.130494   1.075880
                   16         17         18         19         20
    16  H    0.000000
    17  H    1.763889   0.000000
    18  H    1.753186   1.763003   0.000000
    19  H    2.532287   2.516294   3.072519   0.000000
    20  H    3.074826   2.529351   2.529218   1.735720   0.000000
    21  H    2.502477   3.649499   3.907544   2.233054   3.723275
    22  H    4.879711   6.065642   6.314482   4.339137   5.885296
    23  H    6.575096   7.772970   7.654042   5.687007   6.881500
    24  H    6.713742   7.776795   7.254563   5.649022   6.257998
    25  H    5.245043   6.074348   5.290738   4.234521   4.269989
    26  H    4.071222   3.769300   2.754607   3.639295   2.075951
    27  H    5.847318   5.754381   4.313006   5.992362   4.513895
    28  H    6.621134   7.129148   5.435194   7.171493   6.088295
    29  H    5.970961   7.030403   5.414397   6.641630   6.130640
    30  H    4.220577   5.504405   4.256763   4.618258   4.630508
                   21         22         23         24         25
    21  H    0.000000
    22  H    2.452418   0.000000
    23  H    4.254956   2.458610   0.000000
    24  H    4.915601   4.257965   2.459612   0.000000
    25  H    4.256348   4.913491   4.257977   2.458738   0.000000
    26  H    5.145690   7.247765   7.846957   6.666124   4.275689
    27  H    7.146427   9.129833   9.425291   7.869135   5.441706
    28  H    7.654507   9.275065   9.227291   7.536446   5.429176
    29  H    6.425002   7.589330   7.347359   5.839214   4.237867
    30  H    4.064643   5.160471   5.167436   4.085626   2.586313
                   26         27         28         29         30
    26  H    0.000000
    27  H    2.446071   0.000000
    28  H    4.251287   2.458364   0.000000
    29  H    4.914184   4.256971   2.459785   0.000000
    30  H    4.258753   4.911098   4.255472   2.454969   0.000000
 Stoichiometry    C14H15N
 Framework group  C1[X(C14H15N)]
 Deg. of freedom    84
 Full point group                 C1      NOp   1
 Largest Abelian subgroup         C1      NOp   1
 Largest concise Abelian subgroup C1      NOp   1
                         Standard orientation:                         
 ---------------------------------------------------------------------
 Center     Atomic      Atomic             Coordinates (Angstroms)
 Number     Number       Type             X           Y           Z
 ---------------------------------------------------------------------
      1          6           0       -0.583883    2.962151    0.659804
      2          6           0       -0.050269    2.211798   -0.540994
      3          7           0        0.004819    0.756097   -0.309316
      4          6           0        1.285594    0.129153   -0.189332
      5          6           0        2.355484    0.772126    0.433945
      6          6           0        3.582167    0.155290    0.539523
      7          6           0        3.768668   -1.113099    0.024758
      8          6           0        2.721128   -1.764114   -0.597314
      9          6           0        1.493368   -1.150678   -0.703963
     10          6           0       -1.210967    0.029538   -0.125086
     11          6           0       -2.406723    0.434457   -0.719505
     12          6           0       -3.571486   -0.270908   -0.512948
     13          6           0       -3.571595   -1.392805    0.292698
     14          6           0       -2.399098   -1.806591    0.893629
     15          6           0       -1.233410   -1.103666    0.688390
     16          1           0        0.030557    2.775853    1.541989
     17          1           0       -0.610193    4.041356    0.493540
     18          1           0       -1.597053    2.639529    0.904840
     19          1           0        0.953805    2.559199   -0.806021
     20          1           0       -0.657638    2.401142   -1.431315
     21          1           0        2.207737    1.750694    0.855456
     22          1           0        4.398592    0.662210    1.027823
     23          1           0        4.729755   -1.593867    0.108468
     24          1           0        2.865786   -2.752820   -1.001549
     25          1           0        0.678332   -1.647897   -1.200510
     26          1           0       -2.415444    1.299166   -1.358239
     27          1           0       -4.486254    0.052611   -0.982590
     28          1           0       -4.484488   -1.943036    0.453010
     29          1           0       -2.397309   -2.679199    1.526459
     30          1           0       -0.323790   -1.413536    1.172218
 ---------------------------------------------------------------------
 Rotational constants (GHZ):           1.0702455           0.4236045           0.3311501
 Standard basis: def2SVP (5D, 7F)
 There are   300 symmetry adapted cartesian basis functions of A   symmetry.
 There are   285 symmetry adapted basis functions of A   symmetry.
   285 basis functions,   480 primitive gaussians,   300 cartesian basis functions
    53 alpha electrons       53 beta electrons
       nuclear repulsion energy       931.0673071573 Hartrees.
 NAtoms=   30 NActive=   30 NUniq=   30 SFac= 1.00D+00 NAtFMM=   60 NAOKFM=F Big=F
 Integral buffers will be    131072 words long.
 Raffenetti 2 integral format.
 Two-electron integral symmetry is turned on.
 Nuclear repulsion after empirical dispersion term =      931.0460787758 Hartrees.
 One-electron integrals computed using PRISM.
   1 Symmetry operations used in ECPInt.
 ECPInt:  NShTT=    9180 NPrTT=   32880 LenC2=    8775 LenP2D=   23159.
 LDataN:  DoStor=T MaxTD1= 4 Len=   56
 NBasis=   285 RedAO= T EigKep=  2.40D-04  NBF=   285
 NBsUse=   285 1.00D-06 EigRej= -1.00D+00 NBFU=   285
 ExpMin= 1.22D-01 ExpMax= 1.71D+03 ExpMxC= 2.58D+02 IAcc=3 IRadAn=         5 AccDes= 0.00D+00
 Harris functional with IExCor= 4639 and IRadAn=       5 diagonalized for initial guess.
 HarFok:  IExCor= 4639 AccDes= 0.00D+00 IRadAn=         5 IDoV= 1 UseB2=F ITyADJ=14
 ICtDFT=  3500011 ScaDFX=  1.000000  1.000000  1.000000  1.000000
 FoFCou: FMM=F IPFlag=           0 FMFlag=      100000 FMFlg1=           0
         NFxFlg=           0 DoJE=T BraDBF=F KetDBF=T FulRan=T
         wScrn=  0.000000 ICntrl=       500 IOpCl=  0 I1Cent=   200000004 NGrid=           0
         NMat0=    1 NMatS0=      1 NMatT0=    0 NMatD0=    1 NMtDS0=    0 NMtDT0=    0
 Petite list used in FoFCou.
 Requested convergence on RMS density matrix=1.00D-08 within 128 cycles.
 Requested convergence on MAX density matrix=1.00D-06.
 Requested convergence on             energy=1.00D-06.
 No special actions if energy rises.
 Integral accuracy reduced to 1.0D-05 until final iterations.
 Initial convergence to 1.0D-05 achieved.  Increase integral accuracy.
 SCF Done:  E(RwB97XD) =  -596.648543308     A.U. after   15 cycles
            NFock= 15  Conv=0.37D-08     -V/T= 2.0108

 **********************************************************************

            Population analysis using the SCF Density.

 **********************************************************************

 Orbital symmetries:
       Occupied  (A) (A) (A) (A) (A) (A) (A) (A) (A) (A) (A) (A)
                 (A) (A) (A) (A) (A) (A) (A) (A) (A) (A) (A) (A)
                 (A) (A) (A) (A) (A) (A) (A) (A) (A) (A) (A) (A)
                 (A) (A) (A) (A) (A) (A) (A) (A) (A) (A) (A) (A)
                 (A) (A) (A) (A) (A)
       Virtual   (A) (A) (A) (A) (A) (A) (A) (A) (A) (A) (A) (A)
                 (A) (A) (A) (A) (A) (A) (A) (A) (A) (A) (A) (A)
                 (A) (A) (A) (A) (A) (A) (A) (A) (A) (A) (A) (A)
                 (A) (A) (A) (A) (A) (A) (A) (A) (A) (A) (A) (A)
                 (A) (A) (A) (A) (A) (A) (A) (A) (A) (A) (A) (A)
                 (A) (A) (A) (A) (A) (A) (A) (A) (A) (A) (A) (A)
                 (A) (A) (A) (A) (A) (A) (A) (A) (A) (A) (A) (A)
                 (A) (A) (A) (A) (A) (A) (A) (A) (A) (A) (A) (A)
                 (A) (A) (A) (A) (A) (A) (A) (A) (A) (A) (A) (A)
                 (A) (A) (A) (A) (A) (A) (A) (A) (A) (A) (A) (A)
                 (A) (A) (A) (A) (A) (A) (A) (A) (A) (A) (A) (A)
                 (A) (A) (A) (A) (A) (A) (A) (A) (A) (A) (A) (A)
                 (A) (A) (A) (A) (A) (A) (A) (A) (A) (A) (A) (A)
                 (A) (A) (A) (A) (A) (A) (A) (A) (A) (A) (A) (A)
                 (A) (A) (A) (A) (A) (A) (A) (A) (A) (A) (A) (A)
                 (A) (A) (A) (A) (A) (A) (A) (A) (A) (A) (A) (A)
                 (A) (A) (A) (A) (A) (A) (A) (A) (A) (A) (A) (A)
                 (A) (A) (A) (A) (A) (A) (A) (A) (A) (A) (A) (A)
                 (A) (A) (A) (A) (A) (A) (A) (A) (A) (A) (A) (A)
                 (A) (A) (A) (A)
 The electronic state is 1-A.
 Alpha  occ. eigenvalues --  -14.46299 -10.33971 -10.33958 -10.33437 -10.29780
 Alpha  occ. eigenvalues --  -10.29671 -10.29585 -10.29494 -10.29459 -10.29246
 Alpha  occ. eigenvalues --  -10.29216 -10.29053 -10.28972 -10.28907 -10.28700
 Alpha  occ. eigenvalues --   -1.04143  -0.95553  -0.94035  -0.86373  -0.84870
 Alpha  occ. eigenvalues --   -0.83971  -0.83693  -0.80043  -0.72935  -0.71042
 Alpha  occ. eigenvalues --   -0.69504  -0.68936  -0.66035  -0.63010  -0.60426
 Alpha  occ. eigenvalues --   -0.57079  -0.56444  -0.54993  -0.53815  -0.53396
 Alpha  occ. eigenvalues --   -0.52324  -0.51371  -0.50898  -0.50203  -0.49397
 Alpha  occ. eigenvalues --   -0.46640  -0.46247  -0.46098  -0.44321  -0.43909
 Alpha  occ. eigenvalues --   -0.43154  -0.42464  -0.41823  -0.38258  -0.33662
 Alpha  occ. eigenvalues --   -0.33316  -0.32982  -0.26055
 Alpha virt. eigenvalues --    0.05461   0.05895   0.07342   0.09121   0.13540
 Alpha virt. eigenvalues --    0.15076   0.16081   0.17319   0.18729   0.18828
 Alpha virt. eigenvalues --    0.19973   0.20245   0.21511   0.22014   0.22431
 Alpha virt. eigenvalues --    0.23586   0.23903   0.24210   0.25700   0.25986
 Alpha virt. eigenvalues --    0.26641   0.27979   0.31168   0.32016   0.34645
 Alpha virt. eigenvalues --    0.36725   0.37547   0.37890   0.38021   0.40722
 Alpha virt. eigenvalues --    0.41176   0.41780   0.43545   0.44121   0.45055
 Alpha virt. eigenvalues --    0.47495   0.48509   0.49786   0.49870   0.50583
 Alpha virt. eigenvalues --    0.52152   0.53048   0.53526   0.54531   0.55013
 Alpha virt. eigenvalues --    0.57229   0.57398   0.57913   0.58286   0.58632
 Alpha virt. eigenvalues --    0.59379   0.59652   0.61606   0.62261   0.64324
 Alpha virt. eigenvalues --    0.65217   0.65811   0.66782   0.67233   0.68731
 Alpha virt. eigenvalues --    0.69268   0.70627   0.72640   0.72934   0.73941
 Alpha virt. eigenvalues --    0.74175   0.74551   0.74801   0.75684   0.76516
 Alpha virt. eigenvalues --    0.77082   0.77469   0.78383   0.78619   0.79344
 Alpha virt. eigenvalues --    0.79722   0.80228   0.81541   0.81718   0.83609
 Alpha virt. eigenvalues --    0.84030   0.84577   0.85283   0.85346   0.87193
 Alpha virt. eigenvalues --    0.88184   0.88724   0.89706   0.91302   0.92737
 Alpha virt. eigenvalues --    0.93679   0.97182   0.98127   0.99927   1.01289
 Alpha virt. eigenvalues --    1.02831   1.04338   1.08224   1.11525   1.15030
 Alpha virt. eigenvalues --    1.17375   1.17433   1.19076   1.22219   1.26159
 Alpha virt. eigenvalues --    1.27383   1.29396   1.31489   1.33071   1.33734
 Alpha virt. eigenvalues --    1.34984   1.35846   1.37086   1.37659   1.38755
 Alpha virt. eigenvalues --    1.39195   1.39949   1.40646   1.41520   1.43796
 Alpha virt. eigenvalues --    1.45883   1.47807   1.56558   1.60105   1.62465
 Alpha virt. eigenvalues --    1.62999   1.66917   1.71171   1.74948   1.76188
 Alpha virt. eigenvalues --    1.76843   1.77912   1.79140   1.80598   1.81118
 Alpha virt. eigenvalues --    1.81985   1.83767   1.84294   1.84879   1.85288
 Alpha virt. eigenvalues --    1.86299   1.86610   1.86961   1.87191   1.88063
 Alpha virt. eigenvalues --    1.88792   1.89778   1.90180   1.90632   1.91497
 Alpha virt. eigenvalues --    1.92632   1.93601   1.94467   1.95181   1.95755
 Alpha virt. eigenvalues --    1.98422   1.99301   2.01710   2.04389   2.04535
 Alpha virt. eigenvalues --    2.05202   2.05719   2.08097   2.09060   2.10227
 Alpha virt. eigenvalues --    2.11318   2.12159   2.14432   2.14725   2.15012
 Alpha virt. eigenvalues --    2.18929   2.21950   2.23131   2.24333   2.25855
 Alpha virt. eigenvalues --    2.26518   2.26885   2.28735   2.29050   2.30157
 Alpha virt. eigenvalues --    2.35390   2.37404   2.38462   2.39184   2.41045
 Alpha virt. eigenvalues --    2.41415   2.41820   2.44472   2.44976   2.46001
 Alpha virt. eigenvalues --    2.46196   2.48970   2.49448   2.51486   2.57264
 Alpha virt. eigenvalues --    2.58713   2.64476   2.65778   2.69030   2.70361
 Alpha virt. eigenvalues --    2.71173   2.71586   2.74453   2.75391   2.76083
 Alpha virt. eigenvalues --    2.77610   2.79757   2.84844   2.85098   2.85577
 Alpha virt. eigenvalues --    2.86011   2.88377   2.92328   2.95446   2.97860
 Alpha virt. eigenvalues --    2.99586   3.01052   3.01692   3.04312   3.04602
 Alpha virt. eigenvalues --    3.06745   3.12023   3.16066   3.16897   3.24841
 Alpha virt. eigenvalues --    3.25187   3.29098   3.30369   3.40515   3.48145
 Alpha virt. eigenvalues --    3.78904   3.80559
          Condensed to atoms (all electrons):
               1          2          3          4          5          6
     1  C    4.569976   0.443731  -0.059728  -0.001732  -0.002684   0.000070
     2  C    0.443731   4.525386   0.304386  -0.047982   0.002623  -0.000447
     3  N   -0.059728   0.304386   6.873985   0.317335  -0.083206   0.008874
     4  C   -0.001732  -0.047982   0.317335   5.103235   0.268050   0.119220
     5  C   -0.002684   0.002623  -0.083206   0.268050   5.178384   0.267465
     6  C    0.000070  -0.000447   0.008874   0.119220   0.267465   5.057922
     7  C   -0.000010   0.000093  -0.000537  -0.167420   0.089423   0.278509
     8  C    0.000029  -0.000102   0.009056   0.122566  -0.152511   0.102468
     9  C   -0.000670   0.003567  -0.077394   0.272338   0.062855  -0.151877
    10  C   -0.002629  -0.041931   0.306691  -0.046921   0.005342  -0.000201
    11  C   -0.007913   0.004267  -0.085771   0.006082  -0.000554   0.000005
    12  C   -0.000311  -0.000137   0.008791  -0.000131   0.000001  -0.000000
    13  C   -0.000020   0.000086  -0.000690   0.000030   0.000000  -0.000000
    14  C    0.000057  -0.000399   0.009471  -0.000182  -0.000062   0.000005
    15  C   -0.000318   0.006378  -0.083558  -0.005619   0.000817   0.000047
    16  H    0.391844  -0.019735  -0.000055   0.000857  -0.000460  -0.000006
    17  H    0.381418  -0.018305   0.006135   0.000048  -0.000080   0.000004
    18  H    0.393407  -0.010819  -0.010805  -0.000323   0.000152  -0.000002
    19  H   -0.026603   0.390877  -0.018467  -0.010285   0.004688   0.001283
    20  H   -0.036055   0.384532  -0.020418   0.005300   0.000447   0.000017
    21  H   -0.003073   0.007291  -0.014347  -0.072483   0.456092  -0.072624
    22  H    0.000004  -0.000019  -0.000125   0.015439  -0.066321   0.451149
    23  H    0.000000   0.000000   0.000009  -0.001657   0.014836  -0.070003
    24  H   -0.000000   0.000004  -0.000128   0.015394  -0.002128   0.014371
    25  H   -0.000003  -0.000097  -0.012827  -0.068749   0.016429  -0.002524
    26  H   -0.003349   0.008097  -0.014958  -0.000243  -0.000006   0.000000
    27  H   -0.000006  -0.000020  -0.000104   0.000007  -0.000000   0.000000
    28  H    0.000001  -0.000000   0.000009   0.000001   0.000000  -0.000000
    29  H   -0.000001   0.000009  -0.000128  -0.000021   0.000001  -0.000000
    30  H    0.000057  -0.000114  -0.015350   0.006215  -0.000992   0.000044
               7          8          9         10         11         12
     1  C   -0.000010   0.000029  -0.000670  -0.002629  -0.007913  -0.000311
     2  C    0.000093  -0.000102   0.003567  -0.041931   0.004267  -0.000137
     3  N   -0.000537   0.009056  -0.077394   0.306691  -0.085771   0.008791
     4  C   -0.167420   0.122566   0.272338  -0.046921   0.006082  -0.000131
     5  C    0.089423  -0.152511   0.062855   0.005342  -0.000554   0.000001
     6  C    0.278509   0.102468  -0.151877  -0.000201   0.000005  -0.000000
     7  C    5.111375   0.269950   0.090688   0.000034   0.000001  -0.000000
     8  C    0.269950   5.067463   0.268714  -0.000062  -0.000051   0.000003
     9  C    0.090688   0.268714   5.173991  -0.007001   0.000653   0.000005
    10  C    0.000034  -0.000062  -0.007001   5.108970   0.253754   0.119089
    11  C    0.000001  -0.000051   0.000653   0.253754   5.197277   0.269732
    12  C   -0.000000   0.000003   0.000005   0.119089   0.269732   5.054879
    13  C    0.000000  -0.000003   0.000002  -0.167205   0.090094   0.278487
    14  C   -0.000004   0.000042  -0.000835   0.121751  -0.155339   0.104509
    15  C    0.000038  -0.001524  -0.005808   0.276886   0.067129  -0.153965
    16  H    0.000004  -0.000001  -0.000080  -0.000947  -0.000092   0.000064
    17  H    0.000000  -0.000001   0.000022  -0.000303  -0.000178   0.000016
    18  H   -0.000000   0.000000  -0.000016   0.009373   0.005848  -0.001310
    19  H   -0.000129  -0.000023  -0.000021   0.007316   0.000456  -0.000050
    20  H   -0.000001  -0.000021   0.000366  -0.018832   0.003774   0.001460
    21  H    0.015533  -0.002702   0.016708  -0.000406  -0.000009   0.000001
    22  H   -0.071167   0.014221  -0.002062   0.000008  -0.000000   0.000000
    23  H    0.452989  -0.070125   0.014832   0.000001   0.000000  -0.000000
    24  H   -0.072430   0.453433  -0.067755  -0.000021   0.000000  -0.000000
    25  H    0.014855  -0.070634   0.460465   0.004694  -0.000826   0.000020
    26  H    0.000000  -0.000000  -0.000025  -0.076053   0.457677  -0.070692
    27  H    0.000000  -0.000000  -0.000001   0.015716  -0.067974   0.452495
    28  H   -0.000000  -0.000000   0.000000  -0.001596   0.015001  -0.070537
    29  H   -0.000000   0.000002   0.000045   0.015320  -0.002007   0.014274
    30  H    0.000044  -0.000655   0.002954  -0.067290   0.016183  -0.002536
              13         14         15         16         17         18
     1  C   -0.000020   0.000057  -0.000318   0.391844   0.381418   0.393407
     2  C    0.000086  -0.000399   0.006378  -0.019735  -0.018305  -0.010819
     3  N   -0.000690   0.009471  -0.083558  -0.000055   0.006135  -0.010805
     4  C    0.000030  -0.000182  -0.005619   0.000857   0.000048  -0.000323
     5  C    0.000000  -0.000062   0.000817  -0.000460  -0.000080   0.000152
     6  C   -0.000000   0.000005   0.000047  -0.000006   0.000004  -0.000002
     7  C    0.000000  -0.000004   0.000038   0.000004   0.000000  -0.000000
     8  C   -0.000003   0.000042  -0.001524  -0.000001  -0.000001   0.000000
     9  C    0.000002  -0.000835  -0.005808  -0.000080   0.000022  -0.000016
    10  C   -0.167205   0.121751   0.276886  -0.000947  -0.000303   0.009373
    11  C    0.090094  -0.155339   0.067129  -0.000092  -0.000178   0.005848
    12  C    0.278487   0.104509  -0.153965   0.000064   0.000016  -0.001310
    13  C    5.115053   0.269757   0.090039  -0.000009   0.000001   0.000055
    14  C    0.269757   5.063242   0.271893   0.000014   0.000002  -0.000120
    15  C    0.090039   0.271893   5.178437  -0.000110  -0.000031  -0.000185
    16  H   -0.000009   0.000014  -0.000110   0.632632  -0.019043  -0.020716
    17  H    0.000001   0.000002  -0.000031  -0.019043   0.639561  -0.021343
    18  H    0.000055  -0.000120  -0.000185  -0.020716  -0.021343   0.615677
    19  H    0.000004   0.000006  -0.000246  -0.009164  -0.003973   0.006866
    20  H   -0.000074   0.000083  -0.000622   0.007774  -0.000999  -0.010333
    21  H    0.000000   0.000001  -0.000024   0.003410   0.000188  -0.000203
    22  H    0.000000  -0.000000  -0.000002  -0.000003  -0.000000   0.000000
    23  H    0.000000  -0.000000  -0.000000  -0.000000  -0.000000  -0.000000
    24  H   -0.000000   0.000002   0.000038   0.000000   0.000000  -0.000000
    25  H    0.000009  -0.000378   0.002731  -0.000003   0.000000  -0.000001
    26  H    0.015823  -0.002603   0.016747  -0.000026   0.000134   0.000888
    27  H   -0.071648   0.014327  -0.002061   0.000001   0.000000   0.000012
    28  H    0.452908  -0.070570   0.014995  -0.000000  -0.000000  -0.000002
    29  H   -0.072388   0.452985  -0.067718  -0.000000  -0.000000  -0.000000
    30  H    0.014934  -0.071441   0.460327  -0.000005  -0.000002  -0.000012
              19         20         21         22         23         24
     1  C   -0.026603  -0.036055  -0.003073   0.000004   0.000000  -0.000000
     2  C    0.390877   0.384532   0.007291  -0.000019   0.000000   0.000004
     3  N   -0.018467  -0.020418  -0.014347  -0.000125   0.000009  -0.000128
     4  C   -0.010285   0.005300  -0.072483   0.015439  -0.001657   0.015394
     5  C    0.004688   0.000447   0.456092  -0.066321   0.014836  -0.002128
     6  C    0.001283   0.000017  -0.072624   0.451149  -0.070003   0.014371
     7  C   -0.000129  -0.000001   0.015533  -0.071167   0.452989  -0.072430
     8  C   -0.000023  -0.000021  -0.002702   0.014221  -0.070125   0.453433
     9  C   -0.000021   0.000366   0.016708  -0.002062   0.014832  -0.067755
    10  C    0.007316  -0.018832  -0.000406   0.000008   0.000001  -0.000021
    11  C    0.000456   0.003774  -0.000009  -0.000000   0.000000   0.000000
    12  C   -0.000050   0.001460   0.000001   0.000000  -0.000000  -0.000000
    13  C    0.000004  -0.000074   0.000000   0.000000   0.000000  -0.000000
    14  C    0.000006   0.000083   0.000001  -0.000000  -0.000000   0.000002
    15  C   -0.000246  -0.000622  -0.000024  -0.000002  -0.000000   0.000038
    16  H   -0.009164   0.007774   0.003410  -0.000003  -0.000000   0.000000
    17  H   -0.003973  -0.000999   0.000188  -0.000000  -0.000000   0.000000
    18  H    0.006866  -0.010333  -0.000203   0.000000  -0.000000  -0.000000
    19  H    0.639158  -0.022672  -0.001928   0.000039  -0.000001   0.000001
    20  H   -0.022672   0.670954   0.000301  -0.000001  -0.000000   0.000000
    21  H   -0.001928   0.000301   0.689709  -0.013649  -0.000239   0.000023
    22  H    0.000039  -0.000001  -0.013649   0.675335  -0.012369  -0.000266
    23  H   -0.000001  -0.000000  -0.000239  -0.012369   0.676516  -0.012355
    24  H    0.000001   0.000000   0.000023  -0.000266  -0.012355   0.672780
    25  H   -0.000040   0.000012  -0.000178   0.000020  -0.000227  -0.012597
    26  H   -0.000100  -0.002383  -0.000005  -0.000000   0.000000  -0.000000
    27  H   -0.000000   0.000046  -0.000000  -0.000000   0.000000   0.000000
    28  H   -0.000000   0.000000   0.000000   0.000000  -0.000000   0.000000
    29  H   -0.000000  -0.000000  -0.000000   0.000000   0.000000  -0.000000
    30  H   -0.000007  -0.000034  -0.000035  -0.000004   0.000000   0.000019
              25         26         27         28         29         30
     1  C   -0.000003  -0.003349  -0.000006   0.000001  -0.000001   0.000057
     2  C   -0.000097   0.008097  -0.000020  -0.000000   0.000009  -0.000114
     3  N   -0.012827  -0.014958  -0.000104   0.000009  -0.000128  -0.015350
     4  C   -0.068749  -0.000243   0.000007   0.000001  -0.000021   0.006215
     5  C    0.016429  -0.000006  -0.000000   0.000000   0.000001  -0.000992
     6  C   -0.002524   0.000000   0.000000  -0.000000  -0.000000   0.000044
     7  C    0.014855   0.000000   0.000000  -0.000000  -0.000000   0.000044
     8  C   -0.070634  -0.000000  -0.000000  -0.000000   0.000002  -0.000655
     9  C    0.460465  -0.000025  -0.000001   0.000000   0.000045   0.002954
    10  C    0.004694  -0.076053   0.015716  -0.001596   0.015320  -0.067290
    11  C   -0.000826   0.457677  -0.067974   0.015001  -0.002007   0.016183
    12  C    0.000020  -0.070692   0.452495  -0.070537   0.014274  -0.002536
    13  C    0.000009   0.015823  -0.071648   0.452908  -0.072388   0.014934
    14  C   -0.000378  -0.002603   0.014327  -0.070570   0.452985  -0.071441
    15  C    0.002731   0.016747  -0.002061   0.014995  -0.067718   0.460327
    16  H   -0.000003  -0.000026   0.000001  -0.000000  -0.000000  -0.000005
    17  H    0.000000   0.000134   0.000000  -0.000000  -0.000000  -0.000002
    18  H   -0.000001   0.000888   0.000012  -0.000002  -0.000000  -0.000012
    19  H   -0.000040  -0.000100  -0.000000  -0.000000  -0.000000  -0.000007
    20  H    0.000012  -0.002383   0.000046   0.000000  -0.000000  -0.000034
    21  H   -0.000178  -0.000005  -0.000000   0.000000  -0.000000  -0.000035
    22  H    0.000020  -0.000000  -0.000000   0.000000   0.000000  -0.000004
    23  H   -0.000227   0.000000   0.000000  -0.000000   0.000000   0.000000
    24  H   -0.012597  -0.000000   0.000000   0.000000  -0.000000   0.000019
    25  H    0.657034  -0.000014  -0.000003   0.000000   0.000019  -0.002559
    26  H   -0.000014   0.698438  -0.013998  -0.000255   0.000023  -0.000170
    27  H   -0.000003  -0.013998   0.677144  -0.012405  -0.000268   0.000018
    28  H    0.000000  -0.000255  -0.012405   0.679395  -0.012377  -0.000235
    29  H    0.000019   0.000023  -0.000268  -0.012377   0.674889  -0.012735
    30  H   -0.002559  -0.000170   0.000018  -0.000235  -0.012735   0.656287
 Mulliken charges:
               1
     1  C   -0.035486
     2  C    0.058782
     3  N   -0.346145
     4  C    0.171631
     5  C   -0.058601
     6  C   -0.003770
     7  C   -0.011837
     8  C   -0.009535
     9  C   -0.054660
    10  C    0.186451
    11  C   -0.067219
    12  C   -0.004155
    13  C   -0.015246
    14  C   -0.006214
    15  C   -0.064709
    16  H    0.033855
    17  H    0.036727
    18  H    0.043912
    19  H    0.043017
    20  H    0.037379
    21  H   -0.007351
    22  H    0.009773
    23  H    0.007793
    24  H    0.011615
    25  H    0.015375
    26  H   -0.012947
    27  H    0.008722
    28  H    0.005669
    29  H    0.010076
    30  H    0.017095
 Sum of Mulliken charges =  -0.00000
 Mulliken charges with hydrogens summed into heavy atoms:
               1
     1  C    0.079009
     2  C    0.139178
     3  N   -0.346145
     4  C    0.171631
     5  C   -0.065952
     6  C    0.006004
     7  C   -0.004044
     8  C    0.002080
     9  C   -0.039285
    10  C    0.186451
    11  C   -0.080166
    12  C    0.004567
    13  C   -0.009577
    14  C    0.003862
    15  C   -0.047614
 Electronic spatial extent (au):  <R**2>=           3400.2045
 Charge=             -0.0000 electrons
 Dipole moment (field-independent basis, Debye):
    X=              0.1370    Y=              0.9107    Z=             -0.0468  Tot=              0.9222
 Quadrupole moment (field-independent basis, Debye-Ang):
   XX=            -84.3580   YY=            -81.8350   ZZ=            -91.1267
   XY=             -0.2312   XZ=              2.7520   YZ=             -1.2332
 Traceless Quadrupole moment (field-independent basis, Debye-Ang):
   XX=              1.4152   YY=              3.9382   ZZ=             -5.3535
   XY=             -0.2312   XZ=              2.7520   YZ=             -1.2332
 Octapole moment (field-independent basis, Debye-Ang**2):
  XXX=              0.4493  YYY=              6.8892  ZZZ=             -0.2804  XYY=              3.6351
  XXY=             -6.0151  XXZ=              2.4354  XZZ=             -2.5162  YZZ=              2.6202
  YYZ=             -0.3108  XYZ=             12.7423
 Hexadecapole moment (field-independent basis, Debye-Ang**3):
 XXXX=          -2957.2345 YYYY=          -1205.3304 ZZZZ=           -314.4069 XXXY=              0.8217
 XXXZ=             70.5906 YYYX=             -6.4368 YYYZ=             -8.9790 ZZZX=              6.4652
 ZZZY=             -5.3494 XXYY=           -700.0998 XXZZ=           -602.7405 YYZZ=           -249.8084
 XXYZ=             -4.9245 YYXZ=            -17.7327 ZZXY=              1.8504
 N-N= 9.310460787758D+02 E-N=-3.242519861364D+03  KE= 5.902572075007D+02
   1 Symmetry operations used in ECPInt.
 ECPInt:  NShTT=    9180 NPrTT=   32880 LenC2=    8775 LenP2D=   23159.
 LDataN:  DoStor=T MaxTD1= 5 Len=  102
 Calling FoFJK, ICntrl=      2127 FMM=F ISym2X=0 I1Cent= 0 IOpClX= 0 NMat=1 NMatS=1 NMatT=0.
 ***** Axes restored to original set *****
 -------------------------------------------------------------------
 Center     Atomic                   Forces (Hartrees/Bohr)
 Number     Number              X              Y              Z
 -------------------------------------------------------------------
      1        6          -0.000698140    0.002346182    0.000881615
      2        6          -0.000883329   -0.016005721    0.003165503
      3        7           0.004048915   -0.001936428   -0.001333558
      4        6          -0.022295839    0.007040603   -0.000005668
      5        6          -0.009504169    0.003048947   -0.000658164
      6        6           0.003510347   -0.001887594   -0.001883438
      7        6           0.007076315   -0.002194566    0.001494743
      8        6           0.000616348   -0.000838537    0.001157956
      9        6          -0.004815182    0.003553796   -0.002550631
     10        6           0.023412081    0.010311210   -0.003080315
     11        6           0.008537101    0.004909265   -0.002045583
     12        6          -0.002061268   -0.002428793    0.002291435
     13        6          -0.007866931   -0.003318918   -0.000059500
     14        6          -0.000322428   -0.000463213   -0.001291972
     15        6           0.004311092    0.002525539    0.002083912
     16        1           0.004464909   -0.001499805    0.004469513
     17        1           0.000169638    0.005282221   -0.002688668
     18        1          -0.005878911   -0.001783089    0.000727721
     19        1           0.002424671   -0.001596079    0.000172568
     20        1          -0.004009709    0.002862880   -0.003810596
     21        1          -0.000650443    0.010460809    0.005070626
     22        1           0.007337498    0.005293214    0.004947640
     23        1           0.009193906   -0.004588290    0.000920890
     24        1           0.000771118   -0.009302316   -0.004469249
     25        1          -0.007948770   -0.005722526   -0.005342603
     26        1          -0.001042891    0.009378321   -0.006600575
     27        1          -0.008217908    0.003781107   -0.004891516
     28        1          -0.008840882   -0.005126206    0.001443697
     29        1           0.000729797   -0.008063083    0.006407973
     30        1           0.008433067   -0.004038928    0.005476247
 -------------------------------------------------------------------
 Cartesian Forces:  Max     0.023412081 RMS     0.006018558

 GradGradGradGradGradGradGradGradGradGradGradGradGradGradGradGradGradGrad
 Berny optimization.
 FormGI is forming the generalized inverse of G from B-inverse, IUseBI=4.
 Internal  Forces:  Max     0.018383411 RMS     0.005335316
 Search for a local minimum.
 Step number   1 out of a maximum of  163
 All quantities printed in internal units (Hartrees-Bohrs-Radians)
 Mixed Optimization -- RFO/linear search
 Second derivative matrix not updated -- first step.
 ITU=  0
     Eigenvalues ---    0.00592   0.00699   0.01060   0.01281   0.01318
     Eigenvalues ---    0.01890   0.01900   0.02180   0.02182   0.02260
     Eigenvalues ---    0.02262   0.02282   0.02284   0.02332   0.02332
     Eigenvalues ---    0.02334   0.02339   0.02352   0.02355   0.02365
     Eigenvalues ---    0.02366   0.02371   0.02373   0.04171   0.05396
     Eigenvalues ---    0.05513   0.05686   0.09528   0.12881   0.15995
     Eigenvalues ---    0.15997   0.15998   0.15998   0.16000   0.16000
     Eigenvalues ---    0.16000   0.16000   0.16000   0.16000   0.16000
     Eigenvalues ---    0.16000   0.16000   0.21855   0.22000   0.22000
     Eigenvalues ---    0.22000   0.22000   0.23465   0.23468   0.24944
     Eigenvalues ---    0.24962   0.24993   0.25000   0.31034   0.34238
     Eigenvalues ---    0.34324   0.34553   0.34678   0.34686   0.35142
     Eigenvalues ---    0.36240   0.36244   0.36246   0.36249   0.36251
     Eigenvalues ---    0.36252   0.36465   0.36497   0.36521   0.36596
     Eigenvalues ---    0.40842   0.41238   0.43031   0.43035   0.43702
     Eigenvalues ---    0.43725   0.47282   0.47292   0.47889   0.47924
     Eigenvalues ---    0.49046   0.49085   0.49668   0.49683
 RFO step:  Lambda=-1.11203233D-02 EMin= 5.91707981D-03
 Linear search not attempted -- first point.
 Iteration  1 RMS(Cart)=  0.05403597 RMS(Int)=  0.00067814
 Iteration  2 RMS(Cart)=  0.00145174 RMS(Int)=  0.00007362
 Iteration  3 RMS(Cart)=  0.00000144 RMS(Int)=  0.00007362
 Iteration  4 RMS(Cart)=  0.00000000 RMS(Int)=  0.00007362
 Variable       Old X    -DE/DX   Delta X   Delta X   Delta X     New X
                                 (Linear)    (Quad)   (Total)
    R1        2.85948   0.00552   0.00000   0.01719   0.01719   2.87667
    R2        2.06188   0.00638   0.00000   0.01783   0.01783   2.07971
    R3        2.06406   0.00562   0.00000   0.01575   0.01575   2.07981
    R4        2.06200   0.00615   0.00000   0.01719   0.01719   2.07919
    R5        2.78744  -0.01057   0.00000  -0.02915  -0.02915   2.75829
    R6        2.06931   0.00169   0.00000   0.00477   0.00477   2.07408
    R7        2.06786   0.00583   0.00000   0.01645   0.01645   2.08431
    R8        2.70425  -0.01718   0.00000  -0.04095  -0.04095   2.66330
    R9        2.69905  -0.01838   0.00000  -0.04341  -0.04341   2.65564
   R10        2.63653   0.00796   0.00000   0.01624   0.01625   2.65277
   R11        2.63614   0.00942   0.00000   0.01933   0.01933   2.65547
   R12        2.60233   0.01657   0.00000   0.03263   0.03263   2.63495
   R13        2.03275   0.01160   0.00000   0.03081   0.03081   2.06356
   R14        2.61068   0.01203   0.00000   0.02456   0.02455   2.63523
   R15        2.03701   0.01029   0.00000   0.02753   0.02753   2.06454
   R16        2.61038   0.01410   0.00000   0.02869   0.02868   2.63906
   R17        2.03691   0.01032   0.00000   0.02761   0.02761   2.06451
   R18        2.60143   0.01505   0.00000   0.02962   0.02961   2.63104
   R19        2.03694   0.01032   0.00000   0.02761   0.02761   2.06455
   R20        2.03360   0.01113   0.00000   0.02961   0.02961   2.06321
   R21        2.63691   0.00863   0.00000   0.01776   0.01775   2.65467
   R22        2.63642   0.01124   0.00000   0.02330   0.02329   2.65971
   R23        2.60267   0.01630   0.00000   0.03207   0.03207   2.63474
   R24        2.03159   0.01147   0.00000   0.03041   0.03041   2.06200
   R25        2.61009   0.01200   0.00000   0.02433   0.02435   2.63444
   R26        2.03708   0.01025   0.00000   0.02743   0.02743   2.06450
   R27        2.60966   0.01431   0.00000   0.02900   0.02900   2.63867
   R28        2.03690   0.01032   0.00000   0.02762   0.02762   2.06452
   R29        2.60142   0.01477   0.00000   0.02912   0.02912   2.63054
   R30        2.03698   0.01028   0.00000   0.02753   0.02753   2.06451
   R31        2.03312   0.01076   0.00000   0.02862   0.02862   2.06174
    A1        1.93731  -0.00094   0.00000  -0.00435  -0.00438   1.93293
    A2        1.95806  -0.00243   0.00000  -0.01618  -0.01623   1.94183
    A3        1.93802   0.00007   0.00000   0.00123   0.00122   1.93925
    A4        1.88110   0.00160   0.00000   0.00782   0.00776   1.88885
    A5        1.86590   0.00099   0.00000   0.00955   0.00956   1.87546
    A6        1.87963   0.00096   0.00000   0.00351   0.00348   1.88312
    A7        1.95833   0.00556   0.00000   0.02469   0.02467   1.98300
    A8        1.93703  -0.00051   0.00000  -0.00412  -0.00401   1.93302
    A9        1.94349  -0.00306   0.00000  -0.01273  -0.01297   1.93052
   A10        1.89321  -0.00373   0.00000  -0.02611  -0.02600   1.86721
   A11        1.89577   0.00009   0.00000   0.01229   0.01228   1.90805
   A12        1.83085   0.00131   0.00000   0.00435   0.00437   1.83522
   A13        2.07026   0.00211   0.00000   0.00824   0.00823   2.07849
   A14        2.08345  -0.00261   0.00000  -0.00985  -0.00986   2.07359
   A15        2.12724   0.00050   0.00000   0.00209   0.00208   2.12933
   A16        2.11985  -0.00347   0.00000  -0.01247  -0.01259   2.10726
   A17        2.09939   0.00170   0.00000   0.00733   0.00719   2.10657
   A18        2.06394   0.00177   0.00000   0.00503   0.00491   2.06885
   A19        2.10704  -0.00049   0.00000  -0.00305  -0.00305   2.10398
   A20        2.08170   0.00128   0.00000   0.00762   0.00760   2.08931
   A21        2.09416  -0.00078   0.00000  -0.00437  -0.00439   2.08977
   A22        2.09779   0.00142   0.00000   0.00723   0.00722   2.10500
   A23        2.09296  -0.00144   0.00000  -0.00790  -0.00791   2.08504
   A24        2.09244   0.00002   0.00000   0.00064   0.00062   2.09305
   A25        2.09223  -0.00352   0.00000  -0.01308  -0.01309   2.07914
   A26        2.09548   0.00165   0.00000   0.00591   0.00591   2.10139
   A27        2.09548   0.00187   0.00000   0.00717   0.00717   2.10265
   A28        2.09580   0.00182   0.00000   0.00904   0.00901   2.10481
   A29        2.09371  -0.00017   0.00000  -0.00021  -0.00024   2.09347
   A30        2.09367  -0.00165   0.00000  -0.00886  -0.00888   2.08479
   A31        2.10957  -0.00100   0.00000  -0.00517  -0.00516   2.10441
   A32        2.07295   0.00134   0.00000   0.00750   0.00750   2.08045
   A33        2.10056  -0.00034   0.00000  -0.00229  -0.00230   2.09827
   A34        2.12572  -0.00606   0.00000  -0.02267  -0.02269   2.10303
   A35        2.09682   0.00467   0.00000   0.01844   0.01839   2.11521
   A36        2.06043   0.00139   0.00000   0.00387   0.00379   2.06422
   A37        2.10855  -0.00053   0.00000  -0.00318  -0.00321   2.10534
   A38        2.08684   0.00123   0.00000   0.00728   0.00728   2.09412
   A39        2.08769  -0.00070   0.00000  -0.00400  -0.00400   2.08369
   A40        2.09849   0.00201   0.00000   0.00935   0.00935   2.10784
   A41        2.09280  -0.00191   0.00000  -0.00996  -0.00997   2.08283
   A42        2.09189  -0.00010   0.00000   0.00060   0.00060   2.09249
   A43        2.09109  -0.00391   0.00000  -0.01527  -0.01527   2.07582
   A44        2.09608   0.00183   0.00000   0.00687   0.00685   2.10293
   A45        2.09601   0.00209   0.00000   0.00839   0.00838   2.10440
   A46        2.09563   0.00238   0.00000   0.01139   0.01136   2.10700
   A47        2.09375  -0.00032   0.00000  -0.00062  -0.00063   2.09311
   A48        2.09380  -0.00206   0.00000  -0.01080  -0.01082   2.08298
   A49        2.11216  -0.00134   0.00000  -0.00624  -0.00627   2.10589
   A50        2.07437   0.00193   0.00000   0.01056   0.01057   2.08493
   A51        2.09649  -0.00059   0.00000  -0.00419  -0.00419   2.09230
    D1        1.02057  -0.00065   0.00000  -0.00505  -0.00503   1.01554
    D2       -1.10071   0.00062   0.00000   0.01421   0.01420  -1.08650
    D3       -3.13339   0.00123   0.00000   0.01932   0.01925  -3.11414
    D4        3.12630  -0.00093   0.00000  -0.00922  -0.00917   3.11713
    D5        1.00502   0.00034   0.00000   0.01004   0.01006   1.01508
    D6       -1.02766   0.00095   0.00000   0.01515   0.01511  -1.01255
    D7       -1.05253  -0.00133   0.00000  -0.01499  -0.01494  -1.06747
    D8        3.10938  -0.00005   0.00000   0.00427   0.00429   3.11367
    D9        1.07670   0.00055   0.00000   0.00938   0.00934   1.08603
   D10       -1.92951   0.00012   0.00000   0.02249   0.02266  -1.90685
   D11        1.14174   0.00030   0.00000   0.03012   0.03029   1.17203
   D12        0.21666   0.00054   0.00000   0.01528   0.01526   0.23192
   D13       -2.99527   0.00072   0.00000   0.02291   0.02288  -2.97239
   D14        2.19748   0.00020   0.00000   0.01327   0.01313   2.21061
   D15       -1.01445   0.00038   0.00000   0.02091   0.02076  -0.99370
   D16        0.62797   0.00065   0.00000   0.03334   0.03340   0.66136
   D17       -2.50931   0.00155   0.00000   0.06359   0.06357  -2.44574
   D18       -2.44143   0.00059   0.00000   0.02599   0.02601  -2.41543
   D19        0.70447   0.00149   0.00000   0.05625   0.05619   0.76065
   D20        0.51742   0.00035   0.00000   0.01726   0.01729   0.53471
   D21       -2.60135   0.00089   0.00000   0.03593   0.03593  -2.56542
   D22       -2.69689   0.00060   0.00000   0.02538   0.02538  -2.67151
   D23        0.46752   0.00114   0.00000   0.04405   0.04402   0.51155
   D24       -3.14011   0.00096   0.00000   0.03056   0.03037  -3.10974
   D25        0.02718   0.00066   0.00000   0.02160   0.02142   0.04860
   D26       -0.00274   0.00008   0.00000   0.00091   0.00084  -0.00190
   D27       -3.11864  -0.00022   0.00000  -0.00805  -0.00811  -3.12675
   D28        3.13957  -0.00047   0.00000  -0.01585  -0.01609   3.12348
   D29        0.01291  -0.00057   0.00000  -0.01924  -0.01944  -0.00652
   D30        0.00215   0.00042   0.00000   0.01349   0.01347   0.01563
   D31       -3.12450   0.00031   0.00000   0.01009   0.01013  -3.11438
   D32        0.00182  -0.00049   0.00000  -0.01348  -0.01354  -0.01172
   D33       -3.13656  -0.00011   0.00000  -0.00261  -0.00263  -3.13919
   D34        3.11754  -0.00015   0.00000  -0.00428  -0.00441   3.11312
   D35       -0.02084   0.00023   0.00000   0.00660   0.00650  -0.01435
   D36       -0.00024   0.00040   0.00000   0.01178   0.01179   0.01155
   D37        3.14146   0.00025   0.00000   0.00721   0.00724  -3.13449
   D38        3.13814   0.00001   0.00000   0.00089   0.00082   3.13895
   D39       -0.00335  -0.00013   0.00000  -0.00368  -0.00373  -0.00708
   D40       -0.00035   0.00010   0.00000   0.00254   0.00258   0.00223
   D41        3.13901  -0.00038   0.00000  -0.01161  -0.01164   3.12737
   D42        3.14114   0.00024   0.00000   0.00710   0.00713  -3.13492
   D43       -0.00269  -0.00024   0.00000  -0.00704  -0.00709  -0.00978
   D44       -0.00064  -0.00051   0.00000  -0.01530  -0.01532  -0.01596
   D45        3.12578  -0.00039   0.00000  -0.01177  -0.01185   3.11393
   D46       -3.13999  -0.00003   0.00000  -0.00117  -0.00118  -3.14117
   D47       -0.01357   0.00009   0.00000   0.00236   0.00228  -0.01129
   D48       -3.12555   0.00023   0.00000   0.00913   0.00888  -3.11667
   D49        0.03211   0.00000   0.00000   0.00220   0.00198   0.03409
   D50       -0.00632  -0.00026   0.00000  -0.00897  -0.00903  -0.01535
   D51       -3.13185  -0.00049   0.00000  -0.01590  -0.01593   3.13541
   D52        3.12549  -0.00001   0.00000   0.00071   0.00044   3.12594
   D53        0.00357  -0.00024   0.00000  -0.00687  -0.00709  -0.00353
   D54        0.00588   0.00062   0.00000   0.01905   0.01903   0.02491
   D55       -3.11605   0.00039   0.00000   0.01147   0.01150  -3.10455
   D56        0.00288  -0.00022   0.00000  -0.00542  -0.00550  -0.00262
   D57       -3.13726  -0.00004   0.00000  -0.00062  -0.00064  -3.13790
   D58        3.12840   0.00003   0.00000   0.00162   0.00146   3.12986
   D59       -0.01174   0.00021   0.00000   0.00642   0.00632  -0.00542
   D60        0.00119   0.00034   0.00000   0.01008   0.01010   0.01129
   D61        3.14134   0.00010   0.00000   0.00274   0.00278  -3.13906
   D62        3.14133   0.00016   0.00000   0.00528   0.00521  -3.13665
   D63       -0.00170  -0.00008   0.00000  -0.00207  -0.00211  -0.00381
   D64       -0.00164   0.00001   0.00000  -0.00010  -0.00004  -0.00168
   D65        3.13673  -0.00038   0.00000  -0.01151  -0.01154   3.12519
   D66        3.14139   0.00025   0.00000   0.00725   0.00729  -3.13451
   D67       -0.00343  -0.00014   0.00000  -0.00416  -0.00421  -0.00763
   D68       -0.00198  -0.00050   0.00000  -0.01470  -0.01470  -0.01668
   D69        3.11970  -0.00024   0.00000  -0.00686  -0.00697   3.11273
   D70       -3.14035  -0.00010   0.00000  -0.00331  -0.00329   3.13955
   D71       -0.01867   0.00016   0.00000   0.00453   0.00444  -0.01423
         Item               Value     Threshold  Converged?
 Maximum Force            0.018383     0.000450     NO 
 RMS     Force            0.005335     0.000300     NO 
 Maximum Displacement     0.200995     0.001800     NO 
 RMS     Displacement     0.054881     0.001200     NO 
 Predicted change in Energy=-5.836382D-03
 GradGradGradGradGradGradGradGradGradGradGradGradGradGradGradGradGradGrad

                          Input orientation:                          
 ---------------------------------------------------------------------
 Center     Atomic      Atomic             Coordinates (Angstroms)
 Number     Number       Type             X           Y           Z
 ---------------------------------------------------------------------
      1          6           0       -0.563180    2.989248    0.681959
      2          6           0       -0.060930    2.197927   -0.517562
      3          7           0        0.002190    0.758544   -0.283686
      4          6           0        1.262161    0.137891   -0.167284
      5          6           0        2.320822    0.781607    0.492630
      6          6           0        3.576335    0.180339    0.572619
      7          6           0        3.798754   -1.076512    0.010925
      8          6           0        2.749760   -1.722299   -0.647001
      9          6           0        1.497784   -1.121146   -0.745154
     10          6           0       -1.197206    0.048183   -0.105607
     11          6           0       -2.376823    0.470309   -0.741020
     12          6           0       -3.574720   -0.215014   -0.542797
     13          6           0       -3.627245   -1.334297    0.286610
     14          6           0       -2.461115   -1.753704    0.930002
     15          6           0       -1.262745   -1.069380    0.747442
     16          1           0        0.076714    2.814308    1.560084
     17          1           0       -0.571743    4.069606    0.472080
     18          1           0       -1.586264    2.689612    0.954156
     19          1           0        0.948765    2.521153   -0.801587
     20          1           0       -0.687109    2.396616   -1.403547
     21          1           0        2.155302    1.754261    0.960595
     22          1           0        4.387066    0.696176    1.092430
     23          1           0        4.782051   -1.547376    0.081349
     24          1           0        2.912765   -2.701396   -1.103493
     25          1           0        0.689269   -1.620027   -1.283170
     26          1           0       -2.359143    1.337045   -1.403666
     27          1           0       -4.478801    0.129521   -1.050208
     28          1           0       -4.567891   -1.869253    0.436811
     29          1           0       -2.487179   -2.619592    1.595658
     30          1           0       -0.365905   -1.392758    1.277952
 ---------------------------------------------------------------------
                    Distance matrix (angstroms):
                    1          2          3          4          5
     1  C    0.000000
     2  C    1.522266   0.000000
     3  N    2.495626   1.459625   0.000000
     4  C    3.490461   2.473260   1.409357   0.000000
     5  C    3.636893   2.949439   2.445251   1.403788   0.000000
     6  C    5.003749   4.299866   3.720496   2.429950   1.394358
     7  C    6.000597   5.089048   4.227071   2.817949   2.422588
     8  C    5.911039   4.825444   3.719640   2.429689   2.784294
     9  C    4.814516   3.673913   2.446015   1.405214   2.414534
    10  C    3.110002   2.466218   1.405303   2.461775   3.643120
    11  C    3.414560   2.897923   2.439659   3.698902   4.866895
    12  C    4.564723   4.262587   3.716079   4.864255   6.068178
    13  C    5.313929   5.083494   4.228241   5.126368   6.316566
    14  C    5.114614   4.844762   3.721868   4.317980   5.430103
    15  C    4.118997   3.704037   2.450427   2.944380   4.041415
    16  H    1.100533   2.171517   2.762464   3.398866   3.210506
    17  H    1.100590   2.177959   3.444374   4.385245   4.379303
    18  H    1.100261   2.175857   2.790065   3.985277   4.372506
    19  H    2.169331   1.097555   2.066643   2.486060   2.565845
    20  H    2.171613   1.102972   2.100596   3.229526   3.905303
    21  H    2.998829   2.700643   2.678727   2.163900   1.091990
    22  H    5.470978   4.963064   4.596164   3.415200   2.153236
    23  H    7.036560   6.151459   5.319547   3.910443   3.413350
    24  H    6.903148   5.761037   4.595075   3.415045   3.876767
    25  H    5.164859   3.965568   2.669953   2.159557   3.403422
    26  H    3.210154   2.609230   2.676735   4.010044   5.080012
    27  H    5.148838   4.907098   4.589391   5.808466   7.002888
    28  H    6.301019   6.145363   5.320721   6.195406   7.381365
    29  H    5.999642   5.793175   4.597901   4.976869   5.991803
    30  H    4.426748   4.026152   2.683712   2.661239   3.544446
                    6          7          8          9         10
     6  C    0.000000
     7  C    1.394505   0.000000
     8  C    2.406393   1.396530   0.000000
     9  C    2.784019   2.422418   1.392287   0.000000
    10  C    4.823292   5.122318   4.359617   3.006547   0.000000
    11  C    6.103262   6.410603   5.576578   4.188714   1.404790
    12  C    7.248313   7.444254   6.502447   5.156775   2.431662
    13  C    7.366647   7.435585   6.456654   5.232198   2.823150
    14  C    6.349728   6.363117   5.444368   4.345016   2.432437
    15  C    5.000905   5.114810   4.297787   3.138638   1.407457
    16  H    4.490014   5.602853   5.709396   4.777171   3.471145
    17  H    5.687096   6.767307   6.769852   5.719136   4.110568
    18  H    5.752777   6.638659   6.389818   5.188534   2.872562
    19  H    3.777827   4.661095   4.612415   3.683877   3.347411
    20  H    5.195582   5.846907   5.417555   4.193077   2.731298
    21  H    2.155711   3.408238   3.876108   3.407327   3.909834
    22  H    1.092510   2.158284   3.399325   3.876510   5.747981
    23  H    2.163353   1.092494   2.165940   3.413383   6.191306
    24  H    3.399129   2.160360   1.092514   2.151225   5.044583
    25  H    3.875619   3.411596   2.158888   1.091806   2.779994
    26  H    6.361884   6.763581   6.002751   4.620847   2.167076
    27  H    8.217139   8.431989   7.472879   6.113657   3.415809
    28  H    8.399267   8.414902   7.398936   6.224879   3.915647
    29  H    6.756657   6.663740   5.767164   4.858464   3.416922
    30  H    4.302718   4.364603   3.677147   2.764068   2.163702
                   11         12         13         14         15
    11  C    0.000000
    12  C    1.394245   0.000000
    13  C    2.424084   1.394084   0.000000
    14  C    2.783102   2.403502   1.396322   0.000000
    15  C    2.413986   2.782066   2.423512   1.392020   0.000000
    16  H    4.099909   5.189593   5.705434   5.263489   4.187788
    17  H    4.205338   5.329711   6.210690   6.139248   5.192542
    18  H    2.902398   3.825139   4.561038   4.528687   3.778547
    19  H    3.907577   5.292967   6.081820   5.735859   4.492460
    20  H    2.646646   3.987456   5.041900   5.081113   4.119617
    21  H    5.008411   6.242707   6.590243   5.798109   4.438629
    22  H    7.011615   8.178893   8.306706   7.275018   5.929298
    23  H    7.483101   8.485303   8.414499   7.295631   6.100140
    24  H    6.178255   6.970218   6.824447   5.823384   4.850187
    25  H    3.750246   4.550145   4.601972   3.852391   2.870010
    26  H    1.091166   2.151188   3.406051   3.874162   3.408847
    27  H    2.151755   1.092489   2.157543   3.396884   3.874523
    28  H    3.414911   2.163914   1.092498   2.166816   3.414715
    29  H    3.875530   3.396724   2.159940   1.092492   2.149853
    30  H    3.404564   3.872816   3.409181   2.154358   1.091025
                   16         17         18         19         20
    16  H    0.000000
    17  H    1.783263   0.000000
    18  H    1.774315   1.779335   0.000000
    19  H    2.534542   2.516323   3.088265   0.000000
    20  H    3.088851   2.515985   2.540293   1.747555   0.000000
    21  H    2.409069   3.610575   3.856714   2.269172   3.752478
    22  H    4.825383   6.029482   6.298697   4.328944   5.904968
    23  H    6.584158   7.769573   7.698655   5.659203   6.904469
    24  H    6.749875   7.776291   7.316977   5.587796   6.248108
    25  H    5.303079   6.086295   5.362524   4.177156   4.247627
    26  H    4.110903   3.765649   2.825970   3.564669   1.979493
    27  H    5.896985   5.753846   4.351818   5.936345   4.431874
    28  H    6.691027   7.158246   5.471837   7.158406   6.053514
    29  H    6.008501   7.048170   5.423175   6.631723   6.115377
    30  H    4.239683   5.525326   4.273156   4.622936   4.653275
                   21         22         23         24         25
    21  H    0.000000
    22  H    2.473397   0.000000
    23  H    4.309720   2.492353   0.000000
    24  H    4.968611   4.305711   2.495965   0.000000
    25  H    4.309241   4.968096   4.314864   2.479027   0.000000
    26  H    5.113122   7.221672   7.843583   6.647715   4.248718
    27  H    7.120003   9.138687   9.479229   7.915313   5.461148
[...]
               7          8          9         10         11         12
     1  C   -0.000046   0.000104  -0.001291   0.002565  -0.015872   0.001596
     2  C    0.000250   0.000826  -0.003523  -0.066132   0.006821  -0.001674
     3  N    0.000768   0.003567  -0.050024   0.366631  -0.071472   0.004641
     4  C   -0.079266  -0.011428   0.390109  -0.137754   0.003616  -0.000760
     5  C    0.011991  -0.053570   0.006605  -0.008850  -0.002063   0.000044
     6  C    0.449005   0.001833  -0.058883   0.000053   0.000230   0.000001
     7  C    4.958948   0.434508   0.025542   0.000200   0.000004  -0.000003
     8  C    0.434508   4.917256   0.422650  -0.001220  -0.000436   0.000054
     9  C    0.025542   0.422650   5.145075   0.007383   0.004602   0.000235
    10  C    0.000200  -0.001220   0.007383   5.089564   0.344605  -0.010912
    11  C    0.000004  -0.000436   0.004602   0.344605   5.219014   0.434161
    12  C   -0.000003   0.000054   0.000235  -0.010912   0.434161   4.895744
    13  C    0.000002  -0.000022   0.000119  -0.075842   0.019220   0.455117
    14  C    0.000036  -0.000007   0.002569  -0.009205  -0.065817   0.004563
    15  C    0.000534  -0.000576   0.000753   0.397370   0.013101  -0.066349
    16  H    0.000011  -0.000009   0.000186  -0.001956   0.000363   0.000059
    17  H    0.000000  -0.000006   0.000070  -0.000572   0.000143  -0.000021
    18  H    0.000000   0.000007  -0.000017   0.001501   0.004068   0.001214
    19  H   -0.000168  -0.000001   0.000477   0.008511   0.000938  -0.000049
    20  H   -0.000005  -0.000170   0.002499  -0.033652   0.010010   0.002164
    21  H    0.007464  -0.001849   0.007344  -0.000990  -0.000105   0.000006
    22  H   -0.055642   0.010745  -0.003772   0.000013  -0.000002   0.000000
    23  H    0.444950  -0.057568   0.012002   0.000004   0.000000  -0.000000
    24  H   -0.058565   0.443596  -0.056798   0.000119   0.000009   0.000001
    25  H    0.008363  -0.041030   0.436572  -0.000099   0.000179   0.000166
    26  H   -0.000002   0.000004   0.000158  -0.076297   0.442474  -0.027298
    27  H   -0.000000   0.000000  -0.000001   0.014243  -0.057340   0.439974
    28  H    0.000000  -0.000000   0.000003  -0.003791   0.012995  -0.059291
    29  H   -0.000003   0.000016  -0.000070   0.013049  -0.003573   0.011066
    30  H   -0.000321   0.000689  -0.006103  -0.048060   0.005429  -0.001655
              13         14         15         16         17         18
     1  C   -0.000405   0.000816   0.000954   0.405587   0.408795   0.417421
     2  C    0.000872  -0.001652   0.017435  -0.036557  -0.047265  -0.033372
     3  N    0.000057   0.002831  -0.074172   0.001936   0.008304  -0.003742
     4  C    0.000561  -0.004117   0.002670  -0.002778  -0.000233  -0.000263
     5  C    0.000026  -0.000012   0.006408   0.000401   0.000342  -0.000195
     6  C   -0.000003  -0.000015  -0.000244   0.000631   0.000029  -0.000043
     7  C    0.000002   0.000036   0.000534   0.000011   0.000000   0.000000
     8  C   -0.000022  -0.000007  -0.000576  -0.000009  -0.000006   0.000007
     9  C    0.000119   0.002569   0.000753   0.000186   0.000070  -0.000017
    10  C   -0.075842  -0.009205   0.397370  -0.001956  -0.000572   0.001501
    11  C    0.019220  -0.065817   0.013101   0.000363   0.000143   0.004068
    12  C    0.455117   0.004563  -0.066349   0.000059  -0.000021   0.001214
    13  C    4.958746   0.448208   0.011034  -0.000014   0.000018  -0.000222
    14  C    0.448208   4.908010   0.448022   0.000044  -0.000009   0.000305
    15  C    0.011034   0.448022   5.122425  -0.000275  -0.000210  -0.000561
    16  H   -0.000014   0.000044  -0.000275   0.557988  -0.020533  -0.023335
    17  H    0.000018  -0.000009  -0.000210  -0.020533   0.557276  -0.023211
    18  H   -0.000222   0.000305  -0.000561  -0.023335  -0.023211   0.524697
    19  H   -0.000005   0.000074  -0.000844  -0.003673  -0.002288   0.004742
    20  H   -0.000041   0.000165  -0.002655   0.005721   0.001451  -0.005266
    21  H   -0.000003   0.000021   0.000115   0.005153  -0.000146  -0.000053
    22  H   -0.000000  -0.000000   0.000001  -0.000014  -0.000000  -0.000000
    23  H    0.000000  -0.000000   0.000000  -0.000000  -0.000000   0.000000
    24  H   -0.000002  -0.000008  -0.000125   0.000000   0.000000  -0.000000
    25  H   -0.000057   0.000298  -0.002243   0.000001   0.000000  -0.000006
    26  H    0.007713  -0.001495   0.004757   0.000158   0.000633  -0.001796
    27  H   -0.056405   0.010769  -0.003373  -0.000001   0.000001   0.000023
    28  H    0.447163  -0.059836   0.012458  -0.000000  -0.000000  -0.000001
    29  H   -0.057619   0.439852  -0.054716  -0.000000  -0.000000   0.000001
    30  H    0.007057  -0.036864   0.434710  -0.000027  -0.000000  -0.000044
              19         20         21         22         23         24
     1  C   -0.040190  -0.053618  -0.002237   0.000007   0.000000  -0.000001
     2  C    0.419749   0.390538   0.005452   0.000061  -0.000005   0.000006
     3  N   -0.032212  -0.025216  -0.002432  -0.000160   0.000011  -0.000205
     4  C   -0.007631   0.003511  -0.054276   0.013494  -0.003744   0.013544
     5  C   -0.004553   0.001773   0.425400  -0.053447   0.011953  -0.004079
     6  C    0.000512   0.000229  -0.032050   0.438962  -0.057113   0.011494
     7  C   -0.000168  -0.000005   0.007464  -0.055642   0.444950  -0.058565
     8  C   -0.000001  -0.000170  -0.001849   0.010745  -0.057568   0.443596
     9  C    0.000477   0.002499   0.007344  -0.003772   0.012002  -0.056798
    10  C    0.008511  -0.033652  -0.000990   0.000013   0.000004   0.000119
    11  C    0.000938   0.010010  -0.000105  -0.000002   0.000000   0.000009
    12  C   -0.000049   0.002164   0.000006   0.000000  -0.000000   0.000001
    13  C   -0.000005  -0.000041  -0.000003  -0.000000   0.000000  -0.000002
    14  C    0.000074   0.000165   0.000021  -0.000000  -0.000000  -0.000008
    15  C   -0.000844  -0.002655   0.000115   0.000001   0.000000  -0.000125
    16  H   -0.003673   0.005721   0.005153  -0.000014  -0.000000   0.000000
    17  H   -0.002288   0.001451  -0.000146  -0.000000  -0.000000   0.000000
    18  H    0.004742  -0.005266  -0.000053  -0.000000   0.000000  -0.000000
    19  H    0.534364  -0.015623  -0.005168  -0.000034   0.000001   0.000005
    20  H   -0.015623   0.601521   0.000716  -0.000004  -0.000000   0.000000
    21  H   -0.005168   0.000716   0.525163  -0.007050  -0.000117   0.000029
    22  H   -0.000034  -0.000004  -0.007050   0.545477  -0.006839  -0.000149
    23  H    0.000001  -0.000000  -0.000117  -0.006839   0.544725  -0.006904
    24  H    0.000005   0.000000   0.000029  -0.000149  -0.006904   0.544073
    25  H   -0.000094   0.000096  -0.000138   0.000021  -0.000078  -0.006925
    26  H    0.000205   0.003834  -0.000006  -0.000000   0.000000   0.000000
    27  H    0.000000  -0.000017  -0.000000  -0.000000   0.000000   0.000000
    28  H   -0.000000  -0.000000   0.000000  -0.000000   0.000000  -0.000000
    29  H   -0.000000  -0.000001   0.000000   0.000000  -0.000000   0.000001
    30  H   -0.000047  -0.000061  -0.000084   0.000002   0.000001   0.000006
              25         26         27         28         29         30
     1  C    0.000047  -0.006756   0.000016   0.000001  -0.000002   0.000074
     2  C    0.000040   0.010033  -0.000033  -0.000003   0.000019  -0.000129
     3  N   -0.000187  -0.004371  -0.000084   0.000018  -0.000177  -0.003223
     4  C   -0.048346  -0.000164   0.000021   0.000001   0.000090   0.003800
     5  C    0.008371  -0.000202  -0.000001   0.000000  -0.000002   0.000278
     6  C   -0.002383   0.000008   0.000000  -0.000000   0.000001   0.000394
     7  C    0.008363  -0.000002  -0.000000   0.000000  -0.000003  -0.000321
     8  C   -0.041030   0.000004   0.000000  -0.000000   0.000016   0.000689
     9  C    0.436572   0.000158  -0.000001   0.000003  -0.000070  -0.006103
    10  C   -0.000099  -0.076297   0.014243  -0.003791   0.013049  -0.048060
    11  C    0.000179   0.442474  -0.057340   0.012995  -0.003573   0.005429
    12  C    0.000166  -0.027298   0.439974  -0.059291   0.011066  -0.001655
    13  C   -0.000057   0.007713  -0.056405   0.447163  -0.057619   0.007057
    14  C    0.000298  -0.001495   0.010769  -0.059836   0.439852  -0.036864
    15  C   -0.002243   0.004757  -0.003373   0.012458  -0.054716   0.434710
    16  H    0.000001   0.000158  -0.000001  -0.000000  -0.000000  -0.000027
    17  H    0.000000   0.000633   0.000001  -0.000000  -0.000000  -0.000000
    18  H   -0.000006  -0.001796   0.000023  -0.000001   0.000001  -0.000044
    19  H   -0.000094   0.000205   0.000000  -0.000000  -0.000000  -0.000047
    20  H    0.000096   0.003834  -0.000017  -0.000000  -0.000001  -0.000061
    21  H   -0.000138  -0.000006  -0.000000   0.000000   0.000000  -0.000084
    22  H    0.000021  -0.000000  -0.000000  -0.000000   0.000000   0.000002
    23  H   -0.000078   0.000000   0.000000   0.000000  -0.000000   0.000001
    24  H   -0.006925   0.000000   0.000000  -0.000000   0.000001   0.000006
    25  H    0.500502  -0.000013  -0.000001   0.000001   0.000005  -0.001470
    26  H   -0.000013   0.540276  -0.007347  -0.000140   0.000036  -0.000146
    27  H   -0.000001  -0.007347   0.551426  -0.006993  -0.000168   0.000026
    28  H    0.000001  -0.000140  -0.006993   0.550078  -0.006970  -0.000099
    29  H    0.000005   0.000036  -0.000168  -0.006970   0.548778  -0.006787
    30  H   -0.001470  -0.000146   0.000026  -0.000099  -0.006787   0.501785
 Mulliken charges:
               1
     1  C   -0.330588
     2  C   -0.200605
     3  N   -0.003467
     4  C    0.198027
     5  C   -0.271635
     6  C   -0.084196
     7  C   -0.148555
     8  C   -0.067964
     9  C   -0.284469
    10  C    0.229520
    11  C   -0.305302
    12  C   -0.082795
    13  C   -0.165275
    14  C   -0.087545
    15  C   -0.266405
    16  H    0.110932
    17  H    0.117430
    18  H    0.138148
    19  H    0.143002
    20  H    0.112100
    21  H    0.129841
    22  H    0.118331
    23  H    0.118720
    24  H    0.120876
    25  H    0.148408
    26  H    0.115744
    27  H    0.115263
    28  H    0.114409
    29  H    0.117176
    30  H    0.150871
 Sum of Mulliken charges =  -0.00000
 Mulliken charges with hydrogens summed into heavy atoms:
               1
     1  C    0.035922
     2  C    0.054497
     3  N   -0.003467
     4  C    0.198027
     5  C   -0.141794
     6  C    0.034136
     7  C   -0.029835
     8  C    0.052912
     9  C   -0.136060
    10  C    0.229520
    11  C   -0.189558
    12  C    0.032468
    13  C   -0.050865
    14  C    0.029631
    15  C   -0.115534
 Electronic spatial extent (au):  <R**2>=           3417.4068
 Charge=              0.0000 electrons
 Dipole moment (field-independent basis, Debye):
    X=              0.4845    Y=              0.9497    Z=             -0.1487  Tot=              1.0765
 Quadrupole moment (field-independent basis, Debye-Ang):
   XX=            -84.9672   YY=            -82.7593   ZZ=            -91.6244
   XY=             -0.7836   XZ=              2.9650   YZ=             -0.8802
 Traceless Quadrupole moment (field-independent basis, Debye-Ang):
   XX=              1.4831   YY=              3.6910   ZZ=             -5.1741
   XY=             -0.7836   XZ=              2.9650   YZ=             -0.8802
 Octapole moment (field-independent basis, Debye-Ang**2):
  XXX=              3.9971  YYY=              6.6178  ZZZ=             -1.1086  XYY=              3.0551
  XXY=             -7.8487  XXZ=              3.1337  XZZ=              0.3842  YZZ=              2.5882
  YYZ=             -0.9787  XYZ=             15.1952
 Hexadecapole moment (field-independent basis, Debye-Ang**3):
 XXXX=          -2970.9722 YYYY=          -1234.3896 ZZZZ=           -337.4688 XXXY=            -10.1757
 XXXZ=             76.8363 YYYX=             -4.9339 YYYZ=            -12.4802 ZZZX=              7.9414
 ZZZY=             -1.9408 XXYY=           -708.2935 XXZZ=           -613.7852 YYZZ=           -254.1752
 XXYZ=             -1.9218 YYXZ=            -20.3367 ZZXY=              0.9911
 N-N= 9.278348334722D+02 E-N=-3.241021982595D+03  KE= 5.938435479787D+02
 Breneman (CHELPG) radii used.
 Read replacement radii for each type of atom:
 Atom Element Radius
    1     6    1.50
    2     6    1.50
    3     7    1.70
    4     6    1.50
    5     6    1.50
    6     6    1.50
    7     6    1.50
    8     6    1.50
    9     6    1.50
   10     6    1.50
   11     6    1.50
   12     6    1.50
   13     6    1.50
   14     6    1.50
   15     6    1.50
   16     1    1.45
   17     1    1.45
   18     1    1.45
   19     1    1.45
   20     1    1.45
   21     1    1.45
   22     1    1.45
   23     1    1.45
   24     1    1.45
   25     1    1.45
   26     1    1.45
   27     1    1.45
   28     1    1.45
   29     1    1.45
   30     1    1.45
 Generate Potential Derived Charges using the Breneman model, NDens= 1.
 Grid spacing= 0.300 Box extension= 2.800
 NStep X,Y,Z=   51     43     30   Total possible points=       65790
 Number of Points to Fit=   18127

 **********************************************************************

            Electrostatic Properties Using The SCF Density.

 **********************************************************************

       Atomic Center    1 is at  -0.588009  3.020731  0.571673
       Atomic Center    2 is at  -0.052576  2.168569 -0.573848
       Atomic Center    3 is at  -0.000445  0.743237 -0.280292
       Atomic Center    4 is at   1.260060  0.121091 -0.160192
       Atomic Center    5 is at   2.296239  0.731397  0.560462
       Atomic Center    6 is at   3.554268  0.136225  0.637089
       Atomic Center    7 is at   3.797009 -1.086886  0.016695
       Atomic Center    8 is at   2.767641 -1.704415 -0.695497
       Atomic Center    9 is at   1.516830 -1.104863 -0.794662
       Atomic Center   10 is at  -1.188263  0.022660 -0.102262
       Atomic Center   11 is at  -2.399662  0.458118 -0.668889
       Atomic Center   12 is at  -3.578956 -0.256811 -0.469633
       Atomic Center   13 is at  -3.590962 -1.421544  0.292434
       Atomic Center   14 is at  -2.396154 -1.855260  0.867904
       Atomic Center   15 is at  -1.215788 -1.144832  0.685686
       Atomic Center   16 is at   0.044389  2.919762  1.466239
       Atomic Center   17 is at  -0.613404  4.082173  0.283013
       Atomic Center   18 is at  -1.608798  2.718430  0.848125
       Atomic Center   19 is at   0.966317  2.483000 -0.836369
       Atomic Center   20 is at  -0.651381  2.340765 -1.484994
       Atomic Center   21 is at   2.112274  1.676223  1.075553
       Atomic Center   22 is at   4.347218  0.630706  1.202804
       Atomic Center   23 is at   4.780352 -1.556096  0.085304
       Atomic Center   24 is at   2.945277 -2.658616 -1.196862
       Atomic Center   25 is at   0.721594 -1.583747 -1.369127
       Atomic Center   26 is at  -2.431093  1.361855 -1.277355
       Atomic Center   27 is at  -4.501990  0.107638 -0.926835
       Atomic Center   28 is at  -4.516843 -1.979455  0.443135
       Atomic Center   29 is at  -2.381667 -2.757426  1.484130
       Atomic Center   30 is at  -0.299192 -1.492952  1.163520
   18127 points will be used for fitting atomic charges
 Fitting point charges to electrostatic potential
 Charges from ESP fit, RMS=   0.00369 RRMS=   0.38542:
 ESP charges:
               1
     1  C   -0.130939
     2  C    0.322387
     3  N   -0.579423
     4  C    0.398962
     5  C   -0.236054
     6  C   -0.078386
     7  C   -0.162625
     8  C   -0.070619
     9  C   -0.160539
    10  C    0.455722
    11  C   -0.297216
    12  C   -0.025230
    13  C   -0.206936
    14  C   -0.043215
    15  C   -0.219175
    16  H    0.030583
    17  H    0.032747
    18  H    0.012389
    19  H   -0.038204
    20  H   -0.023240
    21  H    0.139220
    22  H    0.097437
    23  H    0.107255
    24  H    0.098792
    25  H    0.069346
    26  H    0.141819
    27  H    0.083750
    28  H    0.109819
    29  H    0.094340
    30  H    0.077232
 Sum of ESP charges =   0.00000
 ESP charges with hydrogens summed into heavy atoms:
               1
     1  C   -0.055220
     2  C    0.260943
     3  N   -0.579423
     4  C    0.398962
     5  C   -0.096834
     6  C    0.019051
     7  C   -0.055369
     8  C    0.028173
     9  C   -0.091193
    10  C    0.455722
    11  C   -0.155397
    12  C    0.058520
    13  C   -0.097117
    14  C    0.051126
    15  C   -0.141943
 Charge=   0.00000 Dipole=     0.5108     0.9149    -0.1928 Tot=     1.0654
 -----------------------------------------------------------------

              Electrostatic Properties (Atomic Units)

 -----------------------------------------------------------------
    Center     Electric         -------- Electric Field --------
               Potential          X             Y             Z
 -----------------------------------------------------------------
    1 Atom    -14.774514
    2 Atom    -14.729180
    3 Atom    -18.360422
    4 Atom    -14.725813
    5 Atom    -14.769657
    6 Atom    -14.766993
    7 Atom    -14.772403
    8 Atom    -14.767909
    9 Atom    -14.771931
   10 Atom    -14.726170
   11 Atom    -14.775747
   12 Atom    -14.772550
   13 Atom    -14.781085
   14 Atom    -14.773509
   15 Atom    -14.778384
   16 Atom     -1.118876
   17 Atom     -1.115520
   18 Atom     -1.120009
   19 Atom     -1.110666
   20 Atom     -1.116300
   21 Atom     -1.101753
   22 Atom     -1.106138
   23 Atom     -1.108693
   24 Atom     -1.107408
   25 Atom     -1.106790
   26 Atom     -1.107287
   27 Atom     -1.111828
   28 Atom     -1.115194
   29 Atom     -1.113006
   30 Atom     -1.112487
 -----------------------------------------------------------------
 Unable to Open any file for archive entry.
 1\1\GINC-NOTCH312\SP\RwB97XD\def2TZVP\C14H15N1\U1366379\17-Feb-2026\0\
 \#N Guess=Read Geom=Check Integral(Ultrafine) Density Pop=(ChelpG,Read
 Radii) NMR wB97XD def2TZVP\\prod_5i_1\\0,1\C,0,-0.56969138,3.053112978
 ,0.5842497092\C,0,-0.041613496,2.1947152462,-0.5600291995\N,0,-0.00120
 40945,0.7694730971,-0.2641981637\C,0,1.2541402431,0.1371121372,-0.1433
 986395\C,0,2.2955137972,0.7399779072,0.5760299272\C,0,3.548594584,0.13
 45409547,0.6533147921\C,0,3.781052302,-1.0915303657,0.0348269407\C,0,2
 .7464325794,-1.7016618432,-0.6761297189\C,0,1.5005994276,-1.0919399487
 ,-0.7759610194\C,0,-1.1948985375,0.0590349261,-0.0847309021\C,0,-2.402
 7951298,0.5035927333,-0.6517699653\C,0,-3.5879133727,-0.2012331578,-0.
 4510874627\C,0,-3.6093660716,-1.3646040228,0.312850878\C,0,-2.41804328
 65,-1.8072683397,0.8887328538\C,0,-1.2318857236,-1.1069244522,0.705095
 5106\H,0,0.0620735183,2.948349747,1.4788264717\H,0,-0.5863753407,4.114
 2652642,0.2938916901\H,0,-1.5928774989,2.7597121724,0.8614277718\H,0,0
 .9797809129,2.5002839271,-0.8232957321\H,0,-0.6392006423,2.3703997807,
 -1.4713087661\H,0,2.1195013679,1.6871184881,1.0896473616\H,0,4.3457499
 621,0.6233500112,1.2180471891\H,0,4.760496255,-1.5687500297,0.10395609
 54\H,0,2.9160420414,-2.6581015432,-1.1760048961\H,0,0.7012854128,-1.56
 51476387,-1.3494683942\H,0,-2.4268993198,1.4065827859,-1.2616778839\H,
 0,-4.5080149928,0.1701075256,-0.9086552794\H,0,-4.5397939305,-1.914592
 3973,0.4646656389\H,0,-2.4108677361,-2.7085351195,1.5064024675\H,0,-0.
 3180818503,-1.4618508232,1.1832707252\\Version=ES64L-G16RevC.01\State=
 1-A\HF=-597.2775709\RMSD=2.833e-09\Dipole=0.1937013,0.3719507,-0.05915
 09\Quadrupole=1.094199,2.7515433,-3.8457422,-0.5656,2.1985645,-0.68308
 43\PG=C01 [X(C14H15N1)]\\@
 The archive entry for this job was punched.


 BLACK HOLES SUCK.
 Job cpu time:       0 days  1 hours  6 minutes 25.4 seconds.
 Elapsed time:       0 days  0 hours  8 minutes 34.6 seconds.
 File lengths (MBytes):  RWF=    190 Int=      0 D2E=      0 Chk=     29 Scr=      2
 Normal termination of Gaussian 16 at Tue Feb 17 16:28:50 2026.
