 Entering Gaussian System, Link 0=g16
 Input=prod_3f_2.com
 Output=prod_3f_2.log
 Initial command:
 /uufs/chpc.utah.edu/sys/installdir/gaussian16/C01/AVX/g16/l1.exe "/scratch/general/vast/u1366379/GAUSSSCRDIR/11028607-notchpeak.peaks/Gau-76832.inp" -scrdir="/scratch/general/vast/u1366379/GAUSSSCRDIR/11028607-notchpeak.peaks/"
 Entering Link 1 = /uufs/chpc.utah.edu/sys/installdir/gaussian16/C01/AVX/g16/l1.exe PID=     76834.
  
 Copyright (c) 1988-2019, Gaussian, Inc.  All Rights Reserved.
  
 This is part of the Gaussian(R) 16 program.  It is based on
 the Gaussian(R) 09 system (copyright 2009, Gaussian, Inc.),
 the Gaussian(R) 03 system (copyright 2003, Gaussian, Inc.),
 the Gaussian(R) 98 system (copyright 1998, Gaussian, Inc.),
 the Gaussian(R) 94 system (copyright 1995, Gaussian, Inc.),
 the Gaussian 92(TM) system (copyright 1992, Gaussian, Inc.),
 the Gaussian 90(TM) system (copyright 1990, Gaussian, Inc.),
 the Gaussian 88(TM) system (copyright 1988, Gaussian, Inc.),
 the Gaussian 86(TM) system (copyright 1986, Carnegie Mellon
 University), and the Gaussian 82(TM) system (copyright 1983,
 Carnegie Mellon University). Gaussian is a federally registered
 trademark of Gaussian, Inc.
  
 This software contains proprietary and confidential information,
 including trade secrets, belonging to Gaussian, Inc.
  
 This software is provided under written license and may be
 used, copied, transmitted, or stored only in accord with that
 written license.
  
 The following legend is applicable only to US Government
 contracts under FAR:
  
                    RESTRICTED RIGHTS LEGEND
  
 Use, reproduction and disclosure by the US Government is
 subject to restrictions as set forth in subparagraphs (a)
 and (c) of the Commercial Computer Software - Restricted
 Rights clause in FAR 52.227-19.
  
 Gaussian, Inc.
 340 Quinnipiac St., Bldg. 40, Wallingford CT 06492
  
  
 ---------------------------------------------------------------
 Warning -- This program may not be used in any manner that
 competes with the business of Gaussian, Inc. or will provide
 assistance to any competitor of Gaussian, Inc.  The licensee
 of this program is prohibited from giving any competitor of
 Gaussian, Inc. access to this program.  By using this program,
 the user acknowledges that Gaussian, Inc. is engaged in the
 business of creating and licensing software in the field of
 computational chemistry and represents and warrants to the
 licensee that it is not a competitor of Gaussian, Inc. and that
 it will not use this program in any manner prohibited above.
 ---------------------------------------------------------------
  

 Cite this work as:
 Gaussian 16, Revision C.01,
 M. J. Frisch, G. W. Trucks, H. B. Schlegel, G. E. Scuseria, 
 M. A. Robb, J. R. Cheeseman, G. Scalmani, V. Barone, 
 G. A. Petersson, H. Nakatsuji, X. Li, M. Caricato, A. V. Marenich, 
 J. Bloino, B. G. Janesko, R. Gomperts, B. Mennucci, H. P. Hratchian, 
 J. V. Ortiz, A. F. Izmaylov, J. L. Sonnenberg, D. Williams-Young, 
 F. Ding, F. Lipparini, F. Egidi, J. Goings, B. Peng, A. Petrone, 
 T. Henderson, D. Ranasinghe, V. G. Zakrzewski, J. Gao, N. Rega, 
 G. Zheng, W. Liang, M. Hada, M. Ehara, K. Toyota, R. Fukuda, 
 J. Hasegawa, M. Ishida, T. Nakajima, Y. Honda, O. Kitao, H. Nakai, 
 T. Vreven, K. Throssell, J. A. Montgomery, Jr., J. E. Peralta, 
 F. Ogliaro, M. J. Bearpark, J. J. Heyd, E. N. Brothers, K. N. Kudin, 
 V. N. Staroverov, T. A. Keith, R. Kobayashi, J. Normand, 
 K. Raghavachari, A. P. Rendell, J. C. Burant, S. S. Iyengar, 
 J. Tomasi, M. Cossi, J. M. Millam, M. Klene, C. Adamo, R. Cammi, 
 J. W. Ochterski, R. L. Martin, K. Morokuma, O. Farkas, 
 J. B. Foresman, and D. J. Fox, Gaussian, Inc., Wallingford CT, 2019.
 
 ******************************************
 Gaussian 16:  ES64L-G16RevC.01  3-Jul-2019
                17-Feb-2026 
 ******************************************
 %NProcShared=8
 Will use up to    8 processors via shared memory.
 %Mem=8GB
 %chk=prod_3f_2.chk
 ------------------------------------------------------
 #N OPT FREQ=NORAMAN Integral(Ultrafine) wB97XD def2SVP
 ------------------------------------------------------
 1/18=20,19=15,26=4,38=1/1,3;
 2/9=110,12=2,17=6,18=5,40=1/2;
 3/5=43,7=101,11=2,25=1,30=1,71=1,74=-58,75=-5/1,2,3;
 4//1;
 5/5=2,38=5/2;
 6/7=2,8=2,9=2,10=2,28=1/1;
 7//1,2,3,16;
 1/18=20,19=15,26=4/3(2);
 2/9=110/2;
 99//99;
 2/9=110/2;
 3/5=43,7=101,11=2,25=1,30=1,71=1,74=-58,75=-5/1,2,3;
 4/5=5,16=3,69=1/1;
 5/5=2,38=5/2;
 7//1,2,3,16;
 1/18=20,19=15,26=4/3(-5);
 2/9=110/2;
 6/7=2,8=2,9=2,10=2,19=2,28=1/1;
 99/9=1/99;
 ---------
 prod_3f_2
 ---------
 Symbolic Z-matrix:
 Charge =  0 Multiplicity = 1
 C                    -1.69895  -2.30422  -1.02391 
 O                    -2.35943  -1.71973   0.07769 
 C                    -2.22621  -0.31093   0.118 
 C                    -3.33199   0.51086  -0.06107 
 C                    -3.20204   1.88471  -0.04521 
 C                    -1.96619   2.46066   0.16163 
 C                    -0.85502   1.66419   0.35662 
 C                    -0.95927   0.28187   0.33577 
 N                     0.14415  -0.55863   0.61126 
 C                     1.49758  -0.35707   0.27576 
 C                     1.88047   0.56983  -0.69293 
 C                     3.20706   0.73793  -1.01927 
 C                     4.1772   -0.01791  -0.3897 
 C                     3.81392  -0.94898   0.56428 
 C                     2.48817  -1.12136   0.89214 
 H                    -0.64884  -2.01267  -1.03528 
 H                    -2.17707  -1.97336  -1.94642 
 H                    -1.7736   -3.3892   -0.94653 
 H                    -4.29088   0.05089  -0.22069 
 H                    -4.06907   2.5079   -0.19096 
 H                    -1.8689    3.53368   0.18333 
 H                     0.10039   2.11138   0.56683 
 H                    -0.08206  -1.42845   1.08639 
 H                     1.12219   1.13389  -1.20584 
 H                     3.48933   1.45716  -1.77065 
 H                     5.21554   0.11536  -0.64572 
 H                     4.57018  -1.54162   1.05251 
 H                     2.20107  -1.84417   1.63575 
 

 GradGradGradGradGradGradGradGradGradGradGradGradGradGradGradGradGradGrad
 Berny optimization.
 Initialization pass.
                           ----------------------------
                           !    Initial Parameters    !
                           ! (Angstroms and Degrees)  !
 --------------------------                            --------------------------
 ! Name  Definition              Value          Derivative Info.                !
 --------------------------------------------------------------------------------
 ! R1    R(1,2)                  1.4112         estimate D2E/DX2                !
 ! R2    R(1,16)                 1.0899         estimate D2E/DX2                !
 ! R3    R(1,17)                 1.0905         estimate D2E/DX2                !
 ! R4    R(1,18)                 1.0903         estimate D2E/DX2                !
 ! R5    R(2,3)                  1.4157         estimate D2E/DX2                !
 ! R6    R(3,4)                  1.3893         estimate D2E/DX2                !
 ! R7    R(3,8)                  1.4156         estimate D2E/DX2                !
 ! R8    R(4,5)                  1.3801         estimate D2E/DX2                !
 ! R9    R(4,19)                 1.0754         estimate D2E/DX2                !
 ! R10   R(5,6)                  1.3791         estimate D2E/DX2                !
 ! R11   R(5,20)                 1.0777         estimate D2E/DX2                !
 ! R12   R(6,7)                  1.381          estimate D2E/DX2                !
 ! R13   R(6,21)                 1.0776         estimate D2E/DX2                !
 ! R14   R(7,8)                  1.3864         estimate D2E/DX2                !
 ! R15   R(7,22)                 1.0756         estimate D2E/DX2                !
 ! R16   R(8,9)                  1.4142         estimate D2E/DX2                !
 ! R17   R(9,10)                 1.4089         estimate D2E/DX2                !
 ! R18   R(9,23)                 1.0166         estimate D2E/DX2                !
 ! R19   R(10,11)                1.3943         estimate D2E/DX2                !
 ! R20   R(10,15)                1.3948         estimate D2E/DX2                !
 ! R21   R(11,12)                1.3764         estimate D2E/DX2                !
 ! R22   R(11,24)                1.0753         estimate D2E/DX2                !
 ! R23   R(12,13)                1.3816         estimate D2E/DX2                !
 ! R24   R(12,25)                1.0777         estimate D2E/DX2                !
 ! R25   R(13,14)                1.3816         estimate D2E/DX2                !
 ! R26   R(13,26)                1.0777         estimate D2E/DX2                !
 ! R27   R(14,15)                1.3765         estimate D2E/DX2                !
 ! R28   R(14,27)                1.0777         estimate D2E/DX2                !
 ! R29   R(15,28)                1.076          estimate D2E/DX2                !
 ! A1    A(2,1,16)             110.3835         estimate D2E/DX2                !
 ! A2    A(2,1,17)             109.2394         estimate D2E/DX2                !
 ! A3    A(2,1,18)             108.9488         estimate D2E/DX2                !
 ! A4    A(16,1,17)            109.4185         estimate D2E/DX2                !
 ! A5    A(16,1,18)            109.4454         estimate D2E/DX2                !
 ! A6    A(17,1,18)            109.3876         estimate D2E/DX2                !
 ! A7    A(1,2,3)              112.9773         estimate D2E/DX2                !
 ! A8    A(2,3,4)              120.669          estimate D2E/DX2                !
 ! A9    A(2,3,8)              120.3532         estimate D2E/DX2                !
 ! A10   A(4,3,8)              118.9771         estimate D2E/DX2                !
 ! A11   A(3,4,5)              120.8251         estimate D2E/DX2                !
 ! A12   A(3,4,19)             118.4125         estimate D2E/DX2                !
 ! A13   A(5,4,19)             120.7604         estimate D2E/DX2                !
 ! A14   A(4,5,6)              120.1232         estimate D2E/DX2                !
 ! A15   A(4,5,20)             119.8916         estimate D2E/DX2                !
 ! A16   A(6,5,20)             119.9847         estimate D2E/DX2                !
 ! A17   A(5,6,7)              120.091          estimate D2E/DX2                !
 ! A18   A(5,6,21)             119.9849         estimate D2E/DX2                !
 ! A19   A(7,6,21)             119.9198         estimate D2E/DX2                !
 ! A20   A(6,7,8)              120.8252         estimate D2E/DX2                !
 ! A21   A(6,7,22)             120.1664         estimate D2E/DX2                !
 ! A22   A(8,7,22)             118.9636         estimate D2E/DX2                !
 ! A23   A(3,8,7)              119.1524         estimate D2E/DX2                !
 ! A24   A(3,8,9)              118.6459         estimate D2E/DX2                !
 ! A25   A(7,8,9)              122.0725         estimate D2E/DX2                !
 ! A26   A(8,9,10)             128.1797         estimate D2E/DX2                !
 ! A27   A(8,9,23)             115.2108         estimate D2E/DX2                !
 ! A28   A(10,9,23)            116.5805         estimate D2E/DX2                !
 ! A29   A(9,10,11)            121.6241         estimate D2E/DX2                !
 ! A30   A(9,10,15)            119.91           estimate D2E/DX2                !
 ! A31   A(11,10,15)           118.4422         estimate D2E/DX2                !
 ! A32   A(10,11,12)           120.7015         estimate D2E/DX2                !
 ! A33   A(10,11,24)           119.1082         estimate D2E/DX2                !
 ! A34   A(12,11,24)           120.1652         estimate D2E/DX2                !
 ! A35   A(11,12,13)           120.126          estimate D2E/DX2                !
 ! A36   A(11,12,25)           119.9481         estimate D2E/DX2                !
 ! A37   A(13,12,25)           119.9253         estimate D2E/DX2                !
 ! A38   A(12,13,14)           119.9121         estimate D2E/DX2                !
 ! A39   A(12,13,26)           120.0417         estimate D2E/DX2                !
 ! A40   A(14,13,26)           120.0455         estimate D2E/DX2                !
 ! A41   A(13,14,15)           120.1377         estimate D2E/DX2                !
 ! A42   A(13,14,27)           119.9241         estimate D2E/DX2                !
 ! A43   A(15,14,27)           119.9382         estimate D2E/DX2                !
 ! A44   A(10,15,14)           120.6738         estimate D2E/DX2                !
 ! A45   A(10,15,28)           118.947          estimate D2E/DX2                !
 ! A46   A(14,15,28)           120.3773         estimate D2E/DX2                !
 ! D1    D(16,1,2,3)            55.1988         estimate D2E/DX2                !
 ! D2    D(17,1,2,3)           -65.1548         estimate D2E/DX2                !
 ! D3    D(18,1,2,3)           175.4019         estimate D2E/DX2                !
 ! D4    D(1,2,3,4)            113.6599         estimate D2E/DX2                !
 ! D5    D(1,2,3,8)            -66.0413         estimate D2E/DX2                !
 ! D6    D(2,3,4,5)           -178.8823         estimate D2E/DX2                !
 ! D7    D(2,3,4,19)             0.611          estimate D2E/DX2                !
 ! D8    D(8,3,4,5)              0.823          estimate D2E/DX2                !
 ! D9    D(8,3,4,19)          -179.6838         estimate D2E/DX2                !
 ! D10   D(2,3,8,7)            179.3318         estimate D2E/DX2                !
 ! D11   D(2,3,8,9)             -4.7129         estimate D2E/DX2                !
 ! D12   D(4,3,8,7)             -0.3743         estimate D2E/DX2                !
 ! D13   D(4,3,8,9)            175.5809         estimate D2E/DX2                !
 ! D14   D(3,4,5,6)             -0.5681         estimate D2E/DX2                !
 ! D15   D(3,4,5,20)           179.6719         estimate D2E/DX2                !
 ! D16   D(19,4,5,6)           179.9506         estimate D2E/DX2                !
 ! D17   D(19,4,5,20)            0.1906         estimate D2E/DX2                !
 ! D18   D(4,5,6,7)             -0.1477         estimate D2E/DX2                !
 ! D19   D(4,5,6,21)          -179.3932         estimate D2E/DX2                !
 ! D20   D(20,5,6,7)           179.6122         estimate D2E/DX2                !
 ! D21   D(20,5,6,21)            0.3666         estimate D2E/DX2                !
 ! D22   D(5,6,7,8)              0.5955         estimate D2E/DX2                !
 ! D23   D(5,6,7,22)          -176.9425         estimate D2E/DX2                !
 ! D24   D(21,6,7,8)           179.8416         estimate D2E/DX2                !
 ! D25   D(21,6,7,22)            2.3036         estimate D2E/DX2                !
 ! D26   D(6,7,8,3)             -0.328          estimate D2E/DX2                !
 ! D27   D(6,7,8,9)           -176.1388         estimate D2E/DX2                !
 ! D28   D(22,7,8,3)           177.2391         estimate D2E/DX2                !
 ! D29   D(22,7,8,9)             1.4284         estimate D2E/DX2                !
 ! D30   D(3,8,9,10)           148.261          estimate D2E/DX2                !
 ! D31   D(3,8,9,23)           -29.6945         estimate D2E/DX2                !
 ! D32   D(7,8,9,10)           -35.9078         estimate D2E/DX2                !
 ! D33   D(7,8,9,23)           146.1367         estimate D2E/DX2                !
 ! D34   D(8,9,10,11)          -16.9446         estimate D2E/DX2                !
 ! D35   D(8,9,10,15)          164.8557         estimate D2E/DX2                !
 ! D36   D(23,9,10,11)         160.9871         estimate D2E/DX2                !
 ! D37   D(23,9,10,15)         -17.2126         estimate D2E/DX2                !
 ! D38   D(9,10,11,12)        -179.077          estimate D2E/DX2                !
 ! D39   D(9,10,11,24)          -0.8954         estimate D2E/DX2                !
 ! D40   D(15,10,11,12)         -0.8517         estimate D2E/DX2                !
 ! D41   D(15,10,11,24)        177.3299         estimate D2E/DX2                !
 ! D42   D(9,10,15,14)         179.1967         estimate D2E/DX2                !
 ! D43   D(9,10,15,28)          -1.3045         estimate D2E/DX2                !
 ! D44   D(11,10,15,14)          0.9401         estimate D2E/DX2                !
 ! D45   D(11,10,15,28)       -179.5611         estimate D2E/DX2                !
 ! D46   D(10,11,12,13)          0.2256         estimate D2E/DX2                !
 ! D47   D(10,11,12,25)        179.935          estimate D2E/DX2                !
 ! D48   D(24,11,12,13)       -177.9368         estimate D2E/DX2                !
 ! D49   D(24,11,12,25)          1.7726         estimate D2E/DX2                !
 ! D50   D(11,12,13,14)          0.3323         estimate D2E/DX2                !
 ! D51   D(11,12,13,26)       -179.9527         estimate D2E/DX2                !
 ! D52   D(25,12,13,14)       -179.3771         estimate D2E/DX2                !
 ! D53   D(25,12,13,26)          0.3379         estimate D2E/DX2                !
 ! D54   D(12,13,14,15)         -0.244          estimate D2E/DX2                !
 ! D55   D(12,13,14,27)        179.742          estimate D2E/DX2                !
 ! D56   D(26,13,14,15)       -179.959          estimate D2E/DX2                !
 ! D57   D(26,13,14,27)          0.027          estimate D2E/DX2                !
 ! D58   D(13,14,15,10)         -0.4027         estimate D2E/DX2                !
 ! D59   D(13,14,15,28)       -179.8943         estimate D2E/DX2                !
 ! D60   D(27,14,15,10)        179.6113         estimate D2E/DX2                !
 ! D61   D(27,14,15,28)          0.1198         estimate D2E/DX2                !
 --------------------------------------------------------------------------------
 Trust Radius=3.00D-01 FncErr=1.00D-07 GrdErr=1.00D-06 EigMax=2.50D+02 EigMin=1.00D-04
 Number of steps in this run=    146 maximum allowed number of steps=    168.
 GradGradGradGradGradGradGradGradGradGradGradGradGradGradGradGradGradGrad

                          Input orientation:                          
 ---------------------------------------------------------------------
 Center     Atomic      Atomic             Coordinates (Angstroms)
 Number     Number       Type             X           Y           Z
 ---------------------------------------------------------------------
      1          6           0       -1.698950   -2.304220   -1.023910
      2          8           0       -2.359430   -1.719730    0.077690
      3          6           0       -2.226210   -0.310930    0.118000
      4          6           0       -3.331990    0.510860   -0.061070
      5          6           0       -3.202040    1.884710   -0.045210
      6          6           0       -1.966190    2.460660    0.161630
      7          6           0       -0.855020    1.664190    0.356620
      8          6           0       -0.959270    0.281870    0.335770
      9          7           0        0.144150   -0.558630    0.611260
     10          6           0        1.497580   -0.357070    0.275760
     11          6           0        1.880470    0.569830   -0.692930
     12          6           0        3.207060    0.737930   -1.019270
     13          6           0        4.177200   -0.017910   -0.389700
     14          6           0        3.813920   -0.948980    0.564280
     15          6           0        2.488170   -1.121360    0.892140
     16          1           0       -0.648840   -2.012670   -1.035280
     17          1           0       -2.177070   -1.973360   -1.946420
     18          1           0       -1.773600   -3.389200   -0.946530
     19          1           0       -4.290880    0.050890   -0.220690
     20          1           0       -4.069070    2.507900   -0.190960
     21          1           0       -1.868900    3.533680    0.183330
     22          1           0        0.100390    2.111380    0.566830
     23          1           0       -0.082060   -1.428450    1.086390
     24          1           0        1.122190    1.133890   -1.205840
     25          1           0        3.489330    1.457160   -1.770650
     26          1           0        5.215540    0.115360   -0.645720
     27          1           0        4.570180   -1.541620    1.052510
     28          1           0        2.201070   -1.844170    1.635750
 ---------------------------------------------------------------------
                    Distance matrix (angstroms):
                    1          2          3          4          5
     1  C    0.000000
     2  O    1.411164   0.000000
     3  C    2.356940   1.415659   0.000000
     4  C    3.393900   2.437347   1.389300   0.000000
     5  C    4.556783   3.703658   2.408260   1.380073   0.000000
     6  C    4.917418   4.199684   2.784102   2.390967   1.379067
     7  C    4.285599   3.713754   2.416237   2.764058   2.391359
     8  C    3.013921   2.456309   1.415617   2.416551   2.782851
     9  N    3.019583   2.810830   2.433776   3.698565   4.194979
    10  C    3.962113   4.095437   3.727416   4.918486   5.216802
    11  C    4.602386   4.879825   4.277636   5.250949   5.289646
    12  C    5.772662   6.182979   5.649240   6.612782   6.583347
    13  C    6.337079   6.770685   6.430185   7.534954   7.628356
    14  C    5.894977   6.240278   6.090110   7.320261   7.591111
    15  C    4.754196   4.951828   4.845768   6.119397   6.503351
    16  H    1.089891   2.061707   2.591152   3.810063   4.763259
    17  H    1.090455   2.048073   2.651022   3.325618   4.421523
    18  H    1.090294   2.044347   3.288438   4.292212   5.537774
    19  H    3.593022   2.637162   2.123320   1.075417   2.139921
    20  H    5.428423   4.568139   3.381921   2.132681   1.077659
    21  H    5.963840   5.277319   3.861731   3.367166   2.132744
    22  H    5.026490   4.579015   3.388525   3.838900   3.366306
    23  H    2.799048   2.507735   2.604613   3.954698   4.689544
    24  H    4.451127   4.681055   3.879670   4.640946   4.539797
    25  H    6.451655   6.907748   6.273798   7.095671   6.923466
    26  H    7.335364   7.827583   7.492972   8.576626   8.622463
    27  H    6.647937   7.000107   6.969851   8.239965   8.564586
    28  H    4.742952   4.820912   4.924957   6.248209   6.776708
                    6          7          8          9         10
     6  C    0.000000
     7  C    1.380972   0.000000
     8  C    2.406520   1.386402   0.000000
     9  N    3.711039   2.450329   1.414168   0.000000
    10  C    4.466579   3.102702   2.539283   1.408886   0.000000
    11  C    4.370618   3.127632   3.034018   2.447272   1.394313
    12  C    5.578964   4.387656   4.404819   3.704202   2.407997
    13  C    6.647444   5.358143   5.196104   4.190440   2.781767
    14  C    6.722904   5.354510   4.934628   3.690771   2.408118
    15  C    5.762450   4.384403   3.763435   2.426930   1.394752
    16  H    4.814425   3.936902   2.690922   2.335414   3.011139
    17  H    4.914151   4.503730   3.431835   3.732459   4.588413
    18  H    5.957010   5.298938   3.972931   3.757207   4.624762
    19  H    3.370066   3.839422   3.385650   4.553367   5.824016
    20  H    2.132758   3.367760   3.860506   5.272417   6.278015
    21  H    1.077640   2.133770   3.380079   4.580665   5.145840
    22  H    2.134698   1.075628   2.126823   2.670738   2.851334
    23  H    4.419310   3.270238   2.063522   1.016615   2.073702
    24  H    3.628827   2.575240   2.726715   2.668902   2.135186
    25  H    5.873961   4.841644   5.060470   4.574618   3.383237
    26  H    7.597993   6.344703   6.254544   5.268136   3.859474
    27  H    7.715960   6.339896   5.866315   4.555295   3.383396
    28  H    6.170142   4.825396   4.024642   2.633080   2.134464
                   11         12         13         14         15
    11  C    0.000000
    12  C    1.376443   0.000000
    13  C    2.390053   1.381602   0.000000
    14  C    2.761447   2.391981   1.381645   0.000000
    15  C    2.396220   2.761748   2.390301   1.376525   0.000000
    16  H    3.630967   4.736457   5.261797   4.858627   3.788168
    17  H    4.950019   6.099144   6.828170   6.576088   5.527006
    18  H    5.393557   6.468807   6.862046   6.281528   5.165897
    19  H    6.211109   7.571582   8.470046   8.203883   6.969080
    20  H    6.277349   7.533987   8.626713   8.640714   7.572452
    21  H    4.859014   5.918432   7.035445   7.248021   6.415284
    22  H    2.670591   3.748797   4.697787   4.812080   4.032112
    23  H    3.318226   4.466018   4.723321   3.959943   2.595789
    24  H    1.075281   2.130323   3.365385   3.836285   3.369506
    25  H    2.130086   1.077748   2.134483   3.368496   3.839471
    26  H    3.366224   2.135679   1.077709   2.135757   3.366458
    27  H    3.839182   3.368489   2.134501   1.077738   2.130048
    28  H    3.369411   3.837758   3.367902   2.133237   1.076028
                   16         17         18         19         20
    16  H    0.000000
    17  H    1.779665   0.000000
    18  H    1.779830   1.779655   0.000000
    19  H    4.264539   3.397635   4.324091   0.000000
    20  H    5.731178   5.171363   6.373057   2.467181   0.000000
    21  H    5.808232   5.912554   7.015122   4.261343   2.456230
    22  H    4.487303   5.309270   6.004871   4.914169   4.256274
    23  H    2.272452   3.726115   3.292205   4.648771   5.746540
    24  H    3.614758   4.592230   5.376912   5.607561   5.465077
    25  H    5.450224   6.626270   7.201723   8.056776   7.792874
    26  H    6.250698   7.791358   7.824353   9.516135   9.598700
    27  H    5.640827   7.396307   6.903134   9.092607   9.621927
    28  H    3.909575   5.658334   4.985307   7.013062   7.848060
                   21         22         23         24         25
    21  H    0.000000
    22  H    2.459291   0.000000
    23  H    5.350799   3.582405   0.000000
    24  H    4.078652   2.267580   3.642818   0.000000
    25  H    6.069646   4.168541   5.407795   2.454968   0.000000
    26  H    7.909584   5.623089   5.783435   4.255191   2.458800
    27  H    8.244750   5.793040   4.653740   4.913973   4.258069
    28  H    6.898946   4.604544   2.384807   4.255286   4.915481
                   26         27         28
    26  H    0.000000
    27  H    2.458873   0.000000
    28  H    4.258156   2.458534   0.000000
 Stoichiometry    C13H13NO
 Framework group  C1[X(C13H13NO)]
 Deg. of freedom    78
 Full point group                 C1      NOp   1
 Largest Abelian subgroup         C1      NOp   1
 Largest concise Abelian subgroup C1      NOp   1
                         Standard orientation:                         
 ---------------------------------------------------------------------
 Center     Atomic      Atomic             Coordinates (Angstroms)
 Number     Number       Type             X           Y           Z
 ---------------------------------------------------------------------
      1          6           0       -1.433876    2.479539    1.003601
      2          8           0       -2.154788    1.974324   -0.099317
      3          6           0       -2.184287    0.559529   -0.139034
      4          6           0       -3.377574   -0.129638    0.037791
      5          6           0       -3.406356   -1.509327    0.022510
      6          6           0       -2.244452   -2.223599   -0.181502
      7          6           0       -1.048686   -1.560210   -0.374229
      8          6           0       -0.993412   -0.175059   -0.353903
      9          7           0        0.199889    0.532921   -0.627157
     10          6           0        1.520459    0.177296   -0.288653
     11          6           0        1.792194   -0.787019    0.681071
     12          6           0        3.089967   -1.106326    1.010350
     13          6           0        4.141902   -0.467290    0.382744
     14          6           0        3.890095    0.498921   -0.572228
     15          6           0        2.593651    0.822381   -0.903026
     16          1           0       -0.424262    2.069232    1.017332
     17          1           0       -1.948838    2.206252    1.925133
     18          1           0       -1.383162    3.565873    0.925826
     19          1           0       -4.277583    0.437568    0.195214
     20          1           0       -4.339579   -2.028667    0.166495
     21          1           0       -2.271089   -3.300700   -0.202759
     22          1           0       -0.150556   -2.114344   -0.582252
     23          1           0        0.076174    1.422756   -1.102967
     24          1           0        0.973008   -1.259950    1.192441
     25          1           0        3.286085   -1.852883    1.762500
     26          1           0        5.157491   -0.718900    0.641064
     27          1           0        4.710507    1.000486   -1.058929
     28          1           0        2.393130    1.573054   -1.647417
 ---------------------------------------------------------------------
 Rotational constants (GHZ):           1.1990970           0.3730415           0.3096115
 Standard basis: def2SVP (5D, 7F)
 There are   290 symmetry adapted cartesian basis functions of A   symmetry.
 There are   275 symmetry adapted basis functions of A   symmetry.
   275 basis functions,   466 primitive gaussians,   290 cartesian basis functions
    53 alpha electrons       53 beta electrons
       nuclear repulsion energy       924.6848080685 Hartrees.
 NAtoms=   28 NActive=   28 NUniq=   28 SFac= 1.00D+00 NAtFMM=   60 NAOKFM=F Big=F
 Integral buffers will be    131072 words long.
 Raffenetti 2 integral format.
 Two-electron integral symmetry is turned on.
 Nuclear repulsion after empirical dispersion term =      924.6671205444 Hartrees.
 One-electron integrals computed using PRISM.
   1 Symmetry operations used in ECPInt.
 ECPInt:  NShTT=    8385 NPrTT=   30369 LenC2=    7947 LenP2D=   21006.
 LDataN:  DoStor=T MaxTD1= 4 Len=   56
 NBasis=   275 RedAO= T EigKep=  1.99D-04  NBF=   275
 NBsUse=   275 1.00D-06 EigRej= -1.00D+00 NBFU=   275
 ExpMin= 1.22D-01 ExpMax= 2.27D+03 ExpMxC= 3.41D+02 IAcc=3 IRadAn=         5 AccDes= 0.00D+00
 Harris functional with IExCor= 4639 and IRadAn=       5 diagonalized for initial guess.
 HarFok:  IExCor= 4639 AccDes= 0.00D+00 IRadAn=         5 IDoV= 1 UseB2=F ITyADJ=14
 ICtDFT=  3500011 ScaDFX=  1.000000  1.000000  1.000000  1.000000
 FoFCou: FMM=F IPFlag=           0 FMFlag=      100000 FMFlg1=           0
         NFxFlg=           0 DoJE=T BraDBF=F KetDBF=T FulRan=T
         wScrn=  0.000000 ICntrl=       500 IOpCl=  0 I1Cent=   200000004 NGrid=           0
         NMat0=    1 NMatS0=      1 NMatT0=    0 NMatD0=    1 NMtDS0=    0 NMtDT0=    0
 Petite list used in FoFCou.
 Requested convergence on RMS density matrix=1.00D-08 within 128 cycles.
 Requested convergence on MAX density matrix=1.00D-06.
 Requested convergence on             energy=1.00D-06.
 No special actions if energy rises.
 Integral accuracy reduced to 1.0D-05 until final iterations.
 Initial convergence to 1.0D-05 achieved.  Increase integral accuracy.
 SCF Done:  E(RwB97XD) =  -632.505564231     A.U. after   15 cycles
            NFock= 15  Conv=0.72D-08     -V/T= 2.0103

 **********************************************************************

            Population analysis using the SCF Density.

 **********************************************************************

 Orbital symmetries:
       Occupied  (A) (A) (A) (A) (A) (A) (A) (A) (A) (A) (A) (A)
                 (A) (A) (A) (A) (A) (A) (A) (A) (A) (A) (A) (A)
                 (A) (A) (A) (A) (A) (A) (A) (A) (A) (A) (A) (A)
                 (A) (A) (A) (A) (A) (A) (A) (A) (A) (A) (A) (A)
                 (A) (A) (A) (A) (A)
       Virtual   (A) (A) (A) (A) (A) (A) (A) (A) (A) (A) (A) (A)
                 (A) (A) (A) (A) (A) (A) (A) (A) (A) (A) (A) (A)
                 (A) (A) (A) (A) (A) (A) (A) (A) (A) (A) (A) (A)
                 (A) (A) (A) (A) (A) (A) (A) (A) (A) (A) (A) (A)
                 (A) (A) (A) (A) (A) (A) (A) (A) (A) (A) (A) (A)
                 (A) (A) (A) (A) (A) (A) (A) (A) (A) (A) (A) (A)
                 (A) (A) (A) (A) (A) (A) (A) (A) (A) (A) (A) (A)
                 (A) (A) (A) (A) (A) (A) (A) (A) (A) (A) (A) (A)
                 (A) (A) (A) (A) (A) (A) (A) (A) (A) (A) (A) (A)
                 (A) (A) (A) (A) (A) (A) (A) (A) (A) (A) (A) (A)
                 (A) (A) (A) (A) (A) (A) (A) (A) (A) (A) (A) (A)
                 (A) (A) (A) (A) (A) (A) (A) (A) (A) (A) (A) (A)
                 (A) (A) (A) (A) (A) (A) (A) (A) (A) (A) (A) (A)
                 (A) (A) (A) (A) (A) (A) (A) (A) (A) (A) (A) (A)
                 (A) (A) (A) (A) (A) (A) (A) (A) (A) (A) (A) (A)
                 (A) (A) (A) (A) (A) (A) (A) (A) (A) (A) (A) (A)
                 (A) (A) (A) (A) (A) (A) (A) (A) (A) (A) (A) (A)
                 (A) (A) (A) (A) (A) (A) (A) (A) (A) (A) (A) (A)
                 (A) (A) (A) (A) (A) (A)
 The electronic state is 1-A.
 Alpha  occ. eigenvalues --  -19.27634 -14.47081 -10.35617 -10.34759 -10.34703
 Alpha  occ. eigenvalues --  -10.34097 -10.30074 -10.29980 -10.29944 -10.29932
 Alpha  occ. eigenvalues --  -10.29868 -10.29675 -10.29619 -10.29311 -10.28907
 Alpha  occ. eigenvalues --   -1.14035  -1.04012  -0.95912  -0.94010  -0.85518
 Alpha  occ. eigenvalues --   -0.84920  -0.84268  -0.81470  -0.77489  -0.72017
 Alpha  occ. eigenvalues --   -0.71406  -0.68877  -0.67643  -0.62990  -0.62433
 Alpha  occ. eigenvalues --   -0.59716  -0.57793  -0.56481  -0.55103  -0.54849
 Alpha  occ. eigenvalues --   -0.53237  -0.52530  -0.52033  -0.51649  -0.51030
 Alpha  occ. eigenvalues --   -0.48619  -0.46818  -0.45776  -0.45142  -0.43965
 Alpha  occ. eigenvalues --   -0.42904  -0.42605  -0.40644  -0.36704  -0.33961
 Alpha  occ. eigenvalues --   -0.33605  -0.32257  -0.26859
 Alpha virt. eigenvalues --    0.05133   0.06116   0.06473   0.09207   0.14061
 Alpha virt. eigenvalues --    0.14609   0.15624   0.17333   0.18948   0.19562
 Alpha virt. eigenvalues --    0.20232   0.21070   0.21460   0.21868   0.22765
 Alpha virt. eigenvalues --    0.23594   0.23943   0.24607   0.24854   0.26235
 Alpha virt. eigenvalues --    0.29216   0.32780   0.34508   0.35904   0.37550
 Alpha virt. eigenvalues --    0.37935   0.38305   0.39162   0.39875   0.40668
 Alpha virt. eigenvalues --    0.42100   0.44316   0.45048   0.47336   0.48525
 Alpha virt. eigenvalues --    0.49254   0.49987   0.51437   0.53052   0.54110
 Alpha virt. eigenvalues --    0.54896   0.55376   0.56077   0.56738   0.57478
 Alpha virt. eigenvalues --    0.58141   0.58277   0.58903   0.59820   0.61301
 Alpha virt. eigenvalues --    0.61739   0.63316   0.64634   0.64673   0.65528
 Alpha virt. eigenvalues --    0.66928   0.69385   0.69702   0.71075   0.71664
 Alpha virt. eigenvalues --    0.72802   0.73991   0.74193   0.74534   0.74990
 Alpha virt. eigenvalues --    0.75748   0.76025   0.76684   0.78102   0.78974
 Alpha virt. eigenvalues --    0.80301   0.80793   0.80898   0.81961   0.82331
 Alpha virt. eigenvalues --    0.83318   0.83949   0.84920   0.86112   0.87531
 Alpha virt. eigenvalues --    0.87999   0.89357   0.90043   0.90829   0.92557
 Alpha virt. eigenvalues --    0.94774   0.95467   0.96619   1.01833   1.02637
 Alpha virt. eigenvalues --    1.03231   1.04977   1.07561   1.14897   1.15959
 Alpha virt. eigenvalues --    1.18632   1.21295   1.23540   1.24934   1.28289
 Alpha virt. eigenvalues --    1.28825   1.30356   1.30973   1.32614   1.33069
 Alpha virt. eigenvalues --    1.33886   1.34133   1.36813   1.37624   1.38927
 Alpha virt. eigenvalues --    1.40013   1.40308   1.43149   1.44355   1.45607
 Alpha virt. eigenvalues --    1.49731   1.55239   1.57583   1.59894   1.62529
 Alpha virt. eigenvalues --    1.64692   1.70633   1.72748   1.74135   1.75346
 Alpha virt. eigenvalues --    1.76903   1.77608   1.79478   1.80403   1.80933
 Alpha virt. eigenvalues --    1.82254   1.83126   1.83726   1.84249   1.85354
 Alpha virt. eigenvalues --    1.85977   1.86729   1.86837   1.87503   1.88485
 Alpha virt. eigenvalues --    1.89004   1.89584   1.90360   1.91980   1.93506
 Alpha virt. eigenvalues --    1.95787   1.96469   1.97555   2.00783   2.01880
 Alpha virt. eigenvalues --    2.03622   2.04314   2.04677   2.05771   2.07715
 Alpha virt. eigenvalues --    2.08381   2.09997   2.11360   2.14046   2.18029
 Alpha virt. eigenvalues --    2.18456   2.20384   2.21636   2.23444   2.23716
 Alpha virt. eigenvalues --    2.24208   2.26254   2.26553   2.29637   2.30130
 Alpha virt. eigenvalues --    2.32115   2.33903   2.37208   2.38007   2.39304
 Alpha virt. eigenvalues --    2.40680   2.41086   2.42288   2.43064   2.44131
 Alpha virt. eigenvalues --    2.45711   2.48221   2.49341   2.51522   2.56319
 Alpha virt. eigenvalues --    2.59609   2.63401   2.66600   2.70387   2.70830
 Alpha virt. eigenvalues --    2.73009   2.74026   2.75390   2.77731   2.78337
 Alpha virt. eigenvalues --    2.80846   2.84274   2.84784   2.85205   2.86340
 Alpha virt. eigenvalues --    2.89227   2.92715   2.94142   2.96047   2.99147
 Alpha virt. eigenvalues --    3.00861   3.03669   3.07182   3.09356   3.12203
 Alpha virt. eigenvalues --    3.14493   3.18561   3.22570   3.23920   3.28271
 Alpha virt. eigenvalues --    3.32210   3.36279   3.44231   3.55315   3.59284
 Alpha virt. eigenvalues --    3.80104   3.81499
          Condensed to atoms (all electrons):
               1          2          3          4          5          6
     1  C    4.422412   0.292888  -0.048972  -0.002458  -0.000038   0.000092
     2  O    0.292888   7.959755   0.371533  -0.058451   0.005724  -0.000415
     3  C   -0.048972   0.371533   5.195074   0.315373   0.113754  -0.170572
     4  C   -0.002458  -0.058451   0.315373   5.124770   0.221307   0.106809
     5  C   -0.000038   0.005724   0.113754   0.221307   5.154485   0.252750
     6  C    0.000092  -0.000415  -0.170572   0.106809   0.252750   5.092445
     7  C    0.000120   0.005697   0.099718  -0.133356   0.089558   0.259721
     8  C   -0.008994  -0.090772   0.121813   0.071777  -0.159694   0.131464
     9  N   -0.008172  -0.007807  -0.094959   0.007483  -0.000311   0.007375
    10  C    0.000063   0.000025   0.007813  -0.000282   0.000029   0.000200
    11  C    0.000046  -0.000028  -0.000463   0.000047  -0.000024  -0.000390
    12  C   -0.000020   0.000000  -0.000009   0.000001   0.000001  -0.000010
    13  C    0.000000  -0.000000   0.000000  -0.000000  -0.000000   0.000000
    14  C   -0.000007  -0.000000  -0.000007  -0.000000  -0.000000   0.000000
    15  C    0.000095  -0.000028  -0.000061  -0.000007   0.000000   0.000001
    16  H    0.404340  -0.037684  -0.020038  -0.000766   0.000212   0.000052
    17  H    0.394850  -0.036439   0.009159   0.005823  -0.000642  -0.000057
    18  H    0.400689  -0.021840   0.004170  -0.000336   0.000025  -0.000003
    19  H   -0.000653   0.000613  -0.071768   0.454530  -0.079966   0.015725
    20  H    0.000002  -0.000077   0.015766  -0.069725   0.456710  -0.073289
    21  H   -0.000000   0.000004  -0.001908   0.014216  -0.072538   0.455527
    22  H   -0.000017  -0.000059   0.016574  -0.002877   0.015363  -0.069904
    23  H   -0.002184   0.017312  -0.015362   0.000905  -0.000166  -0.000021
    24  H    0.000129  -0.000001  -0.000508  -0.000024  -0.000095   0.000956
    25  H    0.000000  -0.000000   0.000001  -0.000000   0.000000  -0.000002
    26  H    0.000000   0.000000   0.000000  -0.000000  -0.000000  -0.000000
    27  H    0.000000   0.000000  -0.000000   0.000000  -0.000000  -0.000000
    28  H    0.000034  -0.000039  -0.000001  -0.000002   0.000000  -0.000001
               7          8          9         10         11         12
     1  C    0.000120  -0.008994  -0.008172   0.000063   0.000046  -0.000020
     2  O    0.005697  -0.090772  -0.007807   0.000025  -0.000028   0.000000
     3  C    0.099718   0.121813  -0.094959   0.007813  -0.000463  -0.000009
     4  C   -0.133356   0.071777   0.007483  -0.000282   0.000047   0.000001
     5  C    0.089558  -0.159694  -0.000311   0.000029  -0.000024   0.000001
     6  C    0.259721   0.131464   0.007375   0.000200  -0.000390  -0.000010
     7  C    5.175373   0.238335  -0.068747  -0.013003  -0.003652   0.000040
     8  C    0.238335   5.343141   0.348105  -0.034867  -0.009123  -0.000011
     9  N   -0.068747   0.348105   6.470656   0.352192  -0.084158   0.007800
    10  C   -0.013003  -0.034867   0.352192   5.077165   0.246250   0.119087
    11  C   -0.003652  -0.009123  -0.084158   0.246250   5.217530   0.289988
    12  C    0.000040  -0.000011   0.007800   0.119087   0.289988   5.021927
    13  C   -0.000049   0.000065  -0.000357  -0.161682   0.079396   0.288233
    14  C    0.000051  -0.000341   0.007500   0.117203  -0.145395   0.095914
    15  C   -0.000203   0.008402  -0.090081   0.272091   0.054217  -0.146795
    16  H   -0.001812   0.009114   0.019769   0.001330  -0.000506   0.000042
    17  H   -0.000067  -0.004272   0.000411  -0.000077   0.000015   0.000002
    18  H    0.000052   0.000275  -0.000107  -0.000046   0.000002   0.000000
    19  H   -0.003701   0.022714  -0.000090   0.000005   0.000000  -0.000000
    20  H    0.016014  -0.002893   0.000005   0.000000  -0.000000  -0.000000
    21  H   -0.068849   0.016014  -0.000112  -0.000017   0.000032  -0.000002
    22  H    0.464253  -0.072477  -0.011347   0.003204   0.002339   0.000800
    23  H    0.006925  -0.031616   0.364848  -0.018452   0.008936  -0.000135
    24  H    0.003188   0.005390  -0.013715  -0.072883   0.460151  -0.066083
    25  H    0.000027  -0.000014  -0.000113   0.015258  -0.068072   0.453307
    26  H    0.000000   0.000000   0.000009  -0.001611   0.015053  -0.069709
    27  H    0.000000   0.000005  -0.000112   0.015160  -0.001848   0.013937
    28  H   -0.000025   0.000117  -0.011315  -0.077397   0.017129  -0.002560
              13         14         15         16         17         18
     1  C    0.000000  -0.000007   0.000095   0.404340   0.394850   0.400689
     2  O   -0.000000  -0.000000  -0.000028  -0.037684  -0.036439  -0.021840
     3  C    0.000000  -0.000007  -0.000061  -0.020038   0.009159   0.004170
     4  C   -0.000000  -0.000000  -0.000007  -0.000766   0.005823  -0.000336
     5  C   -0.000000  -0.000000   0.000000   0.000212  -0.000642   0.000025
     6  C    0.000000   0.000000   0.000001   0.000052  -0.000057  -0.000003
     7  C   -0.000049   0.000051  -0.000203  -0.001812  -0.000067   0.000052
     8  C    0.000065  -0.000341   0.008402   0.009114  -0.004272   0.000275
     9  N   -0.000357   0.007500  -0.090081   0.019769   0.000411  -0.000107
    10  C   -0.161682   0.117203   0.272091   0.001330  -0.000077  -0.000046
    11  C    0.079396  -0.145395   0.054217  -0.000506   0.000015   0.000002
    12  C    0.288233   0.095914  -0.146795   0.000042   0.000002   0.000000
    13  C    5.102658   0.288584   0.080953   0.000013  -0.000000  -0.000000
    14  C    0.288584   5.011207   0.299294   0.000021  -0.000000   0.000001
    15  C    0.080953   0.299294   5.185362  -0.000875  -0.000009   0.000013
    16  H    0.000013   0.000021  -0.000875   0.665434  -0.038382  -0.024181
    17  H   -0.000000  -0.000000  -0.000009  -0.038382   0.668440  -0.025016
    18  H   -0.000000   0.000001   0.000013  -0.024181  -0.025016   0.618657
    19  H   -0.000000   0.000000  -0.000000   0.000285  -0.000139  -0.000114
    20  H    0.000000  -0.000000   0.000000  -0.000003   0.000016  -0.000000
    21  H    0.000000  -0.000000   0.000000   0.000001  -0.000000   0.000000
    22  H   -0.000085   0.000024  -0.000571   0.000061  -0.000000  -0.000001
    23  H   -0.000059   0.000328  -0.017500  -0.007589   0.001127  -0.000233
    24  H    0.014798  -0.002425   0.015361  -0.000164   0.000003  -0.000003
    25  H   -0.071318   0.014199  -0.001930  -0.000003  -0.000000   0.000000
    26  H    0.452995  -0.070410   0.014687  -0.000000  -0.000000  -0.000000
    27  H   -0.069398   0.451225  -0.067238  -0.000001   0.000000  -0.000000
    28  H    0.015071  -0.062308   0.450425  -0.000004  -0.000005   0.000006
              19         20         21         22         23         24
     1  C   -0.000653   0.000002  -0.000000  -0.000017  -0.002184   0.000129
     2  O    0.000613  -0.000077   0.000004  -0.000059   0.017312  -0.000001
     3  C   -0.071768   0.015766  -0.001908   0.016574  -0.015362  -0.000508
     4  C    0.454530  -0.069725   0.014216  -0.002877   0.000905  -0.000024
     5  C   -0.079966   0.456710  -0.072538   0.015363  -0.000166  -0.000095
     6  C    0.015725  -0.073289   0.455527  -0.069904  -0.000021   0.000956
     7  C   -0.003701   0.016014  -0.068849   0.464253   0.006925   0.003188
     8  C    0.022714  -0.002893   0.016014  -0.072477  -0.031616   0.005390
     9  N   -0.000090   0.000005  -0.000112  -0.011347   0.364848  -0.013715
    10  C    0.000005   0.000000  -0.000017   0.003204  -0.018452  -0.072883
    11  C    0.000000  -0.000000   0.000032   0.002339   0.008936   0.460151
    12  C   -0.000000  -0.000000  -0.000002   0.000800  -0.000135  -0.066083
    13  C   -0.000000   0.000000   0.000000  -0.000085  -0.000059   0.014798
    14  C    0.000000  -0.000000  -0.000000   0.000024   0.000328  -0.002425
    15  C   -0.000000   0.000000   0.000000  -0.000571  -0.017500   0.015361
    16  H    0.000285  -0.000003   0.000001   0.000061  -0.007589  -0.000164
    17  H   -0.000139   0.000016  -0.000000  -0.000000   0.001127   0.000003
    18  H   -0.000114  -0.000000   0.000000  -0.000001  -0.000233  -0.000003
    19  H    0.668531  -0.012991  -0.000238   0.000014  -0.000032  -0.000001
    20  H   -0.012991   0.670844  -0.012395  -0.000245   0.000002  -0.000002
    21  H   -0.000238  -0.012395   0.670256  -0.012501   0.000007   0.000051
    22  H    0.000014  -0.000245  -0.012501   0.657807  -0.000239  -0.003316
    23  H   -0.000032   0.000002   0.000007  -0.000239   0.542408  -0.000163
    24  H   -0.000001  -0.000002   0.000051  -0.003316  -0.000163   0.664833
    25  H    0.000000   0.000000  -0.000000   0.000042   0.000011  -0.012984
    26  H    0.000000  -0.000000   0.000000  -0.000000  -0.000001  -0.000234
    27  H   -0.000000   0.000000   0.000000  -0.000001  -0.000012   0.000022
    28  H    0.000000  -0.000000   0.000000  -0.000005   0.005409  -0.000188
              25         26         27         28
     1  C    0.000000   0.000000   0.000000   0.000034
     2  O   -0.000000   0.000000   0.000000  -0.000039
     3  C    0.000001   0.000000  -0.000000  -0.000001
     4  C   -0.000000  -0.000000   0.000000  -0.000002
     5  C    0.000000  -0.000000  -0.000000   0.000000
     6  C   -0.000002  -0.000000  -0.000000  -0.000001
     7  C    0.000027   0.000000   0.000000  -0.000025
     8  C   -0.000014   0.000000   0.000005   0.000117
     9  N   -0.000113   0.000009  -0.000112  -0.011315
    10  C    0.015258  -0.001611   0.015160  -0.077397
    11  C   -0.068072   0.015053  -0.001848   0.017129
    12  C    0.453307  -0.069709   0.013937  -0.002560
    13  C   -0.071318   0.452995  -0.069398   0.015071
    14  C    0.014199  -0.070410   0.451225  -0.062308
    15  C   -0.001930   0.014687  -0.067238   0.450425
    16  H   -0.000003  -0.000000  -0.000001  -0.000004
    17  H   -0.000000  -0.000000   0.000000  -0.000005
    18  H    0.000000  -0.000000  -0.000000   0.000006
    19  H    0.000000   0.000000  -0.000000   0.000000
    20  H    0.000000  -0.000000   0.000000  -0.000000
    21  H   -0.000000   0.000000   0.000000   0.000000
    22  H    0.000042  -0.000000  -0.000001  -0.000005
    23  H    0.000011  -0.000001  -0.000012   0.005409
    24  H   -0.012984  -0.000234   0.000022  -0.000188
    25  H    0.672755  -0.012366  -0.000261   0.000024
    26  H   -0.012366   0.677190  -0.012396  -0.000240
    27  H   -0.000261  -0.012396   0.671999  -0.013084
    28  H    0.000024  -0.000240  -0.013084   0.690730
 Mulliken charges:
               1
     1  C    0.155755
     2  O   -0.399911
     3  C    0.153878
     4  C   -0.054756
     5  C    0.003555
     6  C   -0.008453
     7  C   -0.065608
     8  C    0.098343
     9  N   -0.194652
    10  C    0.153244
    11  C   -0.077472
    12  C   -0.005743
    13  C   -0.019819
    14  C   -0.004657
    15  C   -0.055603
    16  H    0.031337
    17  H    0.025260
    18  H    0.047991
    19  H    0.007275
    20  H    0.012261
    21  H    0.012453
    22  H    0.013163
    23  H    0.145544
    24  H    0.007906
    25  H    0.011440
    26  H    0.007033
    27  H    0.012005
    28  H   -0.011771
 Sum of Mulliken charges =  -0.00000
 Mulliken charges with hydrogens summed into heavy atoms:
               1
     1  C    0.260344
     2  O   -0.399911
     3  C    0.153878
     4  C   -0.047481
     5  C    0.015816
     6  C    0.004000
     7  C   -0.052444
     8  C    0.098343
     9  N   -0.049108
    10  C    0.153244
    11  C   -0.069566
    12  C    0.005697
    13  C   -0.012786
    14  C    0.007348
    15  C   -0.067374
 Electronic spatial extent (au):  <R**2>=           3557.2603
 Charge=             -0.0000 electrons
 Dipole moment (field-independent basis, Debye):
    X=              0.4098    Y=              0.1617    Z=              0.6839  Tot=              0.8135
 Quadrupole moment (field-independent basis, Debye-Ang):
   XX=            -84.4561   YY=            -82.0307   ZZ=            -88.6844
   XY=              3.1858   XZ=             -2.9963   YZ=             -1.5576
 Traceless Quadrupole moment (field-independent basis, Debye-Ang):
   XX=              0.6010   YY=              3.0263   ZZ=             -3.6273
   XY=              3.1858   XZ=             -2.9963   YZ=             -1.5576
 Octapole moment (field-independent basis, Debye-Ang**2):
  XXX=             -3.3329  YYY=              9.6901  ZZZ=              1.2748  XYY=             -4.9646
  XXY=             -7.6289  XXZ=              7.1367  XZZ=              2.0812  YZZ=             10.4043
  YYZ=              4.9780  XYZ=            -15.2679
 Hexadecapole moment (field-independent basis, Debye-Ang**3):
 XXXX=          -3266.4789 YYYY=           -959.2646 ZZZZ=           -305.4394 XXXY=             26.3443
 XXXZ=            -30.3863 YYYX=              8.1318 YYYZ=             10.2864 ZZZX=             -4.9096
 ZZZY=            -11.1471 XXYY=           -759.9911 XXZZ=           -660.2427 YYZZ=           -213.7807
 XXYZ=            -31.7914 YYXZ=            -11.4884 ZZXY=            -19.9911
 N-N= 9.246671205444D+02 E-N=-3.316587605427D+03  KE= 6.260670681150D+02
   1 Symmetry operations used in ECPInt.
 ECPInt:  NShTT=    8385 NPrTT=   30369 LenC2=    7947 LenP2D=   21006.
 LDataN:  DoStor=T MaxTD1= 5 Len=  102
 Calling FoFJK, ICntrl=      2127 FMM=F ISym2X=0 I1Cent= 0 IOpClX= 0 NMat=1 NMatS=1 NMatT=0.
 ***** Axes restored to original set *****
 -------------------------------------------------------------------
 Center     Atomic                   Forces (Hartrees/Bohr)
 Number     Number              X              Y              Z
 -------------------------------------------------------------------
      1        6          -0.004772334    0.005112678    0.001842388
      2        8           0.003137804    0.033246635    0.008510362
      3        6           0.005563327   -0.023867461   -0.003295017
      4        6           0.004215199   -0.012793320    0.000714397
      5        6          -0.003420835    0.003362589    0.000448896
      6        6           0.001400644    0.001128525   -0.001373166
      7        6          -0.000501384    0.001884496    0.001480581
      8        6           0.009324743   -0.024590890    0.005834296
      9        7           0.002343683    0.003732391   -0.001458951
     10        6          -0.020394242   -0.000022252    0.003207536
     11        6          -0.006989057   -0.000791926   -0.000448452
     12        6           0.002861682   -0.001031075    0.001369708
     13        6           0.008145474    0.001537495   -0.001857668
     14        6           0.001397115    0.000064718   -0.001899741
     15        6          -0.007715058   -0.000022027    0.002301002
     16        1           0.007380208   -0.001069888   -0.004092582
     17        1          -0.001667776    0.000287919   -0.009439679
     18        1          -0.002116561   -0.004642867    0.002711079
     19        1          -0.010167940   -0.006107723   -0.001988028
     20        1          -0.008648625    0.005259851   -0.001437029
     21        1           0.001678388    0.010156054    0.000432857
     22        1           0.009469831    0.004810269    0.002198510
     23        1           0.000282738    0.004145984   -0.002056365
     24        1          -0.006639323    0.006445223   -0.006003819
     25        1           0.001879758    0.006934324   -0.007533923
     26        1           0.010020015    0.001346390   -0.002259814
     27        1           0.006711079   -0.006129117    0.005055297
     28        1          -0.002778555   -0.008386995    0.009037327
 -------------------------------------------------------------------
 Cartesian Forces:  Max     0.033246635 RMS     0.007513421

 GradGradGradGradGradGradGradGradGradGradGradGradGradGradGradGradGradGrad
 Berny optimization.
 FormGI is forming the generalized inverse of G from B-inverse, IUseBI=4.
 Internal  Forces:  Max     0.032946875 RMS     0.006252437
 Search for a local minimum.
 Step number   1 out of a maximum of  146
 All quantities printed in internal units (Hartrees-Bohrs-Radians)
 Mixed Optimization -- RFO/linear search
 Second derivative matrix not updated -- first step.
 ITU=  0
     Eigenvalues ---    0.01485   0.01504   0.01542   0.01544   0.01574
     Eigenvalues ---    0.01917   0.01975   0.01989   0.02049   0.02189
     Eigenvalues ---    0.02269   0.02288   0.02290   0.02296   0.02307
     Eigenvalues ---    0.02332   0.02336   0.02348   0.02351   0.02352
     Eigenvalues ---    0.02359   0.02368   0.02372   0.10358   0.10501
     Eigenvalues ---    0.15986   0.15992   0.15996   0.15999   0.15999
     Eigenvalues ---    0.15999   0.16000   0.16000   0.16000   0.16000
     Eigenvalues ---    0.16000   0.16000   0.16000   0.22000   0.22000
     Eigenvalues ---    0.22000   0.22002   0.22483   0.23466   0.24450
     Eigenvalues ---    0.24932   0.24987   0.25000   0.25000   0.34760
     Eigenvalues ---    0.34779   0.34825   0.36268   0.36269   0.36273
     Eigenvalues ---    0.36279   0.36281   0.36479   0.36528   0.36554
     Eigenvalues ---    0.36571   0.41202   0.43069   0.43121   0.43351
     Eigenvalues ---    0.43613   0.43792   0.43819   0.44179   0.44883
     Eigenvalues ---    0.46409   0.47354   0.47894   0.48168   0.48506
     Eigenvalues ---    0.49044   0.49110   0.49751
 RFO step:  Lambda=-1.75200169D-02 EMin= 1.48464417D-02
 Linear search not attempted -- first point.
 Iteration  1 RMS(Cart)=  0.12325771 RMS(Int)=  0.01004442
 Iteration  2 RMS(Cart)=  0.03482893 RMS(Int)=  0.00076107
 Iteration  3 RMS(Cart)=  0.00114237 RMS(Int)=  0.00023018
 Iteration  4 RMS(Cart)=  0.00000156 RMS(Int)=  0.00023018
 Iteration  5 RMS(Cart)=  0.00000000 RMS(Int)=  0.00023018
 Variable       Old X    -DE/DX   Delta X   Delta X   Delta X     New X
                                 (Linear)    (Quad)   (Total)
    R1        2.66671   0.00659   0.00000   0.01445   0.01445   2.68117
    R2        2.05959   0.00687   0.00000   0.01877   0.01877   2.07837
    R3        2.06066   0.00880   0.00000   0.02411   0.02411   2.08478
    R4        2.06036   0.00496   0.00000   0.01357   0.01357   2.07393
    R5        2.67521  -0.03295   0.00000  -0.07342  -0.07342   2.60178
    R6        2.62540   0.00072   0.00000   0.00030   0.00034   2.62573
    R7        2.67513  -0.00289   0.00000  -0.00800  -0.00795   2.66718
    R8        2.60796   0.01318   0.00000   0.02615   0.02615   2.63411
    R9        2.03224   0.01197   0.00000   0.03126   0.03126   2.06350
   R10        2.60606   0.01373   0.00000   0.02827   0.02823   2.63429
   R11        2.03648   0.01019   0.00000   0.02681   0.02681   2.06329
   R12        2.60966   0.01219   0.00000   0.02521   0.02516   2.63482
   R13        2.03644   0.01027   0.00000   0.02701   0.02701   2.06346
   R14        2.61992   0.01337   0.00000   0.02669   0.02669   2.64661
   R15        2.03264   0.01084   0.00000   0.02832   0.02832   2.06096
   R16        2.67239  -0.01363   0.00000  -0.03022  -0.03022   2.64217
   R17        2.66241  -0.01321   0.00000  -0.02876  -0.02876   2.63365
   R18        1.92112  -0.00457   0.00000  -0.00980  -0.00980   1.91132
   R19        2.63487   0.01081   0.00000   0.02209   0.02209   2.65696
   R20        2.63570   0.00901   0.00000   0.01825   0.01824   2.65393
   R21        2.60110   0.01648   0.00000   0.03212   0.03213   2.63323
   R22        2.03199   0.01093   0.00000   0.02851   0.02851   2.06050
   R23        2.61085   0.01309   0.00000   0.02630   0.02630   2.63715
   R24        2.03665   0.01037   0.00000   0.02728   0.02728   2.06393
   R25        2.61093   0.01293   0.00000   0.02584   0.02585   2.63678
   R26        2.03658   0.01036   0.00000   0.02724   0.02724   2.06381
   R27        2.60125   0.01544   0.00000   0.02985   0.02984   2.63110
   R28        2.03663   0.01037   0.00000   0.02727   0.02727   2.06390
   R29        2.03340   0.01262   0.00000   0.03301   0.03301   2.06641
    A1        1.92656   0.00799   0.00000   0.04741   0.04698   1.97354
    A2        1.90659   0.00543   0.00000   0.03194   0.03141   1.93800
    A3        1.90151  -0.00746   0.00000  -0.04571  -0.04549   1.85602
    A4        1.90971  -0.00329   0.00000  -0.01123  -0.01225   1.89746
    A5        1.91018  -0.00137   0.00000  -0.01025  -0.00995   1.90023
    A6        1.90917  -0.00137   0.00000  -0.01260  -0.01249   1.89669
    A7        1.97183   0.01016   0.00000   0.03797   0.03797   2.00980
    A8        2.10607  -0.01110   0.00000  -0.03918  -0.03952   2.06655
    A9        2.10056   0.00285   0.00000   0.01298   0.01258   2.11314
   A10        2.07654   0.00826   0.00000   0.02642   0.02615   2.10269
   A11        2.10880  -0.00129   0.00000  -0.00703  -0.00701   2.10178
   A12        2.06669  -0.00046   0.00000  -0.00277  -0.00280   2.06389
   A13        2.10767   0.00175   0.00000   0.00972   0.00968   2.11734
   A14        2.09654  -0.00305   0.00000  -0.00902  -0.00906   2.08749
   A15        2.09250   0.00073   0.00000   0.00005   0.00007   2.09258
   A16        2.09413   0.00232   0.00000   0.00897   0.00899   2.10312
   A17        2.09598  -0.00075   0.00000   0.00260   0.00246   2.09844
   A18        2.09413   0.00116   0.00000   0.00306   0.00304   2.09717
   A19        2.09300  -0.00043   0.00000  -0.00589  -0.00591   2.08709
   A20        2.10880  -0.00099   0.00000  -0.00187  -0.00192   2.10687
   A21        2.09730   0.00012   0.00000  -0.00126  -0.00124   2.09606
   A22        2.07631   0.00086   0.00000   0.00290   0.00292   2.07922
   A23        2.07960  -0.00220   0.00000  -0.01149  -0.01154   2.06806
   A24        2.07076  -0.00161   0.00000  -0.00515  -0.00527   2.06549
   A25        2.13057   0.00375   0.00000   0.01488   0.01470   2.14526
   A26        2.23716   0.00437   0.00000   0.01845   0.01845   2.25560
   A27        2.01081  -0.00288   0.00000  -0.01309  -0.01309   1.99772
   A28        2.03471  -0.00148   0.00000  -0.00518  -0.00518   2.02953
   A29        2.12274   0.00579   0.00000   0.02217   0.02215   2.14489
   A30        2.09282  -0.00715   0.00000  -0.02623  -0.02623   2.06659
   A31        2.06721   0.00135   0.00000   0.00375   0.00371   2.07092
   A32        2.10664  -0.00189   0.00000  -0.00812  -0.00812   2.09852
   A33        2.07883   0.00248   0.00000   0.01273   0.01273   2.09156
   A34        2.09728  -0.00059   0.00000  -0.00455  -0.00455   2.09273
   A35        2.09659   0.00279   0.00000   0.01301   0.01302   2.10961
   A36        2.09349  -0.00226   0.00000  -0.01136  -0.01137   2.08212
   A37        2.09309  -0.00054   0.00000  -0.00167  -0.00168   2.09141
   A38        2.09286  -0.00406   0.00000  -0.01558  -0.01557   2.07729
   A39        2.09512   0.00213   0.00000   0.00834   0.00833   2.10346
   A40        2.09519   0.00193   0.00000   0.00723   0.00722   2.10241
   A41        2.09680   0.00188   0.00000   0.00826   0.00825   2.10505
   A42        2.09307  -0.00014   0.00000   0.00039   0.00039   2.09346
   A43        2.09332  -0.00174   0.00000  -0.00865  -0.00866   2.08466
   A44        2.10615  -0.00007   0.00000  -0.00137  -0.00139   2.10477
   A45        2.07602   0.00063   0.00000   0.00402   0.00403   2.08005
   A46        2.10098  -0.00056   0.00000  -0.00264  -0.00263   2.09835
    D1        0.96340   0.00202   0.00000   0.01830   0.01932   0.98272
    D2       -1.13717  -0.00234   0.00000  -0.01760  -0.01848  -1.15564
    D3        3.06134   0.00054   0.00000   0.00598   0.00583   3.06717
    D4        1.98374  -0.00676   0.00000  -0.21319  -0.21359   1.77015
    D5       -1.15264  -0.00862   0.00000  -0.26193  -0.26153  -1.41417
    D6       -3.12208  -0.00062   0.00000  -0.01734  -0.01672  -3.13880
    D7        0.01066  -0.00103   0.00000  -0.02797  -0.02738  -0.01672
    D8        0.01436   0.00121   0.00000   0.03070   0.03088   0.04525
    D9       -3.13607   0.00079   0.00000   0.02007   0.02022  -3.11585
   D10        3.12993   0.00061   0.00000   0.01829   0.01900  -3.13425
   D11       -0.08226  -0.00024   0.00000  -0.00866  -0.00781  -0.09006
   D12       -0.00653  -0.00116   0.00000  -0.02943  -0.02973  -0.03627
   D13        3.06446  -0.00202   0.00000  -0.05638  -0.05654   3.00792
   D14       -0.00991  -0.00021   0.00000  -0.00686  -0.00652  -0.01644
   D15        3.13587  -0.00037   0.00000  -0.01000  -0.00985   3.12602
   D16        3.14073   0.00022   0.00000   0.00409   0.00454  -3.13791
   D17        0.00333   0.00006   0.00000   0.00095   0.00121   0.00454
   D18       -0.00258  -0.00073   0.00000  -0.01818  -0.01815  -0.02073
   D19       -3.13100   0.00008   0.00000   0.00224   0.00221  -3.12880
   D20        3.13482  -0.00057   0.00000  -0.01506  -0.01483   3.12000
   D21        0.00640   0.00023   0.00000   0.00536   0.00553   0.01193
   D22        0.01039   0.00074   0.00000   0.01906   0.01892   0.02931
   D23       -3.08823   0.00098   0.00000   0.02521   0.02515  -3.06308
   D24        3.13883  -0.00005   0.00000  -0.00128  -0.00125   3.13757
   D25        0.04020   0.00019   0.00000   0.00487   0.00497   0.04518
   D26       -0.00573   0.00018   0.00000   0.00485   0.00487  -0.00086
   D27       -3.07420   0.00130   0.00000   0.03366   0.03388  -3.04032
   D28        3.09341  -0.00008   0.00000  -0.00132  -0.00140   3.09200
   D29        0.02493   0.00105   0.00000   0.02749   0.02762   0.05255
   D30        2.58764  -0.00039   0.00000  -0.01547  -0.01533   2.57232
   D31       -0.51827  -0.00062   0.00000  -0.02188  -0.02172  -0.53999
   D32       -0.62671  -0.00154   0.00000  -0.04440  -0.04456  -0.67127
   D33        2.55057  -0.00176   0.00000  -0.05081  -0.05095   2.49961
   D34       -0.29574  -0.00151   0.00000  -0.04482  -0.04482  -0.34056
   D35        2.87727  -0.00108   0.00000  -0.03301  -0.03302   2.84425
   D36        2.80975  -0.00130   0.00000  -0.03847  -0.03846   2.77130
   D37       -0.30042  -0.00087   0.00000  -0.02666  -0.02666  -0.32707
   D38       -3.12548   0.00031   0.00000   0.00577   0.00596  -3.11952
   D39       -0.01563   0.00035   0.00000   0.00778   0.00793  -0.00770
   D40       -0.01486  -0.00026   0.00000  -0.00640  -0.00639  -0.02125
   D41        3.09499  -0.00022   0.00000  -0.00438  -0.00442   3.09057
   D42        3.12757  -0.00039   0.00000  -0.01217  -0.01198   3.11559
   D43       -0.02277  -0.00030   0.00000  -0.00988  -0.00972  -0.03249
   D44        0.01641  -0.00006   0.00000  -0.00109  -0.00106   0.01535
   D45       -3.13393   0.00002   0.00000   0.00120   0.00121  -3.13273
   D46        0.00394   0.00026   0.00000   0.00620   0.00621   0.01014
   D47        3.14046   0.00003   0.00000   0.00074   0.00073   3.14119
   D48       -3.10558   0.00016   0.00000   0.00385   0.00392  -3.10166
   D49        0.03094  -0.00007   0.00000  -0.00160  -0.00155   0.02938
   D50        0.00580   0.00004   0.00000   0.00147   0.00144   0.00724
   D51       -3.14077  -0.00007   0.00000  -0.00144  -0.00145   3.14096
   D52       -3.13072   0.00027   0.00000   0.00696   0.00697  -3.12375
   D53        0.00590   0.00017   0.00000   0.00405   0.00408   0.00997
   D54       -0.00426  -0.00037   0.00000  -0.00896  -0.00897  -0.01323
   D55        3.13709  -0.00008   0.00000  -0.00236  -0.00230   3.13479
   D56       -3.14088  -0.00026   0.00000  -0.00606  -0.00608   3.13622
   D57        0.00047   0.00003   0.00000   0.00054   0.00058   0.00105
   D58       -0.00703   0.00039   0.00000   0.00882   0.00889   0.00186
   D59       -3.13975   0.00030   0.00000   0.00647   0.00657  -3.13318
   D60        3.13481   0.00010   0.00000   0.00222   0.00225   3.13706
   D61        0.00209   0.00001   0.00000  -0.00013  -0.00007   0.00202
         Item               Value     Threshold  Converged?
 Maximum Force            0.032947     0.000450     NO 
 RMS     Force            0.006252     0.000300     NO 
 Maximum Displacement     0.843353     0.001800     NO 
 RMS     Displacement     0.150795     0.001200     NO 
 Predicted change in Energy=-1.027830D-02
 GradGradGradGradGradGradGradGradGradGradGradGradGradGradGradGradGradGrad

                          Input orientation:                          
 ---------------------------------------------------------------------
 Center     Atomic      Atomic             Coordinates (Angstroms)
 Number     Number       Type             X           Y           Z
 ---------------------------------------------------------------------
      1          6           0       -1.894751   -2.296566   -1.158112
      2          8           0       -2.252787   -1.695772    0.076346
      3          6           0       -2.145085   -0.323659    0.112382
      4          6           0       -3.302675    0.433844   -0.017327
      5          6           0       -3.241872    1.826163    0.009902
      6          6           0       -2.012358    2.458417    0.188222
      7          6           0       -0.853452    1.703211    0.363236
      8          6           0       -0.899371    0.303882    0.327963
      9          7           0        0.208243   -0.500071    0.613875
     10          6           0        1.547996   -0.304944    0.283272
     11          6           0        1.962610    0.559552   -0.745117
     12          6           0        3.316530    0.693021   -1.046402
     13          6           0        4.280899   -0.033028   -0.346168
     14          6           0        3.870862   -0.907394    0.660946
     15          6           0        2.521403   -1.043599    0.975523
     16          1           0       -0.874818   -2.042139   -1.481563
     17          1           0       -2.600737   -2.011894   -1.956630
     18          1           0       -1.957982   -3.381250   -1.003468
     19          1           0       -4.250179   -0.090197   -0.158709
     20          1           0       -4.154997    2.413159   -0.107419
     21          1           0       -1.955881    3.548336    0.222959
     22          1           0        0.094936    2.198106    0.575556
     23          1           0       -0.010562   -1.352741    1.111937
     24          1           0        1.219795    1.106039   -1.326909
     25          1           0        3.621466    1.368619   -1.848554
     26          1           0        5.340473    0.075598   -0.587491
     27          1           0        4.612329   -1.487856    1.214234
     28          1           0        2.207693   -1.724826    1.771295
 ---------------------------------------------------------------------
                    Distance matrix (angstroms):
                    1          2          3          4          5
     1  C    0.000000
     2  O    1.418813   0.000000
     3  C    2.359912   1.376805   0.000000
     4  C    3.277008   2.376195   1.389479   0.000000
     5  C    4.491758   3.658789   2.415612   1.393912   0.000000
     6  C    4.943310   4.162645   2.786273   2.409578   1.394004
     7  C    4.404204   3.686940   2.416494   2.784747   2.417543
     8  C    3.156189   2.427686   1.411412   2.431457   2.811728
     9  N    3.284801   2.788424   2.412627   3.687433   4.204694
    10  C    4.230444   4.052552   3.697080   4.915810   5.249685
    11  C    4.817386   4.850862   4.288185   5.316833   5.409344
    12  C    6.008957   6.163132   5.675003   6.703734   6.738875
    13  C    6.627331   6.755168   6.448877   7.605045   7.757285
    14  C    6.203310   6.201804   6.069043   7.329298   7.647691
    15  C    5.062089   4.901708   4.799941   6.090031   6.510246
    16  H    1.099826   2.108519   2.665973   3.764169   4.774010
    17  H    1.103215   2.086622   2.708979   3.199257   4.359930
    18  H    1.097476   2.023300   3.260213   4.163606   5.458246
    19  H    3.378596   2.573460   2.135279   1.091957   2.171992
    20  H    5.328618   4.531609   3.402680   2.156909   1.091844
    21  H    6.006161   5.254552   3.878192   3.401713   2.159872
    22  H    5.212152   4.574199   3.404632   3.874002   3.404790
    23  H    3.097435   2.493531   2.571830   3.912178   4.664899
    24  H    4.615908   4.677402   3.929124   4.756006   4.712973
    25  H    6.658749   6.899463   6.321566   7.222945   7.125210
    26  H    7.635524   7.825345   7.528799   8.669339   8.779408
    27  H    6.973100   6.961885   6.944932   8.237534   8.609392
    28  H    5.073298   4.771748   4.864354   6.182490   6.738679
                    6          7          8          9         10
     6  C    0.000000
     7  C    1.394285   0.000000
     8  C    2.429051   1.400526   0.000000
     9  N    3.723561   2.458551   1.398177   0.000000
    10  C    4.507918   3.131459   2.522355   1.393668   0.000000
    11  C    4.503020   3.235214   3.067215   2.459159   1.406001
    12  C    5.747867   4.516228   4.451307   3.720408   2.427278
    13  C    6.789548   5.466200   5.234803   4.210266   2.817604
    14  C    6.794441   5.405833   4.932868   3.685498   2.429256
    15  C    5.782642   4.394259   3.733194   2.403522   1.404402
    16  H    4.933274   4.175091   2.962904   2.818130   3.464465
    17  H    4.993022   4.715589   3.671080   4.096764   5.014262
    18  H    5.960268   5.379554   4.058764   3.950888   4.838517
    19  H    3.409346   3.876402   3.408821   4.543392   5.818960
    20  H    2.163412   3.409654   3.903550   5.295757   6.329680
    21  H    1.091934   2.153953   3.413754   4.607152   5.208508
    22  H    2.158351   1.090615   2.153609   2.700827   2.908964
    23  H    4.402881   3.257278   2.036909   1.011428   2.052722
    24  H    3.817246   2.740722   2.805873   2.714677   2.165934
    25  H    6.089014   5.002885   5.129217   4.604959   3.412443
    26  H    7.768120   6.474389   6.310771   5.302307   3.909721
    27  H    7.778963   6.386069   5.862990   4.553254   3.414104
    28  H    6.149348   4.806733   3.981547   2.614850   2.159972
                   11         12         13         14         15
    11  C    0.000000
    12  C    1.393444   0.000000
    13  C    2.425855   1.395522   0.000000
    14  C    2.787538   2.404922   1.395323   0.000000
    15  C    2.417218   2.781413   2.421559   1.392318   0.000000
    16  H    3.919458   5.023730   5.648634   5.329115   4.309138
    17  H    5.376266   6.569561   7.339374   7.067758   5.980922
    18  H    5.564864   6.664984   7.110997   6.547186   5.426408
    19  H    6.274137   7.658755   8.533329   8.203106   6.931795
    20  H    6.423989   7.724266   8.786647   8.719568   7.595805
    21  H    5.022407   6.128819   7.214395   7.348217   6.457421
    22  H    2.813759   3.908286   4.832165   4.889687   4.068952
    23  H    3.316462   4.462411   4.720630   3.932833   2.554412
    24  H    1.090369   2.155358   3.410232   3.877323   3.408272
    25  H    2.150341   1.092184   2.157922   3.397061   3.873544
    26  H    3.415994   2.165215   1.092123   2.164400   3.412150
    27  H    3.879684   3.397910   2.158987   1.092171   2.150888
    28  H    3.407459   3.874909   3.412333   2.160370   1.093497
                   16         17         18         19         20
    16  H    0.000000
    17  H    1.790363   0.000000
    18  H    1.787467   1.787956   0.000000
    19  H    4.117412   3.105817   4.098635   0.000000
    20  H    5.700660   5.041468   6.261386   2.505690   0.000000
    21  H    5.943694   6.006880   7.037278   4.318379   2.496775
    22  H    4.811635   5.603812   6.151178   4.965430   4.309829
    23  H    2.819301   4.069348   3.518840   4.602490   5.731071
    24  H    3.784487   4.971370   5.508052   5.719815   5.664283
    25  H    5.655486   7.082045   7.376020   8.182085   8.037163
    26  H    6.626765   8.324360   8.086426   9.601664   9.790741
    27  H    6.138675   7.896664   7.188333   9.076479   9.686624
    28  H    4.492622   6.091045   5.272181   6.935491   7.818971
                   21         22         23         24         25
    21  H    0.000000
    22  H    2.480584   0.000000
    23  H    5.347439   3.592679   0.000000
    24  H    4.295559   2.465216   3.675234   0.000000
    25  H    6.336334   4.358987   5.418665   2.471657   0.000000
    26  H    8.121177   5.776970   5.793253   4.311442   2.493425
    27  H    8.335901   5.865242   4.625996   4.969405   4.303711
    28  H    6.894848   4.613343   2.343897   4.311450   4.967038
                   26         27         28
    26  H    0.000000
    27  H    2.494152   0.000000
    28  H    4.315056   2.479667   0.000000
 Stoichiometry    C13H13NO
 Framework group  C1[X(C13H13NO)]
 Deg. of freedom    78
 Full point group                 C1      NOp   1
 Largest Abelian subgroup         C1      NOp   1
 Largest concise Abelian subgroup C1      NOp   1
                         Standard orientation:                         
 ---------------------------------------------------------------------
 Center     Atomic      Atomic             Coordinates (Angstroms)
 Number     Number       Type             X           Y           Z
 ---------------------------------------------------------------------
      1          6           0       -1.705529    2.512250    1.045307
      2          8           0       -2.108829    1.906699   -0.172760
      3          6           0       -2.135854    0.530208   -0.161140
      4          6           0       -3.363344   -0.105633   -0.021050
      5          6           0       -3.439107   -1.497334   -0.000556
      6          6           0       -2.275855   -2.252476   -0.141464
      7          6           0       -1.046844   -1.620625   -0.326734
      8          6           0       -0.955661   -0.223126   -0.339231
      9          7           0        0.228159    0.458360   -0.637638
     10          6           0        1.539069    0.144935   -0.283248
     11          6           0        1.856971   -0.719603    0.778991
     12          6           0        3.188308   -0.974107    1.102189
     13          6           0        4.225936   -0.370535    0.390493
     14          6           0        3.913350    0.504114   -0.650759
     15          6           0        2.586850    0.760440   -0.987274
     16          1           0       -0.718630    2.170834    1.390387
     17          1           0       -2.443698    2.325861    1.843712
     18          1           0       -1.660596    3.591881    0.853393
     19          1           0       -4.256213    0.513049    0.090258
     20          1           0       -4.406481   -1.987896    0.124588
     21          1           0       -2.326196   -3.343245   -0.138720
     22          1           0       -0.149553   -2.212873   -0.509904
     23          1           0        0.098837    1.310469   -1.166951
     24          1           0        1.058569   -1.170343    1.369155
     25          1           0        3.417772   -1.647928    1.930548
     26          1           0        5.267373   -0.573667    0.649101
     27          1           0        4.713468    0.989769   -1.213599
     28          1           0        2.349145    1.440938   -1.809560
 ---------------------------------------------------------------------
 Rotational constants (GHZ):           1.1888069           0.3610976           0.3044968
 Standard basis: def2SVP (5D, 7F)
 There are   290 symmetry adapted cartesian basis functions of A   symmetry.
 There are   275 symmetry adapted basis functions of A   symmetry.
   275 basis functions,   466 primitive gaussians,   290 cartesian basis functions
    53 alpha electrons       53 beta electrons
       nuclear repulsion energy       917.4389209416 Hartrees.
 NAtoms=   28 NActive=   28 NUniq=   28 SFac= 1.00D+00 NAtFMM=   60 NAOKFM=F Big=F
 Integral buffers will be    131072 words long.
 Raffenetti 2 integral format.
 Two-electron integral symmetry is turned on.
 Nuclear repulsion after empirical dispersion term =      917.4215829466 Hartrees.
 One-electron integrals computed using PRISM.
   1 Symmetry operations used in ECPInt.
 ECPInt:  NShTT=    8385 NPrTT=   30369 LenC2=    7903 LenP2D=   20844.
 LDataN:  DoStor=T MaxTD1= 4 Len=   56
 NBasis=   275 RedAO= T EigKep=  2.10D-04  NBF=   275
 NBsUse=   275 1.00D-06 EigRej= -1.00D+00 NBFU=   275
 Initial guess from the checkpoint file:  "prod_3f_2.chk"
 B after Tr=     0.000000   -0.000000    0.000000
         Rot=    0.999837    0.016414    0.002624   -0.007021 Ang=   2.07 deg.
 ExpMin= 1.22D-01 ExpMax= 2.27D+03 ExpMxC= 3.41D+02 IAcc=3 IRadAn=         5 AccDes= 0.00D+00
 Harris functional with IExCor= 4639 and IRadAn=       5 diagonalized for initial guess.
 HarFok:  IExCor= 4639 AccDes= 0.00D+00 IRadAn=         5 IDoV= 1 UseB2=F ITyADJ=14
 ICtDFT=  3500011 ScaDFX=  1.000000  1.000000  1.000000  1.000000
 FoFCou: FMM=F IPFlag=           0 FMFlag=      100000 FMFlg1=           0
         NFxFlg=           0 DoJE=T BraDBF=F KetDBF=T FulRan=T
         wScrn=  0.000000 ICntrl=       500 IOpCl=  0 I1Cent=   200000004 NGrid=           0
         NMat0=    1 NMatS0=      1 NMatT0=    0 NMatD0=    1 NMtDS0=    0 NMtDT0=    0
 Petite list used in FoFCou.
 Requested convergence on RMS density matrix=1.00D-08 within 128 cycles.
 Requested convergence on MAX density matrix=1.00D-06.
 Requested convergence on             energy=1.00D-06.
 No special actions if energy rises.
 Integral accuracy reduced to 1.0D-05 until final iterations.
 Initial convergence to 1.0D-05 achieved.  Increase integral accuracy.
 SCF Done:  E(RwB97XD) =  -632.512880656     A.U. after   13 cycles
            NFock= 13  Conv=0.83D-08     -V/T= 2.0110
   1 Symmetry operations used in ECPInt.
 ECPInt:  NShTT=    8385 NPrTT=   30369 LenC2=    7903 LenP2D=   20844.
 LDataN:  DoStor=T MaxTD1= 5 Len=  102
 Calling FoFJK, ICntrl=      2127 FMM=F ISym2X=0 I1Cent= 0 IOpClX= 0 NMat=1 NMatS=1 NMatT=0.
 ***** Axes restored to original set *****
 -------------------------------------------------------------------
 Center     Atomic                   Forces (Hartrees/Bohr)
 Number     Number              X              Y              Z
 -------------------------------------------------------------------
      1        6          -0.004917088   -0.000641165    0.004348970
      2        8           0.009230890    0.004938902   -0.000645530
      3        6          -0.003693135   -0.005915926   -0.001850305
      4        6          -0.000564928    0.003353236   -0.002372642
      5        6          -0.000682755    0.000767047   -0.000176049
      6        6           0.000356004   -0.001728671   -0.000240695
      7        6          -0.001627230    0.001276113    0.000315549
[...]
     9  N    0.011645  -0.001688  -0.091124   0.012794  -0.001800   0.004667
    10  C    0.001745   0.004291   0.002519   0.000869  -0.000581   0.000269
    11  C    0.000433   0.000188   0.002966   0.000934  -0.000737   0.005075
    12  C   -0.000049   0.000016  -0.000319  -0.000049   0.000028   0.000054
    13  C    0.000014  -0.000002   0.000025   0.000009  -0.000004   0.000026
    14  C   -0.000019  -0.000044  -0.000059  -0.000021   0.000009  -0.000047
    15  C   -0.000196  -0.001842  -0.002683  -0.000012   0.000058  -0.000144
    16  H    0.409563  -0.050486  -0.013435   0.014580  -0.001297   0.001230
    17  H    0.406786  -0.037170   0.006126  -0.005893  -0.001680  -0.000105
    18  H    0.405807  -0.029934   0.004769  -0.001813   0.000255  -0.000100
    19  H   -0.002010   0.003946  -0.089696   0.457842  -0.065163   0.015700
    20  H   -0.000003  -0.000211   0.017745  -0.062359   0.451010  -0.066393
    21  H    0.000005   0.000015  -0.004132   0.012288  -0.060020   0.446122
    22  H   -0.000067  -0.000165   0.003323  -0.001125   0.005557  -0.026510
    23  H   -0.008844   0.029036  -0.020816  -0.000117  -0.000640   0.000203
    24  H    0.000095  -0.000001  -0.000531   0.000098  -0.000105   0.000958
    25  H   -0.000000   0.000000   0.000007  -0.000001   0.000001  -0.000012
    26  H    0.000000   0.000000   0.000000   0.000000  -0.000000  -0.000000
    27  H    0.000000   0.000000   0.000000   0.000000  -0.000000   0.000000
    28  H    0.000034  -0.000116  -0.000129   0.000011  -0.000001   0.000006
               7          8          9         10         11         12
     1  C   -0.004015  -0.011464   0.011645   0.001745   0.000433  -0.000049
     2  O    0.008975  -0.070377  -0.001688   0.004291   0.000188   0.000016
     3  C    0.211727   0.128196  -0.091124   0.002519   0.002966  -0.000319
     4  C   -0.200225   0.158212   0.012794   0.000869   0.000934  -0.000049
     5  C    0.114918  -0.179202  -0.001800  -0.000581  -0.000737   0.000028
     6  C    0.333977   0.089109   0.004667   0.000269   0.005075   0.000054
     7  C    5.379170   0.185075  -0.045122  -0.003983  -0.010527   0.004730
     8  C    0.185075   5.254711   0.292642  -0.082456  -0.002601  -0.000703
     9  N   -0.045122   0.292642   6.528376   0.276741  -0.035511   0.002197
    10  C   -0.003983  -0.082456   0.276741   4.908454   0.379652  -0.015002
    11  C   -0.010527  -0.002601  -0.035511   0.379652   5.215784   0.435897
    12  C    0.004730  -0.000703   0.002197  -0.015002   0.435897   4.884926
    13  C   -0.000600  -0.000391   0.001104  -0.071022   0.021226   0.460290
    14  C    0.000875   0.000787   0.009507  -0.031483  -0.077598   0.002202
    15  C    0.005203   0.007400  -0.039783   0.409950   0.027337  -0.066253
    16  H   -0.005656   0.010659   0.007845  -0.000315   0.000792  -0.000092
    17  H    0.000029  -0.000635   0.000589   0.000092   0.000012   0.000002
    18  H    0.000377  -0.001329  -0.001096  -0.000286  -0.000038   0.000000
    19  H   -0.008270   0.028553  -0.000187   0.000011  -0.000001  -0.000000
    20  H    0.016005  -0.006312   0.000015  -0.000004  -0.000002   0.000000
    21  H   -0.062713   0.016574  -0.000176   0.000031   0.000085  -0.000011
    22  H    0.423558  -0.042028   0.001359   0.001376  -0.005731   0.000985
    23  H    0.008021  -0.042811   0.395690  -0.062175   0.005268  -0.000027
    24  H   -0.004597   0.001814   0.001816  -0.045510   0.426331  -0.024909
    25  H    0.000053   0.000044  -0.000205   0.013242  -0.056495   0.438446
    26  H   -0.000003  -0.000002  -0.000001  -0.003977   0.013003  -0.058832
    27  H   -0.000004   0.000012  -0.000235   0.014767  -0.003390   0.010624
    28  H    0.000090   0.000823   0.004162  -0.077176   0.006174  -0.002092
              13         14         15         16         17         18
     1  C    0.000014  -0.000019  -0.000196   0.409563   0.406786   0.405807
     2  O   -0.000002  -0.000044  -0.001842  -0.050486  -0.037170  -0.029934
     3  C    0.000025  -0.000059  -0.002683  -0.013435   0.006126   0.004769
     4  C    0.000009  -0.000021  -0.000012   0.014580  -0.005893  -0.001813
     5  C   -0.000004   0.000009   0.000058  -0.001297  -0.001680   0.000255
     6  C    0.000026  -0.000047  -0.000144   0.001230  -0.000105  -0.000100
     7  C   -0.000600   0.000875   0.005203  -0.005656   0.000029   0.000377
     8  C   -0.000391   0.000787   0.007400   0.010659  -0.000635  -0.001329
     9  N    0.001104   0.009507  -0.039783   0.007845   0.000589  -0.001096
    10  C   -0.071022  -0.031483   0.409950  -0.000315   0.000092  -0.000286
    11  C    0.021226  -0.077598   0.027337   0.000792   0.000012  -0.000038
    12  C    0.460290   0.002202  -0.066253  -0.000092   0.000002   0.000000
    13  C    4.946089   0.460407   0.008353   0.000025  -0.000000  -0.000000
    14  C    0.460407   4.878203   0.459396  -0.000013  -0.000001   0.000004
    15  C    0.008353   0.459396   5.114480   0.000251  -0.000054   0.000096
    16  H    0.000025  -0.000013   0.000251   0.574294  -0.042560  -0.027254
    17  H   -0.000000  -0.000001  -0.000054  -0.042560   0.579462  -0.022001
    18  H   -0.000000   0.000004   0.000096  -0.027254  -0.022001   0.543168
    19  H    0.000000   0.000000   0.000003   0.001044  -0.001750  -0.000381
    20  H   -0.000000   0.000000  -0.000000  -0.000019   0.000046   0.000001
    21  H    0.000001  -0.000001   0.000006   0.000004   0.000000  -0.000000
    22  H   -0.000135   0.000181  -0.000484  -0.000017  -0.000003   0.000002
    23  H   -0.000078   0.001113   0.002478  -0.003702   0.001155  -0.000201
    24  H    0.004807  -0.000780   0.002305   0.000124  -0.000005  -0.000002
    25  H   -0.054272   0.009770  -0.002550  -0.000001   0.000000   0.000000
    26  H    0.444823  -0.057116   0.012273   0.000000   0.000000  -0.000000
    27  H   -0.056926   0.440209  -0.057092  -0.000000   0.000000  -0.000000
    28  H    0.008375  -0.027699   0.438570   0.000048  -0.000003   0.000001
              19         20         21         22         23         24
     1  C   -0.002010  -0.000003   0.000005  -0.000067  -0.008844   0.000095
     2  O    0.003946  -0.000211   0.000015  -0.000165   0.029036  -0.000001
     3  C   -0.089696   0.017745  -0.004132   0.003323  -0.020816  -0.000531
     4  C    0.457842  -0.062359   0.012288  -0.001125  -0.000117   0.000098
     5  C   -0.065163   0.451010  -0.060020   0.005557  -0.000640  -0.000105
     6  C    0.015700  -0.066393   0.446122  -0.026510   0.000203   0.000958
     7  C   -0.008270   0.016005  -0.062713   0.423558   0.008021  -0.004597
     8  C    0.028553  -0.006312   0.016574  -0.042028  -0.042811   0.001814
     9  N   -0.000187   0.000015  -0.000176   0.001359   0.395690   0.001816
    10  C    0.000011  -0.000004   0.000031   0.001376  -0.062175  -0.045510
    11  C   -0.000001  -0.000002   0.000085  -0.005731   0.005268   0.426331
    12  C   -0.000000   0.000000  -0.000011   0.000985  -0.000027  -0.024909
    13  C    0.000000  -0.000000   0.000001  -0.000135  -0.000078   0.004807
    14  C    0.000000   0.000000  -0.000001   0.000181   0.001113  -0.000780
    15  C    0.000003  -0.000000   0.000006  -0.000484   0.002478   0.002305
    16  H    0.001044  -0.000019   0.000004  -0.000017  -0.003702   0.000124
    17  H   -0.001750   0.000046   0.000000  -0.000003   0.001155  -0.000005
    18  H   -0.000381   0.000001  -0.000000   0.000002  -0.000201  -0.000002
    19  H    0.542756  -0.007749  -0.000086   0.000015  -0.000008  -0.000000
    20  H   -0.007749   0.548818  -0.007457  -0.000093   0.000006  -0.000000
    21  H   -0.000086  -0.007457   0.546427  -0.005921   0.000012   0.000065
    22  H    0.000015  -0.000093  -0.005921   0.480371  -0.000330  -0.006785
    23  H   -0.000008   0.000006   0.000012  -0.000330   0.450850  -0.000270
    24  H   -0.000000  -0.000000   0.000065  -0.006785  -0.000270   0.482185
    25  H   -0.000000   0.000000  -0.000000   0.000084   0.000019  -0.005878
    26  H    0.000000  -0.000000   0.000000   0.000000  -0.000002  -0.000087
    27  H   -0.000000   0.000000   0.000000  -0.000001  -0.000046   0.000034
    28  H    0.000000  -0.000000   0.000000   0.000005   0.003581  -0.000189
              25         26         27         28
     1  C   -0.000000   0.000000   0.000000   0.000034
     2  O    0.000000   0.000000   0.000000  -0.000116
     3  C    0.000007   0.000000   0.000000  -0.000129
     4  C   -0.000001   0.000000   0.000000   0.000011
     5  C    0.000001  -0.000000  -0.000000  -0.000001
     6  C   -0.000012  -0.000000   0.000000   0.000006
     7  C    0.000053  -0.000003  -0.000004   0.000090
     8  C    0.000044  -0.000002   0.000012   0.000823
     9  N   -0.000205  -0.000001  -0.000235   0.004162
    10  C    0.013242  -0.003977   0.014767  -0.077176
    11  C   -0.056495   0.013003  -0.003390   0.006174
    12  C    0.438446  -0.058832   0.010624  -0.002092
    13  C   -0.054272   0.444823  -0.056926   0.008375
    14  C    0.009770  -0.057116   0.440209  -0.027699
    15  C   -0.002550   0.012273  -0.057092   0.438570
    16  H   -0.000001   0.000000  -0.000000   0.000048
    17  H    0.000000   0.000000   0.000000  -0.000003
    18  H    0.000000  -0.000000  -0.000000   0.000001
    19  H   -0.000000   0.000000  -0.000000   0.000000
    20  H    0.000000  -0.000000   0.000000  -0.000000
    21  H   -0.000000   0.000000   0.000000   0.000000
    22  H    0.000084   0.000000  -0.000001   0.000005
    23  H    0.000019  -0.000002  -0.000046   0.003581
    24  H   -0.005878  -0.000087   0.000034  -0.000189
    25  H    0.545340  -0.006925  -0.000175   0.000039
    26  H   -0.006925   0.546435  -0.006706  -0.000122
    27  H   -0.000175  -0.006706   0.548327  -0.007981
    28  H    0.000039  -0.000122  -0.007981   0.535899
 Mulliken charges:
               1
     1  C   -0.181333
     2  O   -0.368321
     3  C    0.158226
     4  C   -0.143437
     5  C   -0.160888
     6  C   -0.081419
     7  C   -0.347070
     8  C    0.265699
     9  N   -0.334222
    10  C    0.379962
    11  C   -0.348528
    12  C   -0.072057
    13  C   -0.172142
    14  C   -0.067784
    15  C   -0.317068
    16  H    0.124387
    17  H    0.117559
    18  H    0.129956
    19  H    0.125430
    20  H    0.116957
    21  H    0.118883
    22  H    0.172578
    23  H    0.242637
    24  H    0.169017
    25  H    0.119469
    26  H    0.117239
    27  H    0.118583
    28  H    0.117687
 Sum of Mulliken charges =  -0.00000
 Mulliken charges with hydrogens summed into heavy atoms:
               1
     1  C    0.190569
     2  O   -0.368321
     3  C    0.158226
     4  C   -0.018006
     5  C   -0.043931
     6  C    0.037464
     7  C   -0.174492
     8  C    0.265699
     9  N   -0.091585
    10  C    0.379962
    11  C   -0.179511
    12  C    0.047412
    13  C   -0.054903
    14  C    0.050799
    15  C   -0.199381
 Electronic spatial extent (au):  <R**2>=           3676.8163
 Charge=              0.0000 electrons
 Dipole moment (field-independent basis, Debye):
    X=             -0.0830    Y=              0.7062    Z=              0.9182  Tot=              1.1613
 Quadrupole moment (field-independent basis, Debye-Ang):
   XX=            -82.5539   YY=            -81.3252   ZZ=            -90.3339
   XY=             -0.1943   XZ=             -3.4346   YZ=             -1.3604
 Traceless Quadrupole moment (field-independent basis, Debye-Ang):
   XX=              2.1838   YY=              3.4124   ZZ=             -5.5962
   XY=             -0.1943   XZ=             -3.4346   YZ=             -1.3604
 Octapole moment (field-independent basis, Debye-Ang**2):
  XXX=             -7.9834  YYY=             12.5745  ZZZ=              1.6253  XYY=            -11.1610
  XXY=              1.0354  XXZ=              6.3343  XZZ=              2.1487  YZZ=             10.3559
  YYZ=              5.5361  XYZ=            -19.0134
 Hexadecapole moment (field-independent basis, Debye-Ang**3):
 XXXX=          -3411.1713 YYYY=           -981.2151 ZZZZ=           -304.6734 XXXY=             -6.0123
 XXXZ=            -29.1306 YYYX=            -13.4067 YYYZ=              6.5212 ZZZX=             -5.7660
 ZZZY=            -12.0797 XXYY=           -775.1540 XXZZ=           -698.1873 YYZZ=           -223.4606
 XXYZ=            -30.2803 YYXZ=            -16.3113 ZZXY=            -22.3438
 N-N= 9.176450194490D+02 E-N=-3.307687795490D+03  KE= 6.297605564986D+02
 Breneman (CHELPG) radii used.
 Read replacement radii for each type of atom:
 Atom Element Radius
    1     6    1.50
    2     8    1.70
    3     6    1.50
    4     6    1.50
    5     6    1.50
    6     6    1.50
    7     6    1.50
    8     6    1.50
    9     7    1.70
   10     6    1.50
   11     6    1.50
   12     6    1.50
   13     6    1.50
   14     6    1.50
   15     6    1.50
   16     1    1.45
   17     1    1.45
   18     1    1.45
   19     1    1.45
   20     1    1.45
   21     1    1.45
   22     1    1.45
   23     1    1.45
   24     1    1.45
   25     1    1.45
   26     1    1.45
   27     1    1.45
   28     1    1.45
 Generate Potential Derived Charges using the Breneman model, NDens= 1.
 Grid spacing= 0.300 Box extension= 2.800
 NStep X,Y,Z=   52     43     31   Total possible points=       69316
 Number of Points to Fit=   17621

 **********************************************************************

            Electrostatic Properties Using The SCF Density.

 **********************************************************************

       Atomic Center    1 is at  -2.067559  2.468643  1.031577
       Atomic Center    2 is at  -2.124843  1.847349 -0.234945
       Atomic Center    3 is at  -2.151409  0.477022 -0.191623
       Atomic Center    4 is at  -3.354205 -0.211865 -0.108811
       Atomic Center    5 is at  -3.364753 -1.607106 -0.090497
       Atomic Center    6 is at  -2.157856 -2.296999 -0.174340
       Atomic Center    7 is at  -0.947084 -1.612821 -0.274850
       Atomic Center    8 is at  -0.921313 -0.211608 -0.269228
       Atomic Center    9 is at   0.222765  0.563118 -0.398255
       Atomic Center   10 is at   1.552958  0.221496 -0.175216
       Atomic Center   11 is at   1.939651 -0.761210  0.750613
       Atomic Center   12 is at   3.288695 -1.039656  0.955882
       Atomic Center   13 is at   4.278809 -0.341798  0.266302
       Atomic Center   14 is at   3.899628  0.649509 -0.638637
       Atomic Center   15 is at   2.555269  0.924471 -0.864746
       Atomic Center   16 is at  -1.164975  2.163593  1.589770
       Atomic Center   17 is at  -2.956798  2.223233  1.637149
       Atomic Center   18 is at  -2.038055  3.553001  0.862898
       Atomic Center   19 is at  -4.280085  0.365453 -0.062284
       Atomic Center   20 is at  -4.310109 -2.148009 -0.021283
       Atomic Center   21 is at  -2.151868 -3.389117 -0.178812
       Atomic Center   22 is at  -0.016157 -2.170595 -0.379668
       Atomic Center   23 is at   0.042118  1.495712 -0.749324
       Atomic Center   24 is at   1.183213 -1.291476  1.330171
       Atomic Center   25 is at   3.566984 -1.808058  1.680989
       Atomic Center   26 is at   5.333917 -0.564169  0.435296
       Atomic Center   27 is at   4.659646  1.211129 -1.186690
       Atomic Center   28 is at   2.266573  1.690215 -1.589422
   17621 points will be used for fitting atomic charges
 Fitting point charges to electrostatic potential
 Charges from ESP fit, RMS=   0.00397 RRMS=   0.38998:
 ESP charges:
               1
     1  C    0.199382
     2  O   -0.408096
     3  C    0.229920
     4  C   -0.206658
     5  C   -0.154188
     6  C   -0.104517
     7  C   -0.185017
     8  C    0.231360
     9  N   -0.556491
    10  C    0.406560
    11  C   -0.199092
    12  C   -0.068476
    13  C   -0.180127
    14  C   -0.011181
    15  C   -0.306932
    16  H   -0.029359
    17  H   -0.003259
    18  H    0.038624
    19  H    0.151721
    20  H    0.108664
    21  H    0.107513
    22  H    0.101392
    23  H    0.325679
    24  H    0.101382
    25  H    0.098146
    26  H    0.101357
    27  H    0.086491
    28  H    0.125204
 Sum of ESP charges =  -0.00000
 ESP charges with hydrogens summed into heavy atoms:
               1
     1  C    0.205388
     2  O   -0.408096
     3  C    0.229920
     4  C   -0.054937
     5  C   -0.045524
     6  C    0.002996
     7  C   -0.083626
     8  C    0.231360
     9  N   -0.230812
    10  C    0.406560
    11  C   -0.097710
    12  C    0.029670
    13  C   -0.078770
    14  C    0.075310
    15  C   -0.181729
 Charge=  -0.00000 Dipole=    -0.0824     0.6774     0.8210 Tot=     1.0676
 -----------------------------------------------------------------

              Electrostatic Properties (Atomic Units)

 -----------------------------------------------------------------
    Center     Electric         -------- Electric Field --------
               Potential          X             Y             Z
 -----------------------------------------------------------------
    1 Atom    -14.716029
    2 Atom    -22.333000
    3 Atom    -14.717400
    4 Atom    -14.769437
    5 Atom    -14.773802
    6 Atom    -14.769878
    7 Atom    -14.770670
    8 Atom    -14.721754
    9 Atom    -18.358699
   10 Atom    -14.719877
   11 Atom    -14.771867
   12 Atom    -14.768099
   13 Atom    -14.775972
   14 Atom    -14.767724
   15 Atom    -14.770575
   16 Atom     -1.110067
   17 Atom     -1.110233
   18 Atom     -1.105661
   19 Atom     -1.100899
   20 Atom     -1.109998
   21 Atom     -1.109400
   22 Atom     -1.104913
   23 Atom     -1.025515
   24 Atom     -1.105290
   25 Atom     -1.108192
   26 Atom     -1.111124
   27 Atom     -1.107164
   28 Atom     -1.101528
 -----------------------------------------------------------------
 Unable to Open any file for archive entry.
 1\1\GINC-NOTCH206\SP\RwB97XD\def2TZVP\C13H13N1O1\U1366379\17-Feb-2026\
 0\\#N Guess=Read Geom=Check Integral(Ultrafine) Density Pop=(ChelpG,Re
 adRadii) NMR wB97XD def2TZVP\\prod_3f_2\\0,1\C,0,-2.1346433432,-2.3496
 685685,-1.0695376135\O,0,-2.1773963955,-1.7191020487,0.1929694046\C,0,
 -2.1221731604,-0.3498543806,0.1430587405\C,0,-3.2805147088,0.408335178
 3,0.035658847\C,0,-3.2082714264,1.8016451647,0.0109276678\C,0,-1.96437
 89783,2.4195762951,0.1132734579\C,0,-0.7981092803,1.6657148425,0.23849
 01601\C,0,-0.8550904081,0.2654126996,0.2395888554\N,0,0.2387588717,-0.
 5747450812,0.3925277692\C,0,1.5905343652,-0.3134409424,0.1918061571\C,
 0,2.0508576826,0.6396154859,-0.7313339338\C,0,3.4174017052,0.836840754
 8,-0.9136694927\C,0,4.3522568599,0.0855916786,-0.2033715969\C,0,3.8992
 904464,-0.8766082655,0.6990554886\C,0,2.5372615543,-1.0705173517,0.902
 2953261\H,0,-1.2059260322,-2.1014894101,-1.6128453428\H,0,-2.997030075
 3,-2.055561429,-1.692016317\H,0,-2.1722421042,-3.4329321911,-0.8955164
 571\H,0,-4.2379289669,-0.1135946687,-0.0248506451\H,0,-4.1186476219,2.
 3969960135,-0.0776084739\H,0,-1.8939448494,3.5094460753,0.1129740654\H
 ,0,0.1621616924,2.1681584827,0.3574587257\H,0,-0.0028323765,-1.4931048
 327,0.7444697888\H,0,1.3373948546,1.2103861205,-1.3266986403\H,0,3.753
 3313745,1.5834734095,-1.6371050441\H,0,5.4214721908,0.2443850345,-0.35
 44477829\H,0,4.6150281178,-1.4790629234,1.2631247786\H,0,2.1911100122,
 -1.8138851421,1.6251021073\\Version=ES64L-G16RevC.01\State=1-A\HF=-633
 .1869333\RMSD=1.289e-09\Dipole=-0.042643,-0.2774113,-0.3605329\Quadrup
 ole=1.5544137,2.5038596,-4.0582733,0.232008,2.5886773,-1.1931781\PG=C0
 1 [X(C13H13N1O1)]\\@
 The archive entry for this job was punched.


 TERRY FORSTER, PORTLY ATLANTA BRAVES RELIEVER,
 ANNOUNCING THAT HE WAS GOING TO A FAT FARM:
 "A WAIST IS A TERRIBLE THING TO MIND."
 Job cpu time:       0 days  1 hours  4 minutes 39.3 seconds.
 Elapsed time:       0 days  0 hours  8 minutes 19.6 seconds.
 File lengths (MBytes):  RWF=    183 Int=      0 D2E=      0 Chk=     28 Scr=      2
 Normal termination of Gaussian 16 at Tue Feb 17 16:31:32 2026.
