 Entering Gaussian System, Link 0=g16
 Input=prod_5g_2.com
 Output=prod_5g_2.log
 Initial command:
 /uufs/chpc.utah.edu/sys/installdir/gaussian16/C01/AVX/g16/l1.exe "/scratch/general/vast/u1366379/GAUSSSCRDIR/11028662-notchpeak.peaks/Gau-1136514.inp" -scrdir="/scratch/general/vast/u1366379/GAUSSSCRDIR/11028662-notchpeak.peaks/"
 Entering Link 1 = /uufs/chpc.utah.edu/sys/installdir/gaussian16/C01/AVX/g16/l1.exe PID=   1136520.
  
 Copyright (c) 1988-2019, Gaussian, Inc.  All Rights Reserved.
  
 This is part of the Gaussian(R) 16 program.  It is based on
 the Gaussian(R) 09 system (copyright 2009, Gaussian, Inc.),
 the Gaussian(R) 03 system (copyright 2003, Gaussian, Inc.),
 the Gaussian(R) 98 system (copyright 1998, Gaussian, Inc.),
 the Gaussian(R) 94 system (copyright 1995, Gaussian, Inc.),
 the Gaussian 92(TM) system (copyright 1992, Gaussian, Inc.),
 the Gaussian 90(TM) system (copyright 1990, Gaussian, Inc.),
 the Gaussian 88(TM) system (copyright 1988, Gaussian, Inc.),
 the Gaussian 86(TM) system (copyright 1986, Carnegie Mellon
 University), and the Gaussian 82(TM) system (copyright 1983,
 Carnegie Mellon University). Gaussian is a federally registered
 trademark of Gaussian, Inc.
  
 This software contains proprietary and confidential information,
 including trade secrets, belonging to Gaussian, Inc.
  
 This software is provided under written license and may be
 used, copied, transmitted, or stored only in accord with that
 written license.
  
 The following legend is applicable only to US Government
 contracts under FAR:
  
                    RESTRICTED RIGHTS LEGEND
  
 Use, reproduction and disclosure by the US Government is
 subject to restrictions as set forth in subparagraphs (a)
 and (c) of the Commercial Computer Software - Restricted
 Rights clause in FAR 52.227-19.
  
 Gaussian, Inc.
 340 Quinnipiac St., Bldg. 40, Wallingford CT 06492
  
  
 ---------------------------------------------------------------
 Warning -- This program may not be used in any manner that
 competes with the business of Gaussian, Inc. or will provide
 assistance to any competitor of Gaussian, Inc.  The licensee
 of this program is prohibited from giving any competitor of
 Gaussian, Inc. access to this program.  By using this program,
 the user acknowledges that Gaussian, Inc. is engaged in the
 business of creating and licensing software in the field of
 computational chemistry and represents and warrants to the
 licensee that it is not a competitor of Gaussian, Inc. and that
 it will not use this program in any manner prohibited above.
 ---------------------------------------------------------------
  

 Cite this work as:
 Gaussian 16, Revision C.01,
 M. J. Frisch, G. W. Trucks, H. B. Schlegel, G. E. Scuseria, 
 M. A. Robb, J. R. Cheeseman, G. Scalmani, V. Barone, 
 G. A. Petersson, H. Nakatsuji, X. Li, M. Caricato, A. V. Marenich, 
 J. Bloino, B. G. Janesko, R. Gomperts, B. Mennucci, H. P. Hratchian, 
 J. V. Ortiz, A. F. Izmaylov, J. L. Sonnenberg, D. Williams-Young, 
 F. Ding, F. Lipparini, F. Egidi, J. Goings, B. Peng, A. Petrone, 
 T. Henderson, D. Ranasinghe, V. G. Zakrzewski, J. Gao, N. Rega, 
 G. Zheng, W. Liang, M. Hada, M. Ehara, K. Toyota, R. Fukuda, 
 J. Hasegawa, M. Ishida, T. Nakajima, Y. Honda, O. Kitao, H. Nakai, 
 T. Vreven, K. Throssell, J. A. Montgomery, Jr., J. E. Peralta, 
 F. Ogliaro, M. J. Bearpark, J. J. Heyd, E. N. Brothers, K. N. Kudin, 
 V. N. Staroverov, T. A. Keith, R. Kobayashi, J. Normand, 
 K. Raghavachari, A. P. Rendell, J. C. Burant, S. S. Iyengar, 
 J. Tomasi, M. Cossi, J. M. Millam, M. Klene, C. Adamo, R. Cammi, 
 J. W. Ochterski, R. L. Martin, K. Morokuma, O. Farkas, 
 J. B. Foresman, and D. J. Fox, Gaussian, Inc., Wallingford CT, 2019.
 
 ******************************************
 Gaussian 16:  ES64L-G16RevC.01  3-Jul-2019
                17-Feb-2026 
 ******************************************
 %NProcShared=8
 Will use up to    8 processors via shared memory.
 %Mem=8GB
 %chk=prod_5g_2.chk
 ------------------------------------------------------
 #N OPT FREQ=NORAMAN Integral(Ultrafine) wB97XD def2SVP
 ------------------------------------------------------
 1/18=20,19=15,26=4,38=1/1,3;
 2/9=110,12=2,17=6,18=5,40=1/2;
 3/5=43,7=101,11=2,25=1,30=1,71=1,74=-58,75=-5/1,2,3;
 4//1;
 5/5=2,38=5/2;
 6/7=2,8=2,9=2,10=2,28=1/1;
 7//1,2,3,16;
 1/18=20,19=15,26=4/3(2);
 2/9=110/2;
 99//99;
 2/9=110/2;
 3/5=43,7=101,11=2,25=1,30=1,71=1,74=-58,75=-5/1,2,3;
 4/5=5,16=3,69=1/1;
 5/5=2,38=5/2;
 7//1,2,3,16;
 1/18=20,19=15,26=4/3(-5);
 2/9=110/2;
 6/7=2,8=2,9=2,10=2,19=2,28=1/1;
 99/9=1/99;
 ---------
 prod_5g_2
 ---------
 Symbolic Z-matrix:
 Charge =  0 Multiplicity = 1
 C                    -2.07292   2.86736   0.95796 
 O                    -3.00546   1.98636   0.38004 
 C                    -2.50181   0.71373   0.08052 
 C                    -1.19548   0.30555   0.33563 
 C                    -0.75167  -0.97083   0.00955 
 N                     0.60144  -1.35482   0.28554 
 C                     0.84873  -2.65466   0.90818 
 C                     1.70193  -0.48507   0.03122 
 C                     1.58297   0.54896  -0.89722 
 C                     2.63869   1.3929   -1.15744 
 C                     3.84027   1.22128  -0.49926 
 C                     3.9808    0.19837   0.41781 
 C                     2.92619  -0.64753   0.67976 
 C                    -1.64855  -1.85918  -0.58402 
 C                    -2.94533  -1.47348  -0.84122 
 C                    -3.37018  -0.20514  -0.51471 
 H                    -1.23408   3.02035   0.27785 
 H                    -1.72511   2.46758   1.91118 
 H                    -2.5638    3.82489   1.13476 
 H                    -0.50398   0.97696   0.80641 
 H                    -0.0551   -3.25977   0.91543 
 H                     1.16854  -2.51979   1.93956 
 H                     1.62114  -3.19177   0.36089 
 H                     0.65345   0.67041  -1.4249 
 H                     2.52821   2.18678  -1.87801 
 H                     4.66702   1.88209  -0.70275 
 H                     4.91903   0.06246   0.93065 
 H                     3.04246  -1.43712   1.40036 
 H                    -1.30879  -2.84052  -0.86449 
 H                    -3.62955  -2.16555  -1.30427 
 H                    -4.38051   0.10509  -0.71396 
 

 GradGradGradGradGradGradGradGradGradGradGradGradGradGradGradGradGradGrad
 Berny optimization.
 Initialization pass.
                           ----------------------------
                           !    Initial Parameters    !
                           ! (Angstroms and Degrees)  !
 --------------------------                            --------------------------
 ! Name  Definition              Value          Derivative Info.                !
 --------------------------------------------------------------------------------
 ! R1    R(1,2)                  1.407          estimate D2E/DX2                !
 ! R2    R(1,17)                 1.0907         estimate D2E/DX2                !
 ! R3    R(1,18)                 1.0906         estimate D2E/DX2                !
 ! R4    R(1,19)                 1.0905         estimate D2E/DX2                !
 ! R5    R(2,3)                  1.4011         estimate D2E/DX2                !
 ! R6    R(3,4)                  1.3922         estimate D2E/DX2                !
 ! R7    R(3,16)                 1.3974         estimate D2E/DX2                !
 ! R8    R(4,5)                  1.3901         estimate D2E/DX2                !
 ! R9    R(4,20)                 1.0727         estimate D2E/DX2                !
 ! R10   R(5,6)                  1.4334         estimate D2E/DX2                !
 ! R11   R(5,14)                 1.3949         estimate D2E/DX2                !
 ! R12   R(6,7)                  1.4623         estimate D2E/DX2                !
 ! R13   R(6,8)                  1.4256         estimate D2E/DX2                !
 ! R14   R(7,21)                 1.0877         estimate D2E/DX2                !
 ! R15   R(7,22)                 1.0882         estimate D2E/DX2                !
 ! R16   R(7,23)                 1.0884         estimate D2E/DX2                !
 ! R17   R(8,9)                  1.3948         estimate D2E/DX2                !
 ! R18   R(8,13)                 1.3949         estimate D2E/DX2                !
 ! R19   R(9,10)                 1.3764         estimate D2E/DX2                !
 ! R20   R(9,24)                 1.0757         estimate D2E/DX2                !
 ! R21   R(10,11)                1.3807         estimate D2E/DX2                !
 ! R22   R(10,25)                1.0778         estimate D2E/DX2                !
 ! R23   R(11,12)                1.381          estimate D2E/DX2                !
 ! R24   R(11,26)                1.0778         estimate D2E/DX2                !
 ! R25   R(12,13)                1.3771         estimate D2E/DX2                !
 ! R26   R(12,27)                1.0778         estimate D2E/DX2                !
 ! R27   R(13,28)                1.0753         estimate D2E/DX2                !
 ! R28   R(14,15)                1.3772         estimate D2E/DX2                !
 ! R29   R(14,29)                1.0757         estimate D2E/DX2                !
 ! R30   R(15,16)                1.3769         estimate D2E/DX2                !
 ! R31   R(15,30)                1.0777         estimate D2E/DX2                !
 ! R32   R(16,31)                1.0755         estimate D2E/DX2                !
 ! A1    A(2,1,17)             109.9644         estimate D2E/DX2                !
 ! A2    A(2,1,18)             109.9278         estimate D2E/DX2                !
 ! A3    A(2,1,19)             108.5452         estimate D2E/DX2                !
 ! A4    A(17,1,18)            110.5577         estimate D2E/DX2                !
 ! A5    A(17,1,19)            108.9138         estimate D2E/DX2                !
 ! A6    A(18,1,19)            108.889          estimate D2E/DX2                !
 ! A7    A(1,2,3)              114.7271         estimate D2E/DX2                !
 ! A8    A(2,3,4)              124.3643         estimate D2E/DX2                !
 ! A9    A(2,3,16)             117.7077         estimate D2E/DX2                !
 ! A10   A(4,3,16)             117.928          estimate D2E/DX2                !
 ! A11   A(3,4,5)              121.7215         estimate D2E/DX2                !
 ! A12   A(3,4,20)             120.1197         estimate D2E/DX2                !
 ! A13   A(5,4,20)             118.1546         estimate D2E/DX2                !
 ! A14   A(4,5,6)              120.1453         estimate D2E/DX2                !
 ! A15   A(4,5,14)             118.6378         estimate D2E/DX2                !
 ! A16   A(6,5,14)             121.2168         estimate D2E/DX2                !
 ! A17   A(5,6,7)              118.669          estimate D2E/DX2                !
 ! A18   A(5,6,8)              122.0699         estimate D2E/DX2                !
 ! A19   A(7,6,8)              119.1916         estimate D2E/DX2                !
 ! A20   A(6,7,21)             110.9048         estimate D2E/DX2                !
 ! A21   A(6,7,22)             110.0646         estimate D2E/DX2                !
 ! A22   A(6,7,23)             110.1548         estimate D2E/DX2                !
 ! A23   A(21,7,22)            107.8685         estimate D2E/DX2                !
 ! A24   A(21,7,23)            108.5733         estimate D2E/DX2                !
 ! A25   A(22,7,23)            109.2186         estimate D2E/DX2                !
 ! A26   A(6,8,9)              120.3464         estimate D2E/DX2                !
 ! A27   A(6,8,13)             121.5689         estimate D2E/DX2                !
 ! A28   A(9,8,13)             118.0787         estimate D2E/DX2                !
 ! A29   A(8,9,10)             120.9971         estimate D2E/DX2                !
 ! A30   A(8,9,24)             118.942          estimate D2E/DX2                !
 ! A31   A(10,9,24)            120.0527         estimate D2E/DX2                !
 ! A32   A(9,10,11)            120.0764         estimate D2E/DX2                !
 ! A33   A(9,10,25)            119.9602         estimate D2E/DX2                !
 ! A34   A(11,10,25)           119.9632         estimate D2E/DX2                !
 ! A35   A(10,11,12)           119.8134         estimate D2E/DX2                !
 ! A36   A(10,11,26)           120.089          estimate D2E/DX2                !
 ! A37   A(12,11,26)           120.0973         estimate D2E/DX2                !
 ! A38   A(11,12,13)           120.2242         estimate D2E/DX2                !
 ! A39   A(11,12,27)           119.8641         estimate D2E/DX2                !
 ! A40   A(13,12,27)           119.9117         estimate D2E/DX2                !
 ! A41   A(8,13,12)            120.8072         estimate D2E/DX2                !
 ! A42   A(8,13,28)            119.4717         estimate D2E/DX2                !
 ! A43   A(12,13,28)           119.7179         estimate D2E/DX2                !
 ! A44   A(5,14,15)            120.4333         estimate D2E/DX2                !
 ! A45   A(5,14,29)            119.2644         estimate D2E/DX2                !
 ! A46   A(15,14,29)           120.2799         estimate D2E/DX2                !
 ! A47   A(14,15,16)           120.282          estimate D2E/DX2                !
 ! A48   A(14,15,30)           119.8814         estimate D2E/DX2                !
 ! A49   A(16,15,30)           119.836          estimate D2E/DX2                !
 ! A50   A(3,16,15)            120.997          estimate D2E/DX2                !
 ! A51   A(3,16,31)            118.2296         estimate D2E/DX2                !
 ! A52   A(15,16,31)           120.7732         estimate D2E/DX2                !
 ! D1    D(17,1,2,3)            60.1298         estimate D2E/DX2                !
 ! D2    D(18,1,2,3)           -61.8148         estimate D2E/DX2                !
 ! D3    D(19,1,2,3)           179.1832         estimate D2E/DX2                !
 ! D4    D(1,2,3,4)              0.9107         estimate D2E/DX2                !
 ! D5    D(1,2,3,16)          -179.0459         estimate D2E/DX2                !
 ! D6    D(2,3,4,5)           -179.699          estimate D2E/DX2                !
 ! D7    D(2,3,4,20)             1.0687         estimate D2E/DX2                !
 ! D8    D(16,3,4,5)             0.2576         estimate D2E/DX2                !
 ! D9    D(16,3,4,20)         -178.9748         estimate D2E/DX2                !
 ! D10   D(2,3,16,15)          179.8119         estimate D2E/DX2                !
 ! D11   D(2,3,16,31)           -0.0409         estimate D2E/DX2                !
 ! D12   D(4,3,16,15)           -0.1476         estimate D2E/DX2                !
 ! D13   D(4,3,16,31)          179.9996         estimate D2E/DX2                !
 ! D14   D(3,4,5,6)            179.9026         estimate D2E/DX2                !
 ! D15   D(3,4,5,14)            -0.2339         estimate D2E/DX2                !
 ! D16   D(20,4,5,6)            -0.8505         estimate D2E/DX2                !
 ! D17   D(20,4,5,14)          179.013          estimate D2E/DX2                !
 ! D18   D(4,5,6,7)            134.2389         estimate D2E/DX2                !
 ! D19   D(4,5,6,8)            -42.7018         estimate D2E/DX2                !
 ! D20   D(14,5,6,7)           -45.6211         estimate D2E/DX2                !
 ! D21   D(14,5,6,8)           137.4382         estimate D2E/DX2                !
 ! D22   D(4,5,14,15)            0.0968         estimate D2E/DX2                !
 ! D23   D(4,5,14,29)          178.381          estimate D2E/DX2                !
 ! D24   D(6,5,14,15)          179.9589         estimate D2E/DX2                !
 ! D25   D(6,5,14,29)           -1.757          estimate D2E/DX2                !
 ! D26   D(5,6,7,21)            10.7417         estimate D2E/DX2                !
 ! D27   D(5,6,7,22)          -108.5454         estimate D2E/DX2                !
 ! D28   D(5,6,7,23)           130.9665         estimate D2E/DX2                !
 ! D29   D(8,6,7,21)          -172.2279         estimate D2E/DX2                !
 ! D30   D(8,6,7,22)            68.485          estimate D2E/DX2                !
 ! D31   D(8,6,7,23)           -52.0031         estimate D2E/DX2                !
 ! D32   D(5,6,8,9)            -22.5171         estimate D2E/DX2                !
 ! D33   D(5,6,8,13)           158.3949         estimate D2E/DX2                !
 ! D34   D(7,6,8,9)            160.5577         estimate D2E/DX2                !
 ! D35   D(7,6,8,13)           -18.5303         estimate D2E/DX2                !
 ! D36   D(6,8,9,10)          -179.7142         estimate D2E/DX2                !
 ! D37   D(6,8,9,24)            -0.75           estimate D2E/DX2                !
 ! D38   D(13,8,9,10)           -0.5949         estimate D2E/DX2                !
 ! D39   D(13,8,9,24)          178.3693         estimate D2E/DX2                !
 ! D40   D(6,8,13,12)          179.7154         estimate D2E/DX2                !
 ! D41   D(6,8,13,28)           -0.9381         estimate D2E/DX2                !
 ! D42   D(9,8,13,12)            0.6075         estimate D2E/DX2                !
 ! D43   D(9,8,13,28)          179.954          estimate D2E/DX2                !
 ! D44   D(8,9,10,11)            0.2078         estimate D2E/DX2                !
 ! D45   D(8,9,10,25)         -179.9775         estimate D2E/DX2                !
 ! D46   D(24,9,10,11)        -178.745          estimate D2E/DX2                !
 ! D47   D(24,9,10,25)           1.0697         estimate D2E/DX2                !
 ! D48   D(9,10,11,12)           0.1824         estimate D2E/DX2                !
 ! D49   D(9,10,11,26)        -179.9904         estimate D2E/DX2                !
 ! D50   D(25,10,11,12)       -179.6323         estimate D2E/DX2                !
 ! D51   D(25,10,11,26)          0.1949         estimate D2E/DX2                !
 ! D52   D(10,11,12,13)         -0.169          estimate D2E/DX2                !
 ! D53   D(10,11,12,27)        179.8803         estimate D2E/DX2                !
 ! D54   D(26,11,12,13)       -179.9962         estimate D2E/DX2                !
 ! D55   D(26,11,12,27)          0.0531         estimate D2E/DX2                !
 ! D56   D(11,12,13,8)          -0.2346         estimate D2E/DX2                !
 ! D57   D(11,12,13,28)       -179.5795         estimate D2E/DX2                !
 ! D58   D(27,12,13,8)         179.7162         estimate D2E/DX2                !
 ! D59   D(27,12,13,28)          0.3712         estimate D2E/DX2                !
 ! D60   D(5,14,15,16)           0.0081         estimate D2E/DX2                !
 ! D61   D(5,14,15,30)         179.7197         estimate D2E/DX2                !
 ! D62   D(29,14,15,16)       -178.2585         estimate D2E/DX2                !
 ! D63   D(29,14,15,30)          1.4531         estimate D2E/DX2                !
 ! D64   D(14,15,16,3)           0.0184         estimate D2E/DX2                !
 ! D65   D(14,15,16,31)        179.8675         estimate D2E/DX2                !
 ! D66   D(30,15,16,3)        -179.6933         estimate D2E/DX2                !
 ! D67   D(30,15,16,31)          0.1558         estimate D2E/DX2                !
 --------------------------------------------------------------------------------
 Trust Radius=3.00D-01 FncErr=1.00D-07 GrdErr=1.00D-06 EigMax=2.50D+02 EigMin=1.00D-04
 Number of steps in this run=    161 maximum allowed number of steps=    186.
 GradGradGradGradGradGradGradGradGradGradGradGradGradGradGradGradGradGrad

                          Input orientation:                          
 ---------------------------------------------------------------------
 Center     Atomic      Atomic             Coordinates (Angstroms)
 Number     Number       Type             X           Y           Z
 ---------------------------------------------------------------------
      1          6           0       -2.072920    2.867360    0.957960
      2          8           0       -3.005460    1.986360    0.380040
      3          6           0       -2.501810    0.713730    0.080520
      4          6           0       -1.195480    0.305550    0.335630
      5          6           0       -0.751670   -0.970830    0.009550
      6          7           0        0.601440   -1.354820    0.285540
      7          6           0        0.848730   -2.654660    0.908180
      8          6           0        1.701930   -0.485070    0.031220
      9          6           0        1.582970    0.548960   -0.897220
     10          6           0        2.638690    1.392900   -1.157440
     11          6           0        3.840270    1.221280   -0.499260
     12          6           0        3.980800    0.198370    0.417810
     13          6           0        2.926190   -0.647530    0.679760
     14          6           0       -1.648550   -1.859180   -0.584020
     15          6           0       -2.945330   -1.473480   -0.841220
     16          6           0       -3.370180   -0.205140   -0.514710
     17          1           0       -1.234080    3.020350    0.277850
     18          1           0       -1.725110    2.467580    1.911180
     19          1           0       -2.563800    3.824890    1.134760
     20          1           0       -0.503980    0.976960    0.806410
     21          1           0       -0.055100   -3.259770    0.915430
     22          1           0        1.168540   -2.519790    1.939560
     23          1           0        1.621140   -3.191770    0.360890
     24          1           0        0.653450    0.670410   -1.424900
     25          1           0        2.528210    2.186780   -1.878010
     26          1           0        4.667020    1.882090   -0.702750
     27          1           0        4.919030    0.062460    0.930650
     28          1           0        3.042460   -1.437120    1.400360
     29          1           0       -1.308790   -2.840520   -0.864490
     30          1           0       -3.629550   -2.165550   -1.304270
     31          1           0       -4.380510    0.105090   -0.713960
 ---------------------------------------------------------------------
                    Distance matrix (angstroms):
                    1          2          3          4          5
     1  C    0.000000
     2  O    1.407048   0.000000
     3  C    2.364735   1.401058   0.000000
     4  C    2.778501   2.470450   1.392189   0.000000
     5  C    4.168559   3.736550   2.430179   1.390123   0.000000
     6  N    5.042931   4.917534   3.735116   2.447092   1.433362
     7  C    6.247497   6.055805   4.822571   3.642726   2.490803
     8  C    5.132945   5.328148   4.371611   3.018730   2.501317
     9  C    4.709799   4.975058   4.203398   3.049418   2.929597
    10  C    5.371054   5.879836   5.330906   4.255872   4.294604
    11  C    6.308636   6.944245   6.388719   5.185979   5.113721
    12  C    6.637981   7.211530   6.511804   5.178042   4.891828
    13  C    6.117430   6.497052   5.628081   4.244402   3.752380
    14  C    4.989787   4.190322   2.790973   2.395221   1.394950
    15  C    4.779230   3.669548   2.414581   2.758967   2.405953
    16  C    3.645805   2.395051   1.397386   2.390231   2.778079
    17  H    1.090692   2.053622   2.639427   2.715689   4.029171
    18  H    1.090607   2.053109   2.651522   2.727130   4.048017
    19  H    1.090452   2.035893   3.285511   3.859619   5.248699
    20  H    2.461331   2.730949   2.141852   1.072659   2.119014
    21  H    6.450979   6.042611   4.740482   3.787894   2.558334
    22  H    6.363331   6.337173   5.232891   4.017926   3.132319
    23  H    7.121491   6.943978   5.685970   4.490572   3.268982
    24  H    4.235293   4.286858   3.496260   2.578979   2.593391
    25  H    5.447597   5.980005   5.595250   4.722827   4.928590
    26  H    7.011099   7.749210   7.305525   6.158946   6.165122
    27  H    7.533630   8.173255   7.497716   6.148201   5.837204
    28  H    6.700103   7.024144   6.091557   4.704326   4.067825
    29  H    6.040291   5.265578   3.866398   3.369107   2.137772
    30  H    5.733321   4.523798   3.388170   3.836705   3.381667
    31  H    3.968680   2.574252   2.128651   3.359500   3.853511
                    6          7          8          9         10
     6  N    0.000000
     7  C    1.462333   0.000000
     8  C    1.425560   2.490809   0.000000
     9  C    2.446774   3.749901   1.394765   0.000000
    10  C    3.712485   4.884003   2.411888   1.376406   0.000000
    11  C    4.212152   5.094419   2.786671   2.388679   1.380742
    12  C    3.721555   4.264986   2.410351   2.757137   2.389471
    13  C    2.461733   2.897686   1.394923   2.392215   2.760673
    14  C    2.464339   3.015934   3.673202   4.042271   5.411586
    15  C    3.723338   4.341714   4.830645   4.959728   6.284696
    16  C    4.211405   5.081729   5.109080   5.024806   6.250868
    17  H    4.744608   6.077923   4.579187   3.927382   4.439257
    18  H    4.760912   5.819622   4.898673   4.744640   5.441885
    19  H    6.129381   7.326750   6.163604   5.661834   6.183418
    20  H    2.632576   3.876705   2.757624   2.727801   3.729087
    21  H    2.111076   1.087713   3.401168   4.524975   5.761999
    22  H    2.101081   1.088216   2.840132   4.199559   5.202105
    23  H    2.102344   1.088407   2.727899   3.946816   4.935578
    24  H    2.651390   4.066631   2.134181   1.075734   2.129485
    25  H    4.575623   5.832928   3.386249   2.130231   1.077809
    26  H    5.289919   6.144635   3.864443   3.365474   2.135456
    27  H    4.589818   4.893934   3.385040   3.834982   3.366027
    28  H    2.684805   2.556775   2.139618   3.369495   3.835933
    29  H    2.679338   2.798535   3.926178   4.455550   5.795711
    30  H    4.591956   5.018880   5.747367   5.891063   7.209366
    31  H    5.286791   6.131273   6.156270   5.982784   7.150126
                   11         12         13         14         15
    11  C    0.000000
    12  C    1.380982   0.000000
    13  C    2.391251   1.377086   0.000000
    14  C    6.294725   6.076739   4.898314   0.000000
    15  C    7.309106   7.235435   6.121301   1.377155   0.000000
    16  C    7.350204   7.420871   6.423920   2.388443   1.376878
    17  H    5.439631   5.931116   5.560820   4.972365   4.937125
    18  H    6.191683   6.319563   5.731919   4.995271   4.959496
    19  H    7.103585   7.516479   7.095742   6.008372   5.667697
    20  H    4.542794   4.568420   3.797509   3.359617   3.831388
    21  H    6.103693   5.338056   3.970822   2.597900   3.824929
    22  H    5.203997   4.196775   2.860382   3.839382   5.074587
    23  H    5.013921   4.130894   2.877150   3.655068   5.024961
    24  H    3.363939   3.832709   3.366290   3.522089   4.229440
    25  H    2.134161   3.366687   3.838475   5.957309   6.665739
    26  H    1.077773   2.135759   3.367610   7.341500   8.320270
    27  H    2.133361   1.077846   2.130362   7.008569   8.206509
    28  H    3.363354   2.126197   1.075284   5.110917   6.393718
    29  H    6.568442   6.233691   5.012880   1.075699   2.132511
    30  H    8.241169   8.152981   7.015589   2.130020   1.077744
    31  H    8.298988   8.438075   7.476413   3.367320   2.137246
                   16         17         18         19         20
    16  C    0.000000
    17  H    3.949033   0.000000
    18  H    3.966690   1.792884   0.000000
    19  H    4.428560   1.774749   1.774407   0.000000
    20  H    3.370137   2.233353   2.221176   3.530068   0.000000
    21  H    4.729252   6.421558   6.048387   7.518915   4.261838
    22  H    5.655177   6.263147   5.766097   7.404933   4.038392
    23  H    5.882169   6.837369   6.754926   8.206468   4.700312
    24  H    4.217183   3.461841   4.474014   5.182017   2.532264
    25  H    6.509291   4.415586   5.703292   6.139117   4.226577
    26  H    8.305930   6.089351   6.930711   7.709453   5.462240
    27  H    8.418532   6.858281   7.133767   8.377964   5.500980
    28  H    6.804941   6.278365   6.183635   7.693468   4.331027
    29  H    3.364060   5.971626   6.004464   7.071050   4.244146
    30  H    2.129292   5.927473   5.952470   6.555155   4.909127
    31  H    1.075504   4.402550   4.418582   4.533775   4.254312
                   21         22         23         24         25
    21  H    0.000000
    22  H    1.758894   0.000000
    23  H    1.766895   1.774430   0.000000
    24  H    4.628769   4.665006   4.363703   0.000000
    25  H    6.643922   6.210825   5.896122   2.453449   0.000000
    26  H    7.166286   6.212706   6.012717   4.254223   2.459386
    27  H    5.981590   4.663914   4.668053   4.910539   4.256445
    28  H    3.626581   2.230356   2.485849   4.258068   4.913737
    29  H    2.217121   3.755360   3.195219   4.060920   6.404962
    30  H    4.347537   5.802550   5.603180   5.138220   7.562405
    31  H    5.717199   6.687535   6.931406   5.115249   7.308821
                   26         27         28         29         30
    26  H    0.000000
    27  H    2.458161   0.000000
    28  H    4.251990   2.447628   0.000000
    29  H    7.618367   7.101800   5.102201   0.000000
    30  H    9.250853   9.112470   7.236114   2.456607   0.000000
    31  H    9.220393   9.443940   7.870784   4.258490   2.463374
                   31
    31  H    0.000000
 Stoichiometry    C14H15NO
 Framework group  C1[X(C14H15NO)]
 Deg. of freedom    87
 Full point group                 C1      NOp   1
 Largest Abelian subgroup         C1      NOp   1
 Largest concise Abelian subgroup C1      NOp   1
                         Standard orientation:                         
 ---------------------------------------------------------------------
 Center     Atomic      Atomic             Coordinates (Angstroms)
 Number     Number       Type             X           Y           Z
 ---------------------------------------------------------------------
      1          6           0        2.238707    2.754050   -0.937403
      2          8           0        3.122521    1.821333   -0.364084
      3          6           0        2.550655    0.576843   -0.068824
      4          6           0        1.223767    0.241386   -0.323824
      5          6           0        0.711476   -1.010210   -0.002096
      6          7           0       -0.660829   -1.318885   -0.277822
      7          6           0       -0.979188   -2.600885   -0.905150
      8          6           0       -1.712061   -0.391519   -0.018735
      9          6           0       -1.535983    0.630854    0.913531
     10          6           0       -2.543911    1.529988    1.178361
     11          6           0       -3.753759    1.426615    0.521072
     12          6           0       -3.950757    0.416474   -0.399753
     13          6           0       -2.944047   -0.484549   -0.666320
     14          6           0        1.559300   -1.948386    0.586890
     15          6           0        2.875431   -1.634864    0.843906
     16          6           0        3.368351   -0.390262    0.521741
     17          1           0        1.410172    2.949811   -0.255629
     18          1           0        1.868623    2.377536   -1.891708
     19          1           0        2.780799    3.684123   -1.111142
     20          1           0        0.569340    0.951284   -0.791122
     21          1           0       -0.109651   -3.254267   -0.915896
     22          1           0       -1.292290   -2.444764   -1.935589
     23          1           0       -1.779105   -3.097291   -0.358940
     24          1           0       -0.600663    0.699454    1.440478
     25          1           0       -2.389599    2.313846    1.901843
     26          1           0       -4.543087    2.130649    0.728172
     27          1           0       -4.895546    0.333853   -0.911905
     28          1           0       -3.103907   -1.263808   -1.389808
     29          1           0        1.166919   -2.910867    0.864012
     30          1           0        3.521455   -2.364965    1.303403
     31          1           0        4.394286   -0.136276    0.720885
 ---------------------------------------------------------------------
 Rotational constants (GHZ):           0.8534762           0.3571947           0.2797753
 Standard basis: def2SVP (5D, 7F)
 There are   315 symmetry adapted cartesian basis functions of A   symmetry.
 There are   299 symmetry adapted basis functions of A   symmetry.
   299 basis functions,   505 primitive gaussians,   315 cartesian basis functions
    57 alpha electrons       57 beta electrons
       nuclear repulsion energy      1039.8250250539 Hartrees.
 NAtoms=   31 NActive=   31 NUniq=   31 SFac= 1.00D+00 NAtFMM=   60 NAOKFM=F Big=F
 Integral buffers will be    131072 words long.
 Raffenetti 2 integral format.
 Two-electron integral symmetry is turned on.
 Nuclear repulsion after empirical dispersion term =     1039.8043414886 Hartrees.
 One-electron integrals computed using PRISM.
   1 Symmetry operations used in ECPInt.
 ECPInt:  NShTT=   10011 NPrTT=   36031 LenC2=    9469 LenP2D=   24670.
 LDataN:  DoStor=T MaxTD1= 4 Len=   56
 NBasis=   299 RedAO= T EigKep=  2.13D-04  NBF=   299
 NBsUse=   299 1.00D-06 EigRej= -1.00D+00 NBFU=   299
 ExpMin= 1.22D-01 ExpMax= 2.27D+03 ExpMxC= 3.41D+02 IAcc=3 IRadAn=         5 AccDes= 0.00D+00
 Harris functional with IExCor= 4639 and IRadAn=       5 diagonalized for initial guess.
 HarFok:  IExCor= 4639 AccDes= 0.00D+00 IRadAn=         5 IDoV= 1 UseB2=F ITyADJ=14
 ICtDFT=  3500011 ScaDFX=  1.000000  1.000000  1.000000  1.000000
 FoFCou: FMM=F IPFlag=           0 FMFlag=      100000 FMFlg1=           0
         NFxFlg=           0 DoJE=T BraDBF=F KetDBF=T FulRan=T
         wScrn=  0.000000 ICntrl=       500 IOpCl=  0 I1Cent=   200000004 NGrid=           0
         NMat0=    1 NMatS0=      1 NMatT0=    0 NMatD0=    1 NMtDS0=    0 NMtDT0=    0
 Petite list used in FoFCou.
 Requested convergence on RMS density matrix=1.00D-08 within 128 cycles.
 Requested convergence on MAX density matrix=1.00D-06.
 Requested convergence on             energy=1.00D-06.
 No special actions if energy rises.
 Integral accuracy reduced to 1.0D-05 until final iterations.
 Initial convergence to 1.0D-05 achieved.  Increase integral accuracy.
 SCF Done:  E(RwB97XD) =  -671.772069942     A.U. after   15 cycles
            NFock= 15  Conv=0.65D-08     -V/T= 2.0105

 **********************************************************************

            Population analysis using the SCF Density.

 **********************************************************************

 Orbital symmetries:
       Occupied  (A) (A) (A) (A) (A) (A) (A) (A) (A) (A) (A) (A)
                 (A) (A) (A) (A) (A) (A) (A) (A) (A) (A) (A) (A)
                 (A) (A) (A) (A) (A) (A) (A) (A) (A) (A) (A) (A)
                 (A) (A) (A) (A) (A) (A) (A) (A) (A) (A) (A) (A)
                 (A) (A) (A) (A) (A) (A) (A) (A) (A)
       Virtual   (A) (A) (A) (A) (A) (A) (A) (A) (A) (A) (A) (A)
                 (A) (A) (A) (A) (A) (A) (A) (A) (A) (A) (A) (A)
                 (A) (A) (A) (A) (A) (A) (A) (A) (A) (A) (A) (A)
                 (A) (A) (A) (A) (A) (A) (A) (A) (A) (A) (A) (A)
                 (A) (A) (A) (A) (A) (A) (A) (A) (A) (A) (A) (A)
                 (A) (A) (A) (A) (A) (A) (A) (A) (A) (A) (A) (A)
                 (A) (A) (A) (A) (A) (A) (A) (A) (A) (A) (A) (A)
                 (A) (A) (A) (A) (A) (A) (A) (A) (A) (A) (A) (A)
                 (A) (A) (A) (A) (A) (A) (A) (A) (A) (A) (A) (A)
                 (A) (A) (A) (A) (A) (A) (A) (A) (A) (A) (A) (A)
                 (A) (A) (A) (A) (A) (A) (A) (A) (A) (A) (A) (A)
                 (A) (A) (A) (A) (A) (A) (A) (A) (A) (A) (A) (A)
                 (A) (A) (A) (A) (A) (A) (A) (A) (A) (A) (A) (A)
                 (A) (A) (A) (A) (A) (A) (A) (A) (A) (A) (A) (A)
                 (A) (A) (A) (A) (A) (A) (A) (A) (A) (A) (A) (A)
                 (A) (A) (A) (A) (A) (A) (A) (A) (A) (A) (A) (A)
                 (A) (A) (A) (A) (A) (A) (A) (A) (A) (A) (A) (A)
                 (A) (A) (A) (A) (A) (A) (A) (A) (A) (A) (A) (A)
                 (A) (A) (A) (A) (A) (A) (A) (A) (A) (A) (A) (A)
                 (A) (A) (A) (A) (A) (A) (A) (A) (A) (A) (A) (A)
                 (A) (A)
 The electronic state is 1-A.
 Alpha  occ. eigenvalues --  -19.28451 -14.46696 -10.36109 -10.34693 -10.34364
 Alpha  occ. eigenvalues --  -10.34064 -10.33071 -10.30118 -10.29589 -10.29508
 Alpha  occ. eigenvalues --  -10.29459 -10.29198 -10.29178 -10.29026 -10.28921
 Alpha  occ. eigenvalues --  -10.28636  -1.14794  -1.04323  -0.95573  -0.93966
 Alpha  occ. eigenvalues --   -0.85410  -0.84960  -0.83882  -0.83267  -0.78729
 Alpha  occ. eigenvalues --   -0.77170  -0.71349  -0.69625  -0.68474  -0.66598
 Alpha  occ. eigenvalues --   -0.63443  -0.61250  -0.58133  -0.56980  -0.56634
 Alpha  occ. eigenvalues --   -0.55927  -0.55633  -0.53750  -0.53110  -0.52351
 Alpha  occ. eigenvalues --   -0.51464  -0.50595  -0.49963  -0.48049  -0.46903
 Alpha  occ. eigenvalues --   -0.46380  -0.45790  -0.44616  -0.43651  -0.42358
 Alpha  occ. eigenvalues --   -0.41430  -0.40937  -0.37793  -0.33859  -0.33201
 Alpha  occ. eigenvalues --   -0.30530  -0.26222
 Alpha virt. eigenvalues --    0.05186   0.06339   0.07661   0.09060   0.13852
 Alpha virt. eigenvalues --    0.15165   0.15564   0.16838   0.18248   0.19419
 Alpha virt. eigenvalues --    0.20069   0.20745   0.20912   0.21403   0.21786
 Alpha virt. eigenvalues --    0.22582   0.23058   0.23361   0.24131   0.24638
 Alpha virt. eigenvalues --    0.25250   0.26011   0.26938   0.31534   0.32222
 Alpha virt. eigenvalues --    0.34919   0.36309   0.36962   0.37560   0.38528
 Alpha virt. eigenvalues --    0.39369   0.41347   0.41942   0.42553   0.44036
 Alpha virt. eigenvalues --    0.44866   0.47810   0.48565   0.49379   0.50292
 Alpha virt. eigenvalues --    0.51425   0.51672   0.53799   0.54084   0.54552
 Alpha virt. eigenvalues --    0.56166   0.56336   0.57500   0.57664   0.58520
 Alpha virt. eigenvalues --    0.58801   0.58970   0.60252   0.60919   0.61740
 Alpha virt. eigenvalues --    0.63335   0.64883   0.65768   0.66091   0.67123
 Alpha virt. eigenvalues --    0.68811   0.69391   0.71072   0.71686   0.72624
 Alpha virt. eigenvalues --    0.72918   0.73445   0.74022   0.74277   0.74971
 Alpha virt. eigenvalues --    0.75381   0.75929   0.76311   0.76785   0.76807
 Alpha virt. eigenvalues --    0.78177   0.78527   0.79178   0.79904   0.80652
 Alpha virt. eigenvalues --    0.82299   0.82464   0.83608   0.84215   0.85072
 Alpha virt. eigenvalues --    0.86734   0.87545   0.88927   0.89801   0.90271
 Alpha virt. eigenvalues --    0.91568   0.92651   0.93272   0.97250   0.99330
 Alpha virt. eigenvalues --    1.00451   1.02960   1.03445   1.05810   1.09448
 Alpha virt. eigenvalues --    1.10904   1.12442   1.13416   1.17796   1.19642
 Alpha virt. eigenvalues --    1.21026   1.23265   1.24820   1.28059   1.28703
 Alpha virt. eigenvalues --    1.29984   1.32516   1.33038   1.33574   1.34469
 Alpha virt. eigenvalues --    1.35770   1.37231   1.37839   1.38630   1.40489
 Alpha virt. eigenvalues --    1.40897   1.41160   1.43922   1.45156   1.49078
 Alpha virt. eigenvalues --    1.53537   1.55326   1.59873   1.60585   1.61136
 Alpha virt. eigenvalues --    1.62893   1.64080   1.67435   1.71507   1.74937
 Alpha virt. eigenvalues --    1.77114   1.77447   1.77613   1.79543   1.80101
 Alpha virt. eigenvalues --    1.80377   1.80872   1.82155   1.83464   1.84038
 Alpha virt. eigenvalues --    1.84963   1.85989   1.86452   1.86697   1.87918
 Alpha virt. eigenvalues --    1.88303   1.88696   1.89942   1.90682   1.90837
 Alpha virt. eigenvalues --    1.91258   1.92191   1.93356   1.94693   1.96941
 Alpha virt. eigenvalues --    1.97880   1.98586   1.99189   2.00569   2.02976
 Alpha virt. eigenvalues --    2.04689   2.05068   2.06345   2.07873   2.08889
 Alpha virt. eigenvalues --    2.09418   2.11506   2.13818   2.15365   2.16544
 Alpha virt. eigenvalues --    2.20907   2.21499   2.23888   2.25035   2.26060
 Alpha virt. eigenvalues --    2.27244   2.28235   2.28518   2.29426   2.30330
 Alpha virt. eigenvalues --    2.31874   2.33255   2.34793   2.36944   2.38256
 Alpha virt. eigenvalues --    2.39879   2.41224   2.41512   2.42032   2.42798
 Alpha virt. eigenvalues --    2.44665   2.45586   2.46686   2.50324   2.51622
 Alpha virt. eigenvalues --    2.54987   2.57827   2.60439   2.64836   2.68675
 Alpha virt. eigenvalues --    2.69865   2.71198   2.73145   2.74500   2.75056
 Alpha virt. eigenvalues --    2.76620   2.77340   2.78865   2.81630   2.85108
 Alpha virt. eigenvalues --    2.85450   2.85765   2.88368   2.90390   2.92292
 Alpha virt. eigenvalues --    2.96397   2.97158   2.97961   2.98325   3.00302
 Alpha virt. eigenvalues --    3.02077   3.04511   3.06058   3.08542   3.12346
 Alpha virt. eigenvalues --    3.14606   3.15815   3.18020   3.23863   3.26230
 Alpha virt. eigenvalues --    3.29454   3.35075   3.45966   3.53862   3.54398
 Alpha virt. eigenvalues --    3.79669   3.81882
          Condensed to atoms (all electrons):
               1          2          3          4          5          6
     1  C    4.392952   0.299778  -0.058168   0.002345   0.001419  -0.000000
     2  O    0.299778   7.910439   0.391015  -0.085342   0.005335  -0.000011
     3  C   -0.058168   0.391015   5.042040   0.117302   0.163884   0.009511
     4  C    0.002345  -0.085342   0.117302   5.557135   0.179744  -0.082664
     5  C    0.001419   0.005335   0.163884   0.179744   5.132877   0.313424
     6  N   -0.000000  -0.000011   0.009511  -0.082664   0.313424   6.811799
     7  C    0.000000   0.000000  -0.000005   0.004395  -0.049015   0.339363
     8  C   -0.000049  -0.000005  -0.000113  -0.006094  -0.045970   0.334314
     9  C   -0.000324   0.000021  -0.001862  -0.006335  -0.006154  -0.085097
    10  C   -0.000032   0.000001   0.000075  -0.000842  -0.000093   0.008786
    11  C   -0.000001   0.000000  -0.000003   0.000002   0.000016  -0.000660
    12  C    0.000001  -0.000000   0.000003  -0.000046  -0.000052   0.008255
    13  C    0.000000  -0.000000  -0.000063   0.000590   0.006712  -0.088324
    14  C    0.000107  -0.000329  -0.172762   0.072806   0.253642  -0.076584
    15  C   -0.000323   0.004116   0.139447  -0.163342   0.138682   0.009088
    16  C    0.006329  -0.067916   0.275941   0.059371  -0.160231  -0.000671
    17  H    0.402810  -0.030096  -0.009915   0.005917   0.000714   0.000007
    18  H    0.403559  -0.030102  -0.009991   0.005082   0.001065   0.000006
    19  H    0.396400  -0.020572   0.004934   0.000512  -0.000054  -0.000001
    20  H    0.010415  -0.008542  -0.089383   0.464857  -0.059661  -0.011967
    21  H    0.000000   0.000000   0.000039  -0.000061  -0.007857  -0.017683
    22  H   -0.000000   0.000000  -0.000083   0.001030   0.004140  -0.032989
    23  H   -0.000000  -0.000000   0.000027  -0.000593   0.002666  -0.028135
    24  H   -0.000084   0.000032  -0.001060   0.002017   0.006330  -0.014761
    25  H   -0.000000  -0.000000   0.000002   0.000044  -0.000016  -0.000113
    26  H    0.000000  -0.000000   0.000000   0.000000   0.000001   0.000010
    27  H   -0.000000  -0.000000  -0.000000  -0.000000   0.000007  -0.000099
    28  H    0.000000  -0.000000  -0.000001  -0.000008  -0.000170  -0.016340
    29  H    0.000000   0.000004  -0.002366   0.018697  -0.072239  -0.010398
    30  H    0.000007  -0.000061   0.015258  -0.002632   0.015689  -0.000150
    31  H   -0.000238   0.001107  -0.068236   0.021377  -0.002801   0.000008
               7          8          9         10         11         12
     1  C    0.000000  -0.000049  -0.000324  -0.000032  -0.000001   0.000001
     2  O    0.000000  -0.000005   0.000021   0.000001   0.000000  -0.000000
     3  C   -0.000005  -0.000113  -0.001862   0.000075  -0.000003   0.000003
     4  C    0.004395  -0.006094  -0.006335  -0.000842   0.000002  -0.000046
     5  C   -0.049015  -0.045970  -0.006154  -0.000093   0.000016  -0.000052
     6  N    0.339363   0.334314  -0.085097   0.008786  -0.000660   0.008255
     7  C    4.433197  -0.051756   0.006466  -0.000246   0.000087   0.000375
     8  C   -0.051756   5.067112   0.265866   0.122564  -0.166723   0.121816
     9  C    0.006466   0.265866   5.201360   0.275593   0.090880  -0.157476
    10  C   -0.000246   0.122564   0.275593   5.058775   0.268534   0.104609
    11  C    0.000087  -0.166723   0.090880   0.268534   5.117190   0.278962
    12  C    0.000375   0.121816  -0.157476   0.104609   0.278962   5.054186
    13  C    0.004081   0.260425   0.071583  -0.154685   0.089194   0.266444
    14  C   -0.009629   0.004596   0.001065  -0.000066   0.000001   0.000002
    15  C    0.000485  -0.000234   0.000070   0.000006  -0.000000  -0.000000
    16  C   -0.000012   0.000062   0.000003  -0.000006   0.000000  -0.000000
    17  H   -0.000000   0.000027   0.000802   0.000206  -0.000004  -0.000003
    18  H    0.000001   0.000000   0.000040   0.000011  -0.000000  -0.000000
    19  H    0.000000   0.000001   0.000003  -0.000001   0.000000  -0.000000
    20  H   -0.000196   0.004675   0.002304  -0.000274  -0.000027   0.000069
    21  H    0.400077   0.005931  -0.000149   0.000003   0.000004  -0.000045
    22  H    0.400636  -0.010990  -0.000633   0.000069  -0.000064   0.000831
    23  H    0.401835  -0.006019   0.000296  -0.000062  -0.000075   0.000789
    24  H   -0.000102  -0.067580   0.460467  -0.070828   0.014887  -0.002421
    25  H    0.000006   0.015416  -0.069233   0.454444  -0.072532   0.014338
    26  H   -0.000000  -0.001515   0.014986  -0.070733   0.452782  -0.070343
    27  H   -0.000035   0.015345  -0.001962   0.014251  -0.070802   0.452855
    28  H    0.011149  -0.077809   0.016997  -0.002616   0.015817  -0.072095
    29  H    0.000778  -0.000308  -0.000022   0.000002   0.000000  -0.000000
    30  H   -0.000011   0.000007  -0.000002  -0.000000   0.000000   0.000000
    31  H    0.000000   0.000001  -0.000000  -0.000000   0.000000  -0.000000
              13         14         15         16         17         18
     1  C    0.000000   0.000107  -0.000323   0.006329   0.402810   0.403559
     2  O   -0.000000  -0.000329   0.004116  -0.067916  -0.030096  -0.030102
     3  C   -0.000063  -0.172762   0.139447   0.275941  -0.009915  -0.009991
     4  C    0.000590   0.072806  -0.163342   0.059371   0.005917   0.005082
     5  C    0.006712   0.253642   0.138682  -0.160231   0.000714   0.001065
     6  N   -0.088324  -0.076584   0.009088  -0.000671   0.000007   0.000006
     7  C    0.004081  -0.009629   0.000485  -0.000012  -0.000000   0.000001
     8  C    0.260425   0.004596  -0.000234   0.000062   0.000027   0.000000
     9  C    0.071583   0.001065   0.000070   0.000003   0.000802   0.000040
    10  C   -0.154685  -0.000066   0.000006  -0.000006   0.000206   0.000011
    11  C    0.089194   0.000001  -0.000000   0.000000  -0.000004  -0.000000
    12  C    0.266444   0.000002  -0.000000  -0.000000  -0.000003  -0.000000
    13  C    5.206334  -0.000404  -0.000000   0.000001   0.000002   0.000001
    14  C   -0.000404   5.234927   0.226183   0.104787  -0.000128  -0.000094
    15  C   -0.000000   0.226183   5.080675   0.255200   0.000042   0.000038
    16  C    0.000001   0.104787   0.255200   5.175339  -0.000150  -0.000293
    17  H    0.000002  -0.000128   0.000042  -0.000150   0.658352  -0.041858
    18  H    0.000001  -0.000094   0.000038  -0.000293  -0.041858   0.657454
    19  H   -0.000000   0.000006   0.000005  -0.000081  -0.023319  -0.023570
    20  H   -0.000865   0.017680  -0.002522   0.013555  -0.000246   0.001266
    21  H    0.000579   0.003944   0.000470  -0.000094   0.000000  -0.000001
    22  H    0.002935   0.000123   0.000032  -0.000003   0.000000   0.000001
    23  H    0.004655   0.001133  -0.000057  -0.000000  -0.000000  -0.000000
    24  H    0.015889  -0.000916   0.000069   0.000050   0.000158   0.000006
    25  H   -0.001982   0.000001  -0.000000  -0.000000   0.000028  -0.000001
    26  H    0.014875   0.000000   0.000000  -0.000000  -0.000000  -0.000000
    27  H   -0.068726  -0.000000   0.000000  -0.000000   0.000000   0.000000
    28  H    0.459932   0.000012   0.000000   0.000000  -0.000000  -0.000000
    29  H   -0.000016   0.453466  -0.069845   0.015142  -0.000001   0.000001
    30  H   -0.000000  -0.068408   0.456925  -0.073613  -0.000000  -0.000000
    31  H    0.000000   0.015565  -0.076184   0.447031   0.000084   0.000080
              19         20         21         22         23         24
     1  C    0.396400   0.010415   0.000000  -0.000000  -0.000000  -0.000084
     2  O   -0.020572  -0.008542   0.000000   0.000000  -0.000000   0.000032
     3  C    0.004934  -0.089383   0.000039  -0.000083   0.000027  -0.001060
     4  C    0.000512   0.464857  -0.000061   0.001030  -0.000593   0.002017
     5  C   -0.000054  -0.059661  -0.007857   0.004140   0.002666   0.006330
     6  N   -0.000001  -0.011967  -0.017683  -0.032989  -0.028135  -0.014761
     7  C    0.000000  -0.000196   0.400077   0.400636   0.401835  -0.000102
     8  C    0.000001   0.004675   0.005931  -0.010990  -0.006019  -0.067580
     9  C    0.000003   0.002304  -0.000149  -0.000633   0.000296   0.460467
    10  C   -0.000001  -0.000274   0.000003   0.000069  -0.000062  -0.070828
    11  C    0.000000  -0.000027   0.000004  -0.000064  -0.000075   0.014887
    12  C   -0.000000   0.000069  -0.000045   0.000831   0.000789  -0.002421
    13  C   -0.000000  -0.000865   0.000579   0.002935   0.004655   0.015889
    14  C    0.000006   0.017680   0.003944   0.000123   0.001133  -0.000916
    15  C    0.000005  -0.002522   0.000470   0.000032  -0.000057   0.000069
    16  C   -0.000081   0.013555  -0.000094  -0.000003  -0.000000   0.000050
    17  H   -0.023319  -0.000246   0.000000   0.000000  -0.000000   0.000158
    18  H   -0.023570   0.001266  -0.000001   0.000001  -0.000000   0.000006
    19  H    0.613179  -0.000382   0.000000   0.000000  -0.000000  -0.000002
    20  H   -0.000382   0.662586  -0.000049   0.000014   0.000005  -0.003294
    21  H    0.000000  -0.000049   0.602204  -0.021666  -0.018317  -0.000011
    22  H    0.000000   0.000014  -0.021666   0.657451  -0.039281  -0.000031
    23  H   -0.000000   0.000005  -0.018317  -0.039281   0.640833   0.000034
    24  H   -0.000002  -0.003294  -0.000011  -0.000031   0.000034   0.655086
    25  H   -0.000000   0.000030  -0.000000  -0.000000   0.000001  -0.012963
    26  H    0.000000  -0.000000  -0.000000   0.000000  -0.000000  -0.000240
    27  H    0.000000  -0.000003  -0.000001   0.000027  -0.000001   0.000019
    28  H    0.000000  -0.000011   0.000016  -0.001521  -0.001328  -0.000178
    29  H   -0.000000  -0.000212   0.000908   0.000323  -0.000682  -0.000036
    30  H   -0.000000   0.000009   0.000051  -0.000002   0.000001  -0.000003
    31  H   -0.000093  -0.000177  -0.000001  -0.000000   0.000000  -0.000001
              25         26         27         28         29         30
     1  C   -0.000000   0.000000  -0.000000   0.000000   0.000000   0.000007
     2  O   -0.000000  -0.000000  -0.000000  -0.000000   0.000004  -0.000061
     3  C    0.000002   0.000000  -0.000000  -0.000001  -0.002366   0.015258
     4  C    0.000044   0.000000  -0.000000  -0.000008   0.018697  -0.002632
     5  C   -0.000016   0.000001   0.000007  -0.000170  -0.072239   0.015689
     6  N   -0.000113   0.000010  -0.000099  -0.016340  -0.010398  -0.000150
     7  C    0.000006  -0.000000  -0.000035   0.011149   0.000778  -0.000011
     8  C    0.015416  -0.001515   0.015345  -0.077809  -0.000308   0.000007
     9  C   -0.069233   0.014986  -0.001962   0.016997  -0.000022  -0.000002
    10  C    0.454444  -0.070733   0.014251  -0.002616   0.000002  -0.000000
    11  C   -0.072532   0.452782  -0.070802   0.015817   0.000000   0.000000
    12  C    0.014338  -0.070343   0.452855  -0.072095  -0.000000   0.000000
    13  C   -0.001982   0.014875  -0.068726   0.459932  -0.000016  -0.000000
    14  C    0.000001   0.000000  -0.000000   0.000012   0.453466  -0.068408
    15  C   -0.000000   0.000000   0.000000   0.000000  -0.069845   0.456925
    16  C   -0.000000  -0.000000  -0.000000   0.000000   0.015142  -0.073613
    17  H    0.000028  -0.000000   0.000000  -0.000000  -0.000001  -0.000000
    18  H   -0.000001  -0.000000   0.000000  -0.000000   0.000001  -0.000000
    19  H   -0.000000   0.000000   0.000000   0.000000  -0.000000  -0.000000
    20  H    0.000030  -0.000000  -0.000003  -0.000011  -0.000212   0.000009
    21  H   -0.000000  -0.000000  -0.000001   0.000016   0.000908   0.000051
    22  H   -0.000000   0.000000   0.000027  -0.001521   0.000323  -0.000002
    23  H    0.000001  -0.000000  -0.000001  -0.001328  -0.000682   0.000001
    24  H   -0.012963  -0.000240   0.000019  -0.000178  -0.000036  -0.000003
    25  H    0.675916  -0.012443  -0.000270   0.000023  -0.000000   0.000000
    26  H   -0.012443   0.680395  -0.012434  -0.000256   0.000000   0.000000
    27  H   -0.000270  -0.012434   0.676359  -0.013692  -0.000000  -0.000000
    28  H    0.000023  -0.000256  -0.013692   0.695997  -0.000003  -0.000000
    29  H   -0.000000   0.000000  -0.000000  -0.000003   0.684820  -0.012928
    30  H    0.000000   0.000000  -0.000000  -0.000000  -0.012928   0.669049
    31  H    0.000000  -0.000000   0.000000   0.000000  -0.000197  -0.013076
              31
     1  C   -0.000238
     2  O    0.001107
     3  C   -0.068236
     4  C    0.021377
     5  C   -0.002801
     6  N    0.000008
     7  C    0.000000
     8  C    0.000001
     9  C   -0.000000
    10  C   -0.000000
    11  C    0.000000
    12  C   -0.000000
    13  C    0.000000
    14  C    0.015565
    15  C   -0.076184
    16  C    0.447031
    17  H    0.000084
    18  H    0.000080
    19  H   -0.000093
    20  H   -0.000177
    21  H   -0.000001
    22  H   -0.000000
    23  H    0.000000
    24  H   -0.000001
    25  H    0.000000
    26  H   -0.000000
    27  H    0.000000
    28  H    0.000000
    29  H   -0.000197
    30  H   -0.013076
    31  H    0.669010
 Mulliken charges:
               1
     1  C    0.143094
     2  O   -0.368873
     3  C    0.254532
     4  C   -0.165266
     5  C    0.177970
     6  N   -0.367923
     7  C    0.108074
     8  C    0.217005
     9  C   -0.079552
    10  C   -0.007445
    11  C   -0.017465
    12  C   -0.001052
    13  C   -0.089169
    14  C   -0.060726
    15  C    0.000973
    16  C   -0.049742
    17  H    0.036573
    18  H    0.037301
    19  H    0.053035
    20  H    0.000344
    21  H    0.051711
    22  H    0.039647
    23  H    0.042277
    24  H    0.019465
    25  H    0.009304
    26  H    0.004916
    27  H    0.009162
    28  H   -0.013915
    29  H   -0.004888
    30  H    0.013889
    31  H    0.006743
 Sum of Mulliken charges =  -0.00000
 Mulliken charges with hydrogens summed into heavy atoms:
               1
     1  C    0.270003
     2  O   -0.368873
     3  C    0.254532
     4  C   -0.164921
     5  C    0.177970
     6  N   -0.367923
     7  C    0.241709
     8  C    0.217005
     9  C   -0.060087
    10  C    0.001859
    11  C   -0.012550
    12  C    0.008110
    13  C   -0.103084
    14  C   -0.065614
    15  C    0.014862
    16  C   -0.042999
 Electronic spatial extent (au):  <R**2>=           3989.6659
 Charge=             -0.0000 electrons
 Dipole moment (field-independent basis, Debye):
    X=             -0.7330    Y=             -0.3989    Z=             -0.8520  Tot=              1.1927
 Quadrupole moment (field-independent basis, Debye-Ang):
   XX=            -96.4316   YY=            -83.2960   ZZ=            -94.5340
   XY=             -0.9677   XZ=              3.0418   YZ=              0.3349
 Traceless Quadrupole moment (field-independent basis, Debye-Ang):
   XX=             -5.0111   YY=              8.1246   ZZ=             -3.1135
   XY=             -0.9677   XZ=              3.0418   YZ=              0.3349
 Octapole moment (field-independent basis, Debye-Ang**2):
  XXX=            -12.4439  YYY=              6.3590  ZZZ=             -8.3888  XYY=              8.3390
  XXY=             -4.7204  XXZ=             -3.5921  XZZ=              4.6509  YZZ=              5.5739
  YYZ=             -3.8615  XYZ=            -18.1229
 Hexadecapole moment (field-independent basis, Debye-Ang**3):
 XXXX=          -3494.1124 YYYY=          -1326.2878 ZZZZ=           -397.4333 XXXY=            -66.4590
 XXXZ=             86.9854 YYYX=             60.5990 YYYZ=            -17.2007 ZZZX=             -5.0510
 ZZZY=              4.1343 XXYY=           -806.2178 XXZZ=           -669.0308 YYZZ=           -286.9194
 XXYZ=             -3.8285 YYXZ=            -15.3647 ZZXY=             15.4195
 N-N= 1.039804341489D+03 E-N=-3.637372467943D+03  KE= 6.648144335658D+02
   1 Symmetry operations used in ECPInt.
 ECPInt:  NShTT=   10011 NPrTT=   36031 LenC2=    9469 LenP2D=   24670.
 LDataN:  DoStor=T MaxTD1= 5 Len=  102
 Calling FoFJK, ICntrl=      2127 FMM=F ISym2X=0 I1Cent= 0 IOpClX= 0 NMat=1 NMatS=1 NMatT=0.
 ***** Axes restored to original set *****
 -------------------------------------------------------------------
 Center     Atomic                   Forces (Hartrees/Bohr)
 Number     Number              X              Y              Z
 -------------------------------------------------------------------
      1        6          -0.009672720   -0.004799241   -0.004461892
      2        8           0.014956532   -0.032406604   -0.006726887
      3        6          -0.011261802    0.018533947    0.001496257
      4        6          -0.004197238    0.010334872    0.005351654
      5        6           0.016419460   -0.008554007   -0.000413895
      6        7          -0.002824091    0.004324491   -0.004585069
      7        6          -0.001089796    0.018139209   -0.007889981
      8        6          -0.024231442   -0.014941778    0.005925621
      9        6          -0.004305910   -0.001559157   -0.002975715
     10        6          -0.000325006   -0.000127084    0.001027349
     11        6           0.008223496    0.004500842    0.000299492
     12        6           0.001902755    0.003040323   -0.002972482
     13        6          -0.007389420   -0.007900605    0.003105688
     14        6           0.013905140   -0.002419079    0.002071706
     15        6          -0.000937546    0.003996820    0.003421517
     16        6          -0.006725869    0.012874761    0.002560269
     17        1           0.008743095    0.003248565   -0.002019599
     18        1           0.005807046    0.000222708    0.007566392
     19        1          -0.004756501    0.002673822   -0.000492941
     20        1           0.008544395    0.006468755    0.005388982
     21        1          -0.005185610   -0.000881055   -0.000630853
     22        1           0.003508482   -0.002050101    0.010485766
     23        1           0.006684044   -0.005598218   -0.003011096
     24        1          -0.008631791    0.002135659   -0.006043961
     25        1          -0.001788615    0.007127270   -0.007432970
     26        1           0.008053240    0.006330700   -0.001841652
     27        1           0.008654759   -0.002015083    0.005347106
     28        1           0.002573146   -0.007760741    0.007641465
     29        1           0.002992430   -0.010625043   -0.003478021
     30        1          -0.006555100   -0.006098370   -0.004447624
     31        1          -0.011089562    0.003783422   -0.002264624
 -------------------------------------------------------------------
 Cartesian Forces:  Max     0.032406604 RMS     0.008008575

 GradGradGradGradGradGradGradGradGradGradGradGradGradGradGradGradGradGrad
 Berny optimization.
 FormGI is forming the generalized inverse of G from B-inverse, IUseBI=4.
 Internal  Forces:  Max     0.034945969 RMS     0.006452434
 Search for a local minimum.
 Step number   1 out of a maximum of  161
 All quantities printed in internal units (Hartrees-Bohrs-Radians)
 Mixed Optimization -- RFO/linear search
 Second derivative matrix not updated -- first step.
 ITU=  0
     Eigenvalues ---    0.00867   0.01128   0.01250   0.01354   0.01599
     Eigenvalues ---    0.01678   0.01896   0.01914   0.02078   0.02175
     Eigenvalues ---    0.02185   0.02196   0.02207   0.02259   0.02264
     Eigenvalues ---    0.02285   0.02286   0.02335   0.02342   0.02344
     Eigenvalues ---    0.02357   0.02369   0.02376   0.02393   0.07387
     Eigenvalues ---    0.07447   0.10342   0.10569   0.15993   0.15998
     Eigenvalues ---    0.15999   0.15999   0.16000   0.16000   0.16000
     Eigenvalues ---    0.16000   0.16000   0.16000   0.16000   0.16000
     Eigenvalues ---    0.16000   0.16000   0.16000   0.22000   0.22000
     Eigenvalues ---    0.22000   0.23453   0.23466   0.23484   0.24969
     Eigenvalues ---    0.24979   0.24997   0.25000   0.25000   0.25000
     Eigenvalues ---    0.34733   0.34743   0.34760   0.34997   0.35020
     Eigenvalues ---    0.35078   0.36256   0.36260   0.36265   0.36268
     Eigenvalues ---    0.36515   0.36519   0.36543   0.36570   0.36674
     Eigenvalues ---    0.36896   0.40510   0.41634   0.42627   0.43086
     Eigenvalues ---    0.43428   0.43746   0.44472   0.45446   0.46261
     Eigenvalues ---    0.46981   0.47337   0.47973   0.48662   0.49125
     Eigenvalues ---    0.49304   0.49705
 RFO step:  Lambda=-1.68854464D-02 EMin= 8.67238204D-03
 Linear search not attempted -- first point.
 Iteration  1 RMS(Cart)=  0.08190704 RMS(Int)=  0.00225043
 Iteration  2 RMS(Cart)=  0.00389926 RMS(Int)=  0.00016152
 Iteration  3 RMS(Cart)=  0.00001269 RMS(Int)=  0.00016139
 Iteration  4 RMS(Cart)=  0.00000001 RMS(Int)=  0.00016139
 Variable       Old X    -DE/DX   Delta X   Delta X   Delta X     New X
                                 (Linear)    (Quad)   (Total)
    R1        2.65893   0.00116   0.00000   0.00252   0.00252   2.66146
    R2        2.06111   0.00844   0.00000   0.02317   0.02317   2.08428
    R3        2.06095   0.00838   0.00000   0.02301   0.02301   2.08396
    R4        2.06066   0.00441   0.00000   0.01210   0.01210   2.07275
    R5        2.64762  -0.03495   0.00000  -0.07414  -0.07414   2.57347
    R6        2.63086   0.00421   0.00000   0.00794   0.00798   2.63884
    R7        2.64068   0.00094   0.00000   0.00150   0.00153   2.64221
    R8        2.62695   0.01222   0.00000   0.02467   0.02468   2.65163
    R9        2.02703   0.01192   0.00000   0.03090   0.03090   2.05793
   R10        2.70866  -0.01669   0.00000  -0.03955  -0.03955   2.66911
   R11        2.63607   0.00407   0.00000   0.00894   0.00890   2.64497
   R12        2.76341  -0.00833   0.00000  -0.02170  -0.02170   2.74171
   R13        2.69392  -0.02051   0.00000  -0.04735  -0.04735   2.64657
   R14        2.05548   0.00479   0.00000   0.01304   0.01304   2.06852
   R15        2.05643   0.01072   0.00000   0.02919   0.02919   2.08562
   R16        2.05679   0.00902   0.00000   0.02459   0.02459   2.08138
   R17        2.63572   0.01297   0.00000   0.02670   0.02670   2.66243
   R18        2.63602   0.00992   0.00000   0.02032   0.02032   2.65634
   R19        2.60103   0.01460   0.00000   0.02843   0.02842   2.62945
   R20        2.03284   0.01066   0.00000   0.02792   0.02792   2.06076
   R21        2.60922   0.01518   0.00000   0.03023   0.03023   2.63945
   R22        2.03676   0.01040   0.00000   0.02741   0.02741   2.06418
   R23        2.60968   0.01182   0.00000   0.02357   0.02357   2.63325
   R24        2.03669   0.01041   0.00000   0.02742   0.02742   2.06412
   R25        2.60232   0.01698   0.00000   0.03303   0.03304   2.63535
   R26        2.03683   0.01033   0.00000   0.02723   0.02723   2.06406
   R27        2.03199   0.01110   0.00000   0.02901   0.02901   2.06100
   R28        2.60244   0.01749   0.00000   0.03478   0.03473   2.63718
   R29        2.03278   0.01155   0.00000   0.03022   0.03022   2.06299
   R30        2.60192   0.01152   0.00000   0.02268   0.02267   2.62459
   R31        2.03664   0.00999   0.00000   0.02632   0.02632   2.06296
   R32        2.03241   0.01193   0.00000   0.03120   0.03120   2.06361
    A1        1.91924   0.00642   0.00000   0.03767   0.03732   1.95656
    A2        1.91860   0.00661   0.00000   0.03869   0.03834   1.95695
    A3        1.89447  -0.00741   0.00000  -0.04455  -0.04430   1.85017
    A4        1.92960  -0.00439   0.00000  -0.01979  -0.02059   1.90901
    A5        1.90090  -0.00064   0.00000  -0.00625  -0.00600   1.89490
    A6        1.90047  -0.00079   0.00000  -0.00720  -0.00695   1.89352
    A7        2.00237   0.01709   0.00000   0.06403   0.06403   2.06640
    A8        2.17057  -0.00051   0.00000  -0.00127  -0.00133   2.16924
    A9        2.05439  -0.00990   0.00000  -0.03643  -0.03648   2.01790
   A10        2.05823   0.01041   0.00000   0.03771   0.03776   2.09599
   A11        2.12444  -0.00536   0.00000  -0.02358  -0.02354   2.10090
   A12        2.09648   0.00400   0.00000   0.01927   0.01924   2.11573
   A13        2.06219   0.00136   0.00000   0.00436   0.00433   2.06652
   A14        2.09693  -0.00058   0.00000  -0.00285  -0.00290   2.09403
   A15        2.07062   0.00298   0.00000   0.01246   0.01237   2.08299
   A16        2.11563  -0.00240   0.00000  -0.00965  -0.00969   2.10594
   A17        2.07116   0.00241   0.00000   0.00881   0.00876   2.07992
   A18        2.13052   0.00178   0.00000   0.00643   0.00638   2.13690
   A19        2.08029  -0.00422   0.00000  -0.01606  -0.01610   2.06419
   A20        1.93565  -0.00472   0.00000  -0.02915  -0.02901   1.90665
   A21        1.92099   0.00517   0.00000   0.03067   0.03057   1.95156
   A22        1.92256   0.00254   0.00000   0.01539   0.01521   1.93778
   A23        1.88266  -0.00076   0.00000  -0.00631  -0.00610   1.87656
   A24        1.89496   0.00044   0.00000  -0.00030  -0.00023   1.89473
   A25        1.90622  -0.00282   0.00000  -0.01109  -0.01147   1.89475
   A26        2.10044   0.00533   0.00000   0.02030   0.02017   2.12062
   A27        2.12178  -0.00662   0.00000  -0.02448  -0.02458   2.09720
   A28        2.06086   0.00128   0.00000   0.00382   0.00372   2.06458
   A29        2.11180  -0.00168   0.00000  -0.00734  -0.00733   2.10447
   A30        2.07593   0.00222   0.00000   0.01145   0.01145   2.08738
   A31        2.09532  -0.00054   0.00000  -0.00411  -0.00411   2.09120
   A32        2.09573   0.00282   0.00000   0.01269   0.01268   2.10840
   A33        2.09370  -0.00234   0.00000  -0.01161  -0.01162   2.08208
   A34        2.09375  -0.00048   0.00000  -0.00110  -0.00112   2.09264
   A35        2.09114  -0.00395   0.00000  -0.01557  -0.01557   2.07556
   A36        2.09595   0.00212   0.00000   0.00861   0.00860   2.10455
   A37        2.09609   0.00183   0.00000   0.00694   0.00693   2.10302
   A38        2.09831   0.00233   0.00000   0.01027   0.01028   2.10858
   A39        2.09202  -0.00025   0.00000   0.00003   0.00003   2.09205
   A40        2.09285  -0.00208   0.00000  -0.01031  -0.01031   2.08254
   A41        2.10848  -0.00080   0.00000  -0.00400  -0.00400   2.10449
   A42        2.08517   0.00187   0.00000   0.01029   0.01029   2.09546
   A43        2.08947  -0.00106   0.00000  -0.00626  -0.00627   2.08320
   A44        2.10196  -0.00378   0.00000  -0.01239  -0.01248   2.08948
   A45        2.08156   0.00268   0.00000   0.01075   0.01079   2.09235
   A46        2.09928   0.00110   0.00000   0.00180   0.00184   2.10112
   A47        2.09932   0.00269   0.00000   0.01442   0.01434   2.11365
   A48        2.09232  -0.00097   0.00000  -0.00512  -0.00511   2.08721
   A49        2.09153  -0.00172   0.00000  -0.00935  -0.00934   2.08219
   A50        2.11180  -0.00695   0.00000  -0.02868  -0.02867   2.08313
   A51        2.06350   0.00316   0.00000   0.01256   0.01255   2.07605
   A52        2.10789   0.00379   0.00000   0.01612   0.01612   2.12401
    D1        1.04946   0.00141   0.00000   0.00970   0.01051   1.05997
    D2       -1.07887  -0.00162   0.00000  -0.01553  -0.01634  -1.09522
    D3        3.12734  -0.00007   0.00000  -0.00265  -0.00264   3.12470
    D4        0.01590   0.00025   0.00000   0.00655   0.00643   0.02232
    D5       -3.12494  -0.00022   0.00000  -0.00585  -0.00573  -3.13067
    D6       -3.13634   0.00015   0.00000   0.00385   0.00365  -3.13269
    D7        0.01865  -0.00000   0.00000  -0.00052  -0.00062   0.01803
    D8        0.00450   0.00062   0.00000   0.01625   0.01629   0.02078
    D9       -3.12370   0.00046   0.00000   0.01187   0.01202  -3.11168
   D10        3.13831   0.00031   0.00000   0.00827   0.00814  -3.13673
   D11       -0.00071   0.00024   0.00000   0.00653   0.00645   0.00574
   D12       -0.00258  -0.00012   0.00000  -0.00330  -0.00345  -0.00603
   D13        3.14159  -0.00019   0.00000  -0.00504  -0.00514   3.13644
   D14        3.13989   0.00020   0.00000   0.00591   0.00616  -3.13714
   D15       -0.00408  -0.00052   0.00000  -0.01427  -0.01417  -0.01826
   D16       -0.01484   0.00037   0.00000   0.01032   0.01042  -0.00442
   D17        3.12437  -0.00035   0.00000  -0.00987  -0.00991   3.11446
   D18        2.34291  -0.00206   0.00000  -0.06642  -0.06645   2.27646
   D19       -0.74529  -0.00142   0.00000  -0.04793  -0.04779  -0.79308
   D20       -0.79624  -0.00133   0.00000  -0.04573  -0.04588  -0.84211
   D21        2.39875  -0.00069   0.00000  -0.02724  -0.02722   2.37153
   D22        0.00169  -0.00005   0.00000  -0.00073  -0.00052   0.00117
   D23        3.11334   0.00018   0.00000   0.00566   0.00579   3.11913
   D24        3.14087  -0.00077   0.00000  -0.02113  -0.02098   3.11989
   D25       -0.03067  -0.00054   0.00000  -0.01475  -0.01467  -0.04534
   D26        0.18748   0.00033   0.00000   0.01093   0.01084   0.19831
   D27       -1.89448   0.00094   0.00000   0.01751   0.01772  -1.87676
   D28        2.28580  -0.00050   0.00000   0.00178   0.00157   2.28737
   D29       -3.00594  -0.00011   0.00000  -0.00635  -0.00638  -3.01232
   D30        1.19529   0.00050   0.00000   0.00024   0.00051   1.19579
   D31       -0.90763  -0.00094   0.00000  -0.01549  -0.01564  -0.92327
   D32       -0.39300  -0.00141   0.00000  -0.04558  -0.04552  -0.43852
   D33        2.76451  -0.00043   0.00000  -0.01810  -0.01808   2.74643
   D34        2.80226  -0.00097   0.00000  -0.02774  -0.02775   2.77451
   D35       -0.32341   0.00002   0.00000  -0.00026  -0.00032  -0.32373
   D36       -3.13661   0.00047   0.00000   0.01209   0.01246  -3.12414
   D37       -0.01309   0.00046   0.00000   0.01236   0.01265  -0.00044
   D38       -0.01038  -0.00055   0.00000  -0.01471  -0.01473  -0.02512
   D39        3.11313  -0.00057   0.00000  -0.01444  -0.01454   3.09859
   D40        3.13663  -0.00059   0.00000  -0.01727  -0.01693   3.11970
   D41       -0.01637  -0.00049   0.00000  -0.01467  -0.01438  -0.03075
   D42        0.01060   0.00033   0.00000   0.00945   0.00948   0.02008
   D43        3.14079   0.00043   0.00000   0.01205   0.01203  -3.13037
   D44        0.00363   0.00032   0.00000   0.00839   0.00841   0.01204
   D45       -3.14120  -0.00004   0.00000  -0.00068  -0.00069   3.14130
   D46       -3.11969   0.00031   0.00000   0.00795   0.00807  -3.11162
   D47        0.01867  -0.00005   0.00000  -0.00111  -0.00104   0.01763
   D48        0.00318   0.00012   0.00000   0.00346   0.00339   0.00658
   D49       -3.14143  -0.00016   0.00000  -0.00381  -0.00386   3.13790
   D50       -3.13518   0.00048   0.00000   0.01255   0.01257  -3.12260
   D51        0.00340   0.00021   0.00000   0.00528   0.00532   0.00872
   D52       -0.00295  -0.00034   0.00000  -0.00868  -0.00870  -0.01165
   D53        3.13950  -0.00022   0.00000  -0.00597  -0.00589   3.13361
   D54       -3.14153  -0.00007   0.00000  -0.00141  -0.00146   3.14020
   D55        0.00093   0.00006   0.00000   0.00131   0.00135   0.00228
   D56       -0.00409   0.00012   0.00000   0.00212   0.00222  -0.00188
   D57       -3.13425   0.00000   0.00000  -0.00059  -0.00042  -3.13467
   D58        3.13664  -0.00000   0.00000  -0.00059  -0.00057   3.13607
   D59        0.00648  -0.00012   0.00000  -0.00330  -0.00321   0.00327
   D60        0.00014   0.00054   0.00000   0.01343   0.01350   0.01364
   D61        3.13670   0.00004   0.00000   0.00112   0.00105   3.13775
   D62       -3.11120   0.00028   0.00000   0.00683   0.00700  -3.10420
   D63        0.02536  -0.00022   0.00000  -0.00547  -0.00544   0.01992
   D64        0.00032  -0.00047   0.00000  -0.01142  -0.01153  -0.01121
   D65        3.13928  -0.00040   0.00000  -0.00965  -0.00980   3.12948
   D66       -3.13624   0.00004   0.00000   0.00087   0.00087  -3.13537
   D67        0.00272   0.00010   0.00000   0.00264   0.00260   0.00532
         Item               Value     Threshold  Converged?
 Maximum Force            0.034946     0.000450     NO 
 RMS     Force            0.006452     0.000300     NO 
 Maximum Displacement     0.458218     0.001800     NO 
 RMS     Displacement     0.084369     0.001200     NO 
 Predicted change in Energy=-8.996295D-03
 GradGradGradGradGradGradGradGradGradGradGradGradGradGradGradGradGradGrad

                          Input orientation:                          
 ---------------------------------------------------------------------
 Center     Atomic      Atomic             Coordinates (Angstroms)
 Number     Number       Type             X           Y           Z
 ---------------------------------------------------------------------
      1          6           0       -2.189762    2.874125    1.025010
      2          8           0       -3.029781    1.918737    0.420741
      3          6           0       -2.505223    0.702153    0.105584
      4          6           0       -1.186578    0.322913    0.365046
      5          6           0       -0.728700   -0.950737   -0.005208
      6          7           0        0.605209   -1.327614    0.266101
      7          6           0        0.862492   -2.597977    0.917981
      8          6           0        1.691993   -0.483382    0.006119
      9          6           0        1.622661    0.524848   -0.975541
     10          6           0        2.721124    1.339425   -1.232387
     11          6           0        3.918526    1.166586   -0.534365
     12          6           0        4.001147    0.156794    0.422300
     13          6           0        2.905314   -0.662163    0.693005
     14          6           0       -1.612936   -1.846284   -0.617720
     15          6           0       -2.933821   -1.462363   -0.853060
     16          6           0       -3.386112   -0.196469   -0.503899
     17          1           0       -1.333050    3.138852    0.382772
     18          1           0       -1.820057    2.539265    2.008535
     19          1           0       -2.806278    3.769407    1.171519
     20          1           0       -0.492736    0.998072    0.863730
     21          1           0       -0.057837   -3.190462    0.929512
     22          1           0        1.184431   -2.463884    1.965094
     23          1           0        1.638951   -3.166803    0.382564
     24          1           0        0.704706    0.655486   -1.549558
     25          1           0        2.644338    2.114434   -1.998295
     26          1           0        4.779677    1.805859   -0.741318
     27          1           0        4.932447    0.003137    0.971927
     28          1           0        2.994237   -1.441062    1.451220
     29          1           0       -1.260600   -2.831724   -0.928451
     30          1           0       -3.620721   -2.161235   -1.334197
     31          1           0       -4.414511    0.117957   -0.693710
 ---------------------------------------------------------------------
                    Distance matrix (angstroms):
                    1          2          3          4          5
     1  C    0.000000
     2  O    1.408382   0.000000
     3  C    2.379564   1.361824   0.000000
     4  C    2.819683   2.438679   1.396412   0.000000
     5  C    4.222040   3.702741   2.429064   1.403183   0.000000
     6  N    5.103178   4.876051   3.717594   2.438141   1.412430
     7  C    6.266706   5.983121   4.784595   3.610543   2.469326
     8  C    5.232496   5.313872   4.362569   3.010833   2.465422
     9  C    4.904679   5.053490   4.270796   3.119260   2.940714
    10  C    5.618536   6.011768   5.432401   4.342261   4.318807
    11  C    6.531349   7.053859   6.472231   5.251934   5.134177
    12  C    6.787820   7.248338   6.536862   5.190700   4.876560
    13  C    6.210907   6.477695   5.610734   4.221554   3.711716
    14  C    5.031258   4.154665   2.795331   2.419302   1.399660
    15  C    4.783921   3.614363   2.405790   2.779182   2.417266
    16  C    3.632818   2.335814   1.398198   2.421316   2.807036
    17  H    1.102953   2.090220   2.718148   2.819802   4.152169
    18  H    1.102785   2.090353   2.732336   2.831002   4.174486
    19  H    1.096853   2.009626   3.261119   3.892576   5.289685
    20  H    2.534853   2.735043   2.170819   1.089010   2.146762
    21  H    6.429109   5.932556   4.671296   3.733160   2.517961
    22  H    6.384613   6.273116   5.205297   3.993504   3.135566
    23  H    7.180849   6.903712   5.676241   4.490216   3.266051
    24  H    4.464158   4.407299   3.611830   2.711692   2.649457
    25  H    5.752046   6.171359   5.739236   4.844673   4.974441
    26  H    7.268713   7.896250   7.416548   6.246549   6.203459
    27  H    7.679274   8.207948   7.520512   6.157356   5.823509
    28  H    6.758428   6.974162   6.053773   4.665898   4.027637
    29  H    6.102136   5.245684   3.886720   3.410329   2.161806
    30  H    5.741807   4.480534   3.393566   3.870848   3.405187
    31  H    3.937000   2.530274   2.150706   3.403310   3.898890
                    6          7          8          9         10
     6  N    0.000000
     7  C    1.450849   0.000000
     8  C    1.400506   2.447667   0.000000
     9  C    2.451224   3.730324   1.408897   0.000000
    10  C    3.719631   4.856102   2.432207   1.391447   0.000000
    11  C    4.223724   5.061678   2.823467   2.424347   1.396739
    12  C    3.709482   4.205426   2.432123   2.783274   2.403136
    13  C    2.432191   2.823315   1.405675   2.416245   2.783417
    14  C    2.443425   3.008515   3.628944   4.027331   5.413929
    15  C    3.714218   4.340299   4.805700   4.972479   6.322366
    16  C    4.219365   5.083269   5.111711   5.082377   6.339401
    17  H    4.870297   6.165879   4.734272   4.173041   4.720488
    18  H    4.885771   5.897171   5.047827   4.981456   5.706621
    19  H    6.199811   7.353076   6.299112   5.895128   6.498904
    20  H    2.640353   3.843326   2.775472   2.842845   3.852159
    21  H    2.085653   1.094613   3.353035   4.500759   5.737274
    22  H    2.124426   1.103662   2.831535   4.215673   5.201006
    23  H    2.113007   1.101419   2.710216   3.933573   4.907673
    24  H    2.690577   4.086400   2.166076   1.090506   2.152745
    25  H    4.597090   5.821208   3.416619   2.148636   1.092315
    26  H    5.315988   6.123021   3.915748   3.415055   2.167107
    27  H    4.581929   4.830448   3.416142   3.875499   3.396265
    28  H    2.669238   2.483371   2.168250   3.411039   3.873944
    29  H    2.677787   2.823379   3.886635   4.425154   5.774511
    30  H    4.595036   5.036094   5.730319   5.902265   7.244582
    31  H    5.311168   6.149846   6.175821   6.057429   7.259438
                   11         12         13         14         15
    11  C    0.000000
    12  C    1.393454   0.000000
    13  C    2.424326   1.394568   0.000000
    14  C    6.299318   6.050776   4.851260   0.000000
    15  C    7.346264   7.234777   6.093122   1.395535   0.000000
    16  C    7.430786   7.453471   6.421176   2.424665   1.388873
    17  H    5.684191   6.111292   5.701552   5.092240   5.026026
    18  H    6.425101   6.486812   5.857380   5.115971   5.044029
    19  H    7.409973   7.742954   7.245003   6.013437   5.611293
[...]
    19  H    0.000000   0.000006   0.000015   0.000002  -0.000000  -0.000000
    20  H   -0.000202   0.000033  -0.002435  -0.000561   0.000026   0.000062
    21  H    0.407870   0.006879  -0.000481   0.000062  -0.000018   0.000108
    22  H    0.405482  -0.005488  -0.000695  -0.000182   0.000152  -0.001153
    23  H    0.414131  -0.005988   0.000930   0.000030  -0.000291   0.001656
    24  H   -0.000189  -0.046483   0.433433  -0.041026   0.007300  -0.001997
    25  H    0.000016   0.013264  -0.057289   0.441605  -0.057363   0.011036
    26  H   -0.000000  -0.003688   0.012297  -0.059999   0.446891  -0.058927
    27  H   -0.000026   0.013008  -0.002776   0.010111  -0.054806   0.436628
    28  H    0.005001  -0.058138   0.003337  -0.000450   0.005610  -0.023536
    29  H   -0.002729   0.000662  -0.000106   0.000013  -0.000000  -0.000002
    30  H    0.000021  -0.000017   0.000006   0.000000  -0.000000   0.000000
    31  H   -0.000006  -0.000003  -0.000003  -0.000001   0.000000  -0.000000
              13         14         15         16         17         18
     1  C   -0.000002   0.001467  -0.002038   0.005227   0.414454   0.411824
     2  O    0.000005  -0.001356   0.003102  -0.057451  -0.040536  -0.041475
     3  C   -0.000908  -0.119282   0.051746   0.380992  -0.020229  -0.017965
     4  C    0.003989   0.073238  -0.134137   0.095035   0.017502   0.011744
     5  C    0.001441   0.439552   0.017492  -0.111881  -0.002799  -0.000019
     6  N   -0.093419  -0.036419   0.004946   0.001895  -0.000126   0.000007
     7  C   -0.007665  -0.011523   0.001205  -0.000384  -0.000012   0.000012
     8  C    0.378151  -0.013576   0.000316   0.000346   0.000052   0.000040
     9  C    0.023091   0.008671   0.000034  -0.000517  -0.000071   0.000239
    10  C   -0.072760   0.000197  -0.000027  -0.000060  -0.000082   0.000039
    11  C    0.015316   0.000019   0.000001   0.000003   0.000056  -0.000011
    12  C    0.440652   0.000024  -0.000007  -0.000002  -0.000029   0.000004
    13  C    5.213391  -0.000399   0.000154   0.000022   0.000034  -0.000023
    14  C   -0.000399   5.144733   0.406528   0.041418   0.000114   0.000265
    15  C    0.000154   0.406528   4.882713   0.440477  -0.000267  -0.000314
    16  C    0.000022   0.041418   0.440477   5.064988   0.001183   0.001045
    17  H    0.000034   0.000114  -0.000267   0.001183   0.576133  -0.053273
    18  H   -0.000023   0.000265  -0.000314   0.001045  -0.053273   0.585515
    19  H    0.000001  -0.000070   0.000142  -0.000581  -0.019361  -0.021039
    20  H    0.001098   0.006202  -0.000409   0.002311  -0.000099   0.002260
    21  H    0.000582  -0.003753  -0.000211  -0.000169   0.000001  -0.000004
    22  H    0.008778   0.003031   0.000280  -0.000010   0.000001   0.000004
    23  H   -0.004362   0.000011  -0.000313   0.000002   0.000000  -0.000000
    24  H    0.007374   0.000523  -0.000003   0.000646   0.000145  -0.000005
    25  H   -0.003557  -0.000009   0.000003  -0.000005  -0.000012   0.000001
    26  H    0.012892   0.000000  -0.000000   0.000000   0.000000  -0.000000
    27  H   -0.054720   0.000000   0.000000   0.000000  -0.000000   0.000000
    28  H    0.431240  -0.000086   0.000010  -0.000001  -0.000000   0.000001
    29  H   -0.000024   0.429464  -0.038307   0.009396   0.000002   0.000002
    30  H   -0.000002  -0.064687   0.455266  -0.068605  -0.000001  -0.000002
    31  H    0.000000   0.016481  -0.063206   0.451003   0.000137   0.000126
              19         20         21         22         23         24
     1  C    0.399913   0.008366   0.000002  -0.000003  -0.000000   0.000053
     2  O   -0.030294  -0.006501   0.000002   0.000002  -0.000000  -0.000081
     3  C    0.007632  -0.058406   0.000618  -0.001038   0.000135  -0.001598
     4  C   -0.003438   0.413132   0.000222   0.004156  -0.001566   0.001145
     5  C    0.000357   0.000892  -0.008312  -0.005676   0.013354  -0.001073
     6  N   -0.000000  -0.002369  -0.026073  -0.053522  -0.043930  -0.002947
     7  C    0.000000  -0.000202   0.407870   0.405482   0.414131  -0.000189
     8  C    0.000006   0.000033   0.006879  -0.005488  -0.005988  -0.046483
     9  C    0.000015  -0.002435  -0.000481  -0.000695   0.000930   0.433433
    10  C    0.000002  -0.000561   0.000062  -0.000182   0.000030  -0.041026
    11  C   -0.000000   0.000026  -0.000018   0.000152  -0.000291   0.007300
    12  C   -0.000000   0.000062   0.000108  -0.001153   0.001656  -0.001997
    13  C    0.000001   0.001098   0.000582   0.008778  -0.004362   0.007374
    14  C   -0.000070   0.006202  -0.003753   0.003031   0.000011   0.000523
    15  C    0.000142  -0.000409  -0.000211   0.000280  -0.000313  -0.000003
    16  C   -0.000581   0.002311  -0.000169  -0.000010   0.000002   0.000646
    17  H   -0.019361  -0.000099   0.000001   0.000001   0.000000   0.000145
    18  H   -0.021039   0.002260  -0.000004   0.000004  -0.000000  -0.000005
    19  H    0.526248  -0.000390   0.000000   0.000000  -0.000000  -0.000003
    20  H   -0.000390   0.471020  -0.000196   0.000395  -0.000002  -0.000489
    21  H    0.000000  -0.000196   0.515978  -0.026469  -0.011955  -0.000025
    22  H    0.000000   0.000395  -0.026469   0.592861  -0.048723   0.000035
    23  H   -0.000000  -0.000002  -0.011955  -0.048723   0.554927  -0.000011
    24  H   -0.000003  -0.000489  -0.000025   0.000035  -0.000011   0.503824
    25  H    0.000000  -0.000007  -0.000000  -0.000001   0.000000  -0.007002
    26  H    0.000000   0.000001  -0.000000   0.000001  -0.000000  -0.000096
    27  H   -0.000000  -0.000001  -0.000001  -0.000002  -0.000015   0.000031
    28  H    0.000000   0.000011   0.000386   0.003443  -0.007218  -0.000148
    29  H   -0.000000  -0.000148  -0.002799   0.000623  -0.000647  -0.000038
    30  H    0.000000  -0.000011   0.000034  -0.000007   0.000004  -0.000007
    31  H   -0.000221   0.000082  -0.000001  -0.000000   0.000000   0.000010
              25         26         27         28         29         30
     1  C   -0.000003   0.000000   0.000000   0.000001  -0.000000   0.000026
     2  O    0.000001   0.000000   0.000000   0.000000   0.000008  -0.000120
     3  C    0.000027  -0.000000  -0.000000  -0.000005  -0.004316   0.016551
     4  C   -0.000144   0.000005  -0.000006   0.000339   0.014589  -0.007086
     5  C    0.000098   0.000001   0.000027  -0.001293  -0.056736   0.017718
     6  N   -0.000154   0.000020  -0.000116  -0.004865   0.005270  -0.000236
     7  C    0.000016  -0.000000  -0.000026   0.005001  -0.002729   0.000021
     8  C    0.013264  -0.003688   0.013008  -0.058138   0.000662  -0.000017
     9  C   -0.057289   0.012297  -0.002776   0.003337  -0.000106   0.000006
    10  C    0.441605  -0.059999   0.010111  -0.000450   0.000013   0.000000
    11  C   -0.057363   0.446891  -0.054806   0.005610  -0.000000  -0.000000
    12  C    0.011036  -0.058927   0.436628  -0.023536  -0.000002   0.000000
    13  C   -0.003557   0.012892  -0.054720   0.431240  -0.000024  -0.000002
    14  C   -0.000009   0.000000   0.000000  -0.000086   0.429464  -0.064687
    15  C    0.000003  -0.000000   0.000000   0.000010  -0.038307   0.455266
    16  C   -0.000005   0.000000   0.000000  -0.000001   0.009396  -0.068605
    17  H   -0.000012   0.000000  -0.000000  -0.000000   0.000002  -0.000001
    18  H    0.000001  -0.000000   0.000000   0.000001   0.000002  -0.000002
    19  H    0.000000   0.000000  -0.000000   0.000000  -0.000000   0.000000
    20  H   -0.000007   0.000001  -0.000001   0.000011  -0.000148  -0.000011
    21  H   -0.000000  -0.000000  -0.000001   0.000386  -0.002799   0.000034
    22  H   -0.000001   0.000001  -0.000002   0.003443   0.000623  -0.000007
    23  H    0.000000  -0.000000  -0.000015  -0.007218  -0.000647   0.000004
    24  H   -0.007002  -0.000096   0.000031  -0.000148  -0.000038  -0.000007
    25  H    0.549865  -0.006963  -0.000173   0.000037  -0.000000   0.000000
    26  H   -0.006963   0.551077  -0.006984  -0.000146   0.000000  -0.000000
    27  H   -0.000173  -0.006984   0.552021  -0.006693   0.000000  -0.000000
    28  H    0.000037  -0.000146  -0.006693   0.523093   0.000002  -0.000000
    29  H   -0.000000   0.000000   0.000000   0.000002   0.515597  -0.007158
    30  H    0.000000  -0.000000  -0.000000  -0.000000  -0.007158   0.548852
    31  H   -0.000000   0.000000   0.000000   0.000000   0.000007  -0.008925
              31
     1  C   -0.000182
     2  O    0.008722
     3  C   -0.077388
     4  C    0.024828
     5  C   -0.008507
     6  N    0.000011
     7  C   -0.000006
     8  C   -0.000003
     9  C   -0.000003
    10  C   -0.000001
    11  C    0.000000
    12  C   -0.000000
    13  C    0.000000
    14  C    0.016481
    15  C   -0.063206
    16  C    0.451003
    17  H    0.000137
    18  H    0.000126
    19  H   -0.000221
    20  H    0.000082
    21  H   -0.000001
    22  H   -0.000000
    23  H    0.000000
    24  H    0.000010
    25  H   -0.000000
    26  H    0.000000
    27  H    0.000000
    28  H    0.000000
    29  H    0.000007
    30  H   -0.008925
    31  H    0.534117
 Mulliken charges:
               1
     1  C   -0.207171
     2  O   -0.284677
     3  C    0.446794
     4  C   -0.457750
     5  C    0.197682
     6  N   -0.062033
     7  C   -0.313266
     8  C    0.229075
     9  C   -0.258125
    10  C   -0.091263
    11  C   -0.168007
    12  C   -0.097691
    13  C   -0.300371
    14  C   -0.320779
    15  C   -0.025180
    16  C   -0.256320
    17  H    0.127082
    18  H    0.121003
    19  H    0.141080
    20  H    0.166339
    21  H    0.147723
    22  H    0.123724
    23  H    0.139839
    24  H    0.148700
    25  H    0.116730
    26  H    0.113620
    27  H    0.114495
    28  H    0.130069
    29  H    0.137375
    30  H    0.118384
    31  H    0.122919
 Sum of Mulliken charges =  -0.00000
 Mulliken charges with hydrogens summed into heavy atoms:
               1
     1  C    0.181994
     2  O   -0.284677
     3  C    0.446794
     4  C   -0.291412
     5  C    0.197682
     6  N   -0.062033
     7  C    0.098020
     8  C    0.229075
     9  C   -0.109425
    10  C    0.025467
    11  C   -0.054387
    12  C    0.016804
    13  C   -0.170302
    14  C   -0.183404
    15  C    0.093204
    16  C   -0.133402
 Electronic spatial extent (au):  <R**2>=           3993.9129
 Charge=              0.0000 electrons
 Dipole moment (field-independent basis, Debye):
    X=              0.0761    Y=             -0.0276    Z=             -1.0495  Tot=              1.0527
 Quadrupole moment (field-independent basis, Debye-Ang):
   XX=            -96.2422   YY=            -85.2272   ZZ=            -93.9256
   XY=              0.0157   XZ=              3.2404   YZ=              0.2138
 Traceless Quadrupole moment (field-independent basis, Debye-Ang):
   XX=             -4.4439   YY=              6.5711   ZZ=             -2.1273
   XY=              0.0157   XZ=              3.2404   YZ=              0.2138
 Octapole moment (field-independent basis, Debye-Ang**2):
  XXX=              1.6020  YYY=              7.8127  ZZZ=             -8.6529  XYY=             13.3279
  XXY=              4.1022  XXZ=             -4.7011  XZZ=              4.5555  YZZ=              5.4794
  YYZ=             -3.4302  XYZ=            -20.5358
 Hexadecapole moment (field-independent basis, Debye-Ang**3):
 XXXX=          -3521.0799 YYYY=          -1277.4092 ZZZZ=           -493.1110 XXXY=            -54.0918
 XXXZ=             93.9001 YYYX=             69.0231 YYYZ=            -21.5296 ZZZX=             -5.8779
 ZZZY=              6.5598 XXYY=           -791.7332 XXZZ=           -683.6199 YYZZ=           -288.5018
 XXYZ=             -5.6712 YYXZ=            -17.2758 ZZXY=             11.5473
 N-N= 1.038429575316D+03 E-N=-3.640114200356D+03  KE= 6.688041998348D+02
 Breneman (CHELPG) radii used.
 Read replacement radii for each type of atom:
 Atom Element Radius
    1     6    1.50
    2     8    1.70
    3     6    1.50
    4     6    1.50
    5     6    1.50
    6     7    1.70
    7     6    1.50
    8     6    1.50
    9     6    1.50
   10     6    1.50
   11     6    1.50
   12     6    1.50
   13     6    1.50
   14     6    1.50
   15     6    1.50
   16     6    1.50
   17     1    1.45
   18     1    1.45
   19     1    1.45
   20     1    1.45
   21     1    1.45
   22     1    1.45
   23     1    1.45
   24     1    1.45
   25     1    1.45
   26     1    1.45
   27     1    1.45
   28     1    1.45
   29     1    1.45
   30     1    1.45
   31     1    1.45
 Generate Potential Derived Charges using the Breneman model, NDens= 1.
 Grid spacing= 0.300 Box extension= 2.800
 NStep X,Y,Z=   51     42     35   Total possible points=       74970
 Number of Points to Fit=   18893

 **********************************************************************

            Electrostatic Properties Using The SCF Density.

 **********************************************************************

       Atomic Center    1 is at   2.365676  2.721196 -1.011144
       Atomic Center    2 is at   3.128513  1.729829 -0.378953
       Atomic Center    3 is at   2.542676  0.557319 -0.058176
       Atomic Center    4 is at   1.214178  0.244404 -0.352216
       Atomic Center    5 is at   0.679519 -0.995220  0.032525
       Atomic Center    6 is at  -0.668100 -1.312407 -0.276129
       Atomic Center    7 is at  -0.910806 -2.426776 -1.166596
       Atomic Center    8 is at  -1.696610 -0.407247 -0.014084
       Atomic Center    9 is at  -1.581990  0.529843  1.034165
       Atomic Center   10 is at  -2.615421  1.414090  1.312805
       Atomic Center   11 is at  -3.800221  1.392180  0.573305
       Atomic Center   12 is at  -3.927638  0.462006 -0.452917
       Atomic Center   13 is at  -2.894369 -0.426305 -0.751015
       Atomic Center   14 is at   1.485787 -1.923498  0.692507
       Atomic Center   15 is at   2.821179 -1.611745  0.956839
       Atomic Center   16 is at   3.353394 -0.383053  0.595297
       Atomic Center   17 is at   1.500479  3.026649 -0.397158
       Atomic Center   18 is at   2.000076  2.390261 -1.998964
       Atomic Center   19 is at   3.026349  3.585543 -1.149954
       Atomic Center   20 is at   0.566358  0.948800 -0.873045
       Atomic Center   21 is at  -0.056827 -3.113219 -1.128952
       Atomic Center   22 is at  -1.038339 -2.109130 -2.219228
       Atomic Center   23 is at  -1.811668 -2.982492 -0.863005
       Atomic Center   24 is at  -0.674057  0.551546  1.638465
       Atomic Center   25 is at  -2.496750  2.125712  2.133526
       Atomic Center   26 is at  -4.610917  2.086887  0.800032
       Atomic Center   27 is at  -4.845222  0.423054 -1.044971
       Atomic Center   28 is at  -3.028442 -1.131225 -1.571197
       Atomic Center   29 is at   1.063321 -2.878637  1.009165
       Atomic Center   30 is at   3.451903 -2.338797  1.473171
       Atomic Center   31 is at   4.390213 -0.119907  0.808852
   18893 points will be used for fitting atomic charges
 Fitting point charges to electrostatic potential
 Charges from ESP fit, RMS=   0.00363 RRMS=   0.35898:
 ESP charges:
               1
     1  C    0.126426
     2  O   -0.351872
     3  C    0.386802
     4  C   -0.280130
     5  C    0.351741
     6  N   -0.402476
     7  C    0.056941
     8  C    0.364963
     9  C   -0.210224
    10  C   -0.068031
    11  C   -0.162946
    12  C   -0.071096
    13  C   -0.249881
    14  C   -0.319404
    15  C   -0.012084
    16  C   -0.309945
    17  H    0.018207
    18  H    0.011752
    19  H    0.053082
    20  H    0.102522
    21  H    0.036236
    22  H    0.017990
    23  H    0.029352
    24  H    0.081180
    25  H    0.100081
    26  H    0.096019
    27  H    0.094528
    28  H    0.121240
    29  H    0.148343
    30  H    0.101010
    31  H    0.139677
 Sum of ESP charges =  -0.00000
 ESP charges with hydrogens summed into heavy atoms:
               1
     1  C    0.209466
     2  O   -0.351872
     3  C    0.386802
     4  C   -0.177609
     5  C    0.351741
     6  N   -0.402476
     7  C    0.140519
     8  C    0.364963
     9  C   -0.129044
    10  C    0.032049
    11  C   -0.066927
    12  C    0.023433
    13  C   -0.128641
    14  C   -0.171061
    15  C    0.088926
    16  C   -0.170269
 Charge=  -0.00000 Dipole=     0.0260    -0.1017    -0.9929 Tot=     0.9984
 -----------------------------------------------------------------

              Electrostatic Properties (Atomic Units)

 -----------------------------------------------------------------
    Center     Electric         -------- Electric Field --------
               Potential          X             Y             Z
 -----------------------------------------------------------------
    1 Atom    -14.712870
    2 Atom    -22.323455
    3 Atom    -14.704987
    4 Atom    -14.771889
    5 Atom    -14.725129
    6 Atom    -18.360019
    7 Atom    -14.735955
    8 Atom    -14.727644
    9 Atom    -14.778986
   10 Atom    -14.774042
   11 Atom    -14.782423
   12 Atom    -14.773573
   13 Atom    -14.777215
   14 Atom    -14.775547
   15 Atom    -14.765062
   16 Atom    -14.775230
   17 Atom     -1.105308
   18 Atom     -1.105361
   19 Atom     -1.103397
   20 Atom     -1.096790
   21 Atom     -1.104816
   22 Atom     -1.114939
   23 Atom     -1.110656
   24 Atom     -1.112912
   25 Atom     -1.113444
   26 Atom     -1.116232
   27 Atom     -1.112906
   28 Atom     -1.109040
   29 Atom     -1.105203
   30 Atom     -1.105649
   31 Atom     -1.105832
 -----------------------------------------------------------------
 Unable to Open any file for archive entry.
 1\1\GINC-NOTCH131\SP\RwB97XD\def2TZVP\C14H15N1O1\U1366379\17-Feb-2026\
 0\\#N Guess=Read Geom=Check Integral(Ultrafine) Density Pop=(ChelpG,Re
 adRadii) NMR wB97XD def2TZVP\\prod_5g_2\\0,1\C,0,-2.157575162,2.806848
 3303,1.1417944368\O,0,-2.9888450225,1.8860497075,0.4894803157\C,0,-2.4
 79935154,0.6929814951,0.1173470912\C,0,-1.1681072671,0.2910872378,0.37
 59419003\C,0,-0.7153522826,-0.9635850488,-0.0615095938\N,0,0.615538862
 7,-1.3714060953,0.2111895185\C,0,0.8050748856,-2.5295125016,1.05766558
 31\C,0,1.6923111312,-0.5203317923,-0.0379057974\C,0,1.6173858921,0.458
 9549027,-1.050567478\C,0,2.6975430278,1.2894692985,-1.3170628503\C,0,3
 .8906785328,1.170444931,-0.600577533\C,0,3.9784359558,0.1980841165,0.3
 900814602\C,0,2.8985112851,-0.6371916805,0.6758755825\C,0,-1.586619208
 3,-1.8178618743,-0.7385985196\C,0,-2.9049167396,-1.4177813738,-0.96742
 29835\C,0,-3.3562669056,-0.1733274896,-0.5535777698\H,0,-1.2855987702,
 3.0820391402,0.5231078389\H,0,-1.7966367399,2.419457518,2.1106197084\H
 ,0,-2.762673976,3.7034942433,1.3227250622\H,0,-0.470711664,0.936464160
 6,0.9090779256\H,0,-0.089184389,-3.1620407766,1.0117378441\H,0,0.96850
 9401,-2.2580315806,2.1182245533\H,0,1.6658131753,-3.1266739432,0.71844
 99342\H,0,0.7027529521,0.556417197,-1.6370301608\H,0,2.6086773278,2.03
 59077397,-2.1101609945\H,0,4.7379606603,1.8232899786,-0.8177356925\H,0
 ,4.901464498,0.0832801022,0.9635299544\H,0,3.0031424381,-1.3778432226,
 1.468387286\H,0,-1.2276074761,-2.7844962765,-1.0960466539\H,0,-3.58654
 19505,-2.0869401042,-1.4971682065\H,0,-4.3786773182,0.1586436608,-0.73
 88217618\\Version=ES64L-G16RevC.01\State=1-A\HF=-672.4943798\RMSD=9.78
 6e-10\Dipole=-0.0238514,-0.0238588,0.4127732\Quadrupole=-3.1976982,4.8
 711232,-1.673425,0.3884564,2.4368763,-0.0768502\PG=C01 [X(C14H15N1O1)]
 \\@
 The archive entry for this job was punched.


      LET US REMEMBER, PLEASE, THAT THE SEARCH FOR THE CONSTITUTION
      OF THE WORLD IS ONE OF THE GREATEST AND NOBLEST PROBLEMS PRESENTED 
      BY NATURE.

                                                  -- GALILEO
 Job cpu time:       0 days  1 hours 38 minutes 58.6 seconds.
 Elapsed time:       0 days  0 hours 12 minutes 47.7 seconds.
 File lengths (MBytes):  RWF=    209 Int=      0 D2E=      0 Chk=     32 Scr=      2
 Normal termination of Gaussian 16 at Tue Feb 17 16:53:39 2026.
