 Entering Gaussian System, Link 0=g16
 Input=prod_5d_6.com
 Output=prod_5d_6.log
 Initial command:
 /uufs/chpc.utah.edu/sys/installdir/gaussian16/C01/AVX/g16/l1.exe "/scratch/general/vast/u1366379/GAUSSSCRDIR/11028645-notchpeak.peaks/Gau-3402198.inp" -scrdir="/scratch/general/vast/u1366379/GAUSSSCRDIR/11028645-notchpeak.peaks/"
 Entering Link 1 = /uufs/chpc.utah.edu/sys/installdir/gaussian16/C01/AVX/g16/l1.exe PID=   3402199.
  
 Copyright (c) 1988-2019, Gaussian, Inc.  All Rights Reserved.
  
 This is part of the Gaussian(R) 16 program.  It is based on
 the Gaussian(R) 09 system (copyright 2009, Gaussian, Inc.),
 the Gaussian(R) 03 system (copyright 2003, Gaussian, Inc.),
 the Gaussian(R) 98 system (copyright 1998, Gaussian, Inc.),
 the Gaussian(R) 94 system (copyright 1995, Gaussian, Inc.),
 the Gaussian 92(TM) system (copyright 1992, Gaussian, Inc.),
 the Gaussian 90(TM) system (copyright 1990, Gaussian, Inc.),
 the Gaussian 88(TM) system (copyright 1988, Gaussian, Inc.),
 the Gaussian 86(TM) system (copyright 1986, Carnegie Mellon
 University), and the Gaussian 82(TM) system (copyright 1983,
 Carnegie Mellon University). Gaussian is a federally registered
 trademark of Gaussian, Inc.
  
 This software contains proprietary and confidential information,
 including trade secrets, belonging to Gaussian, Inc.
  
 This software is provided under written license and may be
 used, copied, transmitted, or stored only in accord with that
 written license.
  
 The following legend is applicable only to US Government
 contracts under FAR:
  
                    RESTRICTED RIGHTS LEGEND
  
 Use, reproduction and disclosure by the US Government is
 subject to restrictions as set forth in subparagraphs (a)
 and (c) of the Commercial Computer Software - Restricted
 Rights clause in FAR 52.227-19.
  
 Gaussian, Inc.
 340 Quinnipiac St., Bldg. 40, Wallingford CT 06492
  
  
 ---------------------------------------------------------------
 Warning -- This program may not be used in any manner that
 competes with the business of Gaussian, Inc. or will provide
 assistance to any competitor of Gaussian, Inc.  The licensee
 of this program is prohibited from giving any competitor of
 Gaussian, Inc. access to this program.  By using this program,
 the user acknowledges that Gaussian, Inc. is engaged in the
 business of creating and licensing software in the field of
 computational chemistry and represents and warrants to the
 licensee that it is not a competitor of Gaussian, Inc. and that
 it will not use this program in any manner prohibited above.
 ---------------------------------------------------------------
  

 Cite this work as:
 Gaussian 16, Revision C.01,
 M. J. Frisch, G. W. Trucks, H. B. Schlegel, G. E. Scuseria, 
 M. A. Robb, J. R. Cheeseman, G. Scalmani, V. Barone, 
 G. A. Petersson, H. Nakatsuji, X. Li, M. Caricato, A. V. Marenich, 
 J. Bloino, B. G. Janesko, R. Gomperts, B. Mennucci, H. P. Hratchian, 
 J. V. Ortiz, A. F. Izmaylov, J. L. Sonnenberg, D. Williams-Young, 
 F. Ding, F. Lipparini, F. Egidi, J. Goings, B. Peng, A. Petrone, 
 T. Henderson, D. Ranasinghe, V. G. Zakrzewski, J. Gao, N. Rega, 
 G. Zheng, W. Liang, M. Hada, M. Ehara, K. Toyota, R. Fukuda, 
 J. Hasegawa, M. Ishida, T. Nakajima, Y. Honda, O. Kitao, H. Nakai, 
 T. Vreven, K. Throssell, J. A. Montgomery, Jr., J. E. Peralta, 
 F. Ogliaro, M. J. Bearpark, J. J. Heyd, E. N. Brothers, K. N. Kudin, 
 V. N. Staroverov, T. A. Keith, R. Kobayashi, J. Normand, 
 K. Raghavachari, A. P. Rendell, J. C. Burant, S. S. Iyengar, 
 J. Tomasi, M. Cossi, J. M. Millam, M. Klene, C. Adamo, R. Cammi, 
 J. W. Ochterski, R. L. Martin, K. Morokuma, O. Farkas, 
 J. B. Foresman, and D. J. Fox, Gaussian, Inc., Wallingford CT, 2019.
 
 ******************************************
 Gaussian 16:  ES64L-G16RevC.01  3-Jul-2019
                17-Feb-2026 
 ******************************************
 %NProcShared=8
 Will use up to    8 processors via shared memory.
 %Mem=8GB
 %chk=prod_5d_6.chk
 ------------------------------------------------------
 #N OPT FREQ=NORAMAN Integral(Ultrafine) wB97XD def2SVP
 ------------------------------------------------------
 1/18=20,19=15,26=4,38=1/1,3;
 2/9=110,12=2,17=6,18=5,40=1/2;
 3/5=43,7=101,11=2,25=1,30=1,71=1,74=-58,75=-5/1,2,3;
 4//1;
 5/5=2,38=5/2;
 6/7=2,8=2,9=2,10=2,28=1/1;
 7//1,2,3,16;
 1/18=20,19=15,26=4/3(2);
 2/9=110/2;
 99//99;
 2/9=110/2;
 3/5=43,7=101,11=2,25=1,30=1,71=1,74=-58,75=-5/1,2,3;
 4/5=5,16=3,69=1/1;
 5/5=2,38=5/2;
 7//1,2,3,16;
 1/18=20,19=15,26=4/3(-5);
 2/9=110/2;
 6/7=2,8=2,9=2,10=2,19=2,28=1/1;
 99/9=1/99;
 ---------
 prod_5d_6
 ---------
 Symbolic Z-matrix:
 Charge =  0 Multiplicity = 1
 C                    -4.43835   1.41758  -0.23116 
 C                    -3.23301   0.63219   0.15394 
 C                    -2.07102   0.71579  -0.59364 
 C                    -0.92076   0.01136  -0.23683 
 N                     0.27689   0.08093  -1.01656 
 C                     0.18035   0.15059  -2.47519 
 C                     1.56804  -0.08123  -0.42436 
 C                     2.58771  -0.77099  -1.08076 
 C                     3.82572  -0.91986  -0.49625 
 C                     4.07372  -0.3827    0.75226 
 C                     3.07654   0.30536   1.41582 
 C                     1.83758   0.45517   0.83473 
 C                    -0.96651  -0.78491   0.90676 
 C                    -2.11274  -0.86843   1.66277 
 C                    -3.2403   -0.16254   1.29235 
 H                    -5.35257   0.92877   0.10868 
 H                    -4.50612   1.52817  -1.31441 
 H                    -4.40712   2.41566   0.20813 
 H                    -2.05397   1.36154  -1.45159 
 H                     1.12329   0.48765  -2.90194 
 H                    -0.05853  -0.83201  -2.87784 
 H                    -0.59054   0.85122  -2.78561 
 H                     2.39051  -1.20956  -2.0432 
 H                     4.60263  -1.45983  -1.0127 
 H                     5.04338  -0.50063   1.20797 
 H                     3.26921   0.7268    2.38906 
 H                     1.06174   1.00186   1.34189 
 H                    -0.09209  -1.34724   1.18413 
 H                    -2.13126  -1.48689   2.54533 
 H                    -4.13616  -0.22233   1.88677 
 

 GradGradGradGradGradGradGradGradGradGradGradGradGradGradGradGradGradGrad
 Berny optimization.
 Initialization pass.
                           ----------------------------
                           !    Initial Parameters    !
                           ! (Angstroms and Degrees)  !
 --------------------------                            --------------------------
 ! Name  Definition              Value          Derivative Info.                !
 --------------------------------------------------------------------------------
 ! R1    R(1,2)                  1.4893         estimate D2E/DX2                !
 ! R2    R(1,16)                 1.091          estimate D2E/DX2                !
 ! R3    R(1,17)                 1.091          estimate D2E/DX2                !
 ! R4    R(1,18)                 1.0909         estimate D2E/DX2                !
 ! R5    R(2,3)                  1.3842         estimate D2E/DX2                !
 ! R6    R(2,15)                 1.3884         estimate D2E/DX2                !
 ! R7    R(3,4)                  1.3952         estimate D2E/DX2                !
 ! R8    R(3,19)                 1.0739         estimate D2E/DX2                !
 ! R9    R(4,5)                  1.4308         estimate D2E/DX2                !
 ! R10   R(4,13)                 1.3943         estimate D2E/DX2                !
 ! R11   R(5,6)                  1.4635         estimate D2E/DX2                !
 ! R12   R(5,7)                  1.4297         estimate D2E/DX2                !
 ! R13   R(6,20)                 1.0885         estimate D2E/DX2                !
 ! R14   R(6,21)                 1.0884         estimate D2E/DX2                !
 ! R15   R(6,22)                 1.087          estimate D2E/DX2                !
 ! R16   R(7,8)                  1.3951         estimate D2E/DX2                !
 ! R17   R(7,12)                 1.3949         estimate D2E/DX2                !
 ! R18   R(8,9)                  1.3771         estimate D2E/DX2                !
 ! R19   R(8,23)                 1.0759         estimate D2E/DX2                !
 ! R20   R(9,10)                 1.3816         estimate D2E/DX2                !
 ! R21   R(9,24)                 1.0779         estimate D2E/DX2                !
 ! R22   R(10,11)                1.3813         estimate D2E/DX2                !
 ! R23   R(10,25)                1.0779         estimate D2E/DX2                !
 ! R24   R(11,12)                1.3766         estimate D2E/DX2                !
 ! R25   R(11,26)                1.0779         estimate D2E/DX2                !
 ! R26   R(12,27)                1.0761         estimate D2E/DX2                !
 ! R27   R(13,14)                1.3756         estimate D2E/DX2                !
 ! R28   R(13,28)                1.076          estimate D2E/DX2                !
 ! R29   R(14,15)                1.3809         estimate D2E/DX2                !
 ! R30   R(14,29)                1.0778         estimate D2E/DX2                !
 ! R31   R(15,30)                1.0768         estimate D2E/DX2                !
 ! A1    A(2,1,16)             111.1852         estimate D2E/DX2                !
 ! A2    A(2,1,17)             111.1295         estimate D2E/DX2                !
 ! A3    A(2,1,18)             110.8047         estimate D2E/DX2                !
 ! A4    A(16,1,17)            107.6172         estimate D2E/DX2                !
 ! A5    A(16,1,18)            107.9672         estimate D2E/DX2                !
 ! A6    A(17,1,18)            107.9905         estimate D2E/DX2                !
 ! A7    A(1,2,3)              120.524          estimate D2E/DX2                !
 ! A8    A(1,2,15)             120.6398         estimate D2E/DX2                !
 ! A9    A(3,2,15)             118.8036         estimate D2E/DX2                !
 ! A10   A(2,3,4)              121.5646         estimate D2E/DX2                !
 ! A11   A(2,3,19)             118.7567         estimate D2E/DX2                !
 ! A12   A(4,3,19)             119.6564         estimate D2E/DX2                !
 ! A13   A(3,4,5)              121.7472         estimate D2E/DX2                !
 ! A14   A(3,4,13)             118.1028         estimate D2E/DX2                !
 ! A15   A(5,4,13)             120.1472         estimate D2E/DX2                !
 ! A16   A(4,5,6)              119.3572         estimate D2E/DX2                !
 ! A17   A(4,5,7)              121.647          estimate D2E/DX2                !
 ! A18   A(6,5,7)              118.5424         estimate D2E/DX2                !
 ! A19   A(5,6,20)             110.3861         estimate D2E/DX2                !
 ! A20   A(5,6,21)             109.89           estimate D2E/DX2                !
 ! A21   A(5,6,22)             111.2292         estimate D2E/DX2                !
 ! A22   A(20,6,21)            108.9431         estimate D2E/DX2                !
 ! A23   A(20,6,22)            107.6263         estimate D2E/DX2                !
 ! A24   A(21,6,22)            108.699          estimate D2E/DX2                !
 ! A25   A(5,7,8)              121.4157         estimate D2E/DX2                !
 ! A26   A(5,7,12)             120.3168         estimate D2E/DX2                !
 ! A27   A(8,7,12)             118.2675         estimate D2E/DX2                !
 ! A28   A(7,8,9)              120.717          estimate D2E/DX2                !
 ! A29   A(7,8,23)             119.2396         estimate D2E/DX2                !
 ! A30   A(9,8,23)             120.0262         estimate D2E/DX2                !
 ! A31   A(8,9,10)             120.1916         estimate D2E/DX2                !
 ! A32   A(8,9,24)             119.9167         estimate D2E/DX2                !
 ! A33   A(10,9,24)            119.8913         estimate D2E/DX2                !
 ! A34   A(9,10,11)            119.8797         estimate D2E/DX2                !
 ! A35   A(9,10,25)            120.0662         estimate D2E/DX2                !
 ! A36   A(11,10,25)           120.0542         estimate D2E/DX2                !
 ! A37   A(10,11,12)           120.0749         estimate D2E/DX2                !
 ! A38   A(10,11,26)           119.9626         estimate D2E/DX2                !
 ! A39   A(12,11,26)           119.9624         estimate D2E/DX2                !
 ! A40   A(7,12,11)            120.8692         estimate D2E/DX2                !
 ! A41   A(7,12,27)            118.7805         estimate D2E/DX2                !
 ! A42   A(11,12,27)           120.3455         estimate D2E/DX2                !
 ! A43   A(4,13,14)            120.8495         estimate D2E/DX2                !
 ! A44   A(4,13,28)            118.8973         estimate D2E/DX2                !
 ! A45   A(14,13,28)           120.2479         estimate D2E/DX2                !
 ! A46   A(13,14,15)           120.1268         estimate D2E/DX2                !
 ! A47   A(13,14,29)           119.9441         estimate D2E/DX2                !
 ! A48   A(15,14,29)           119.929          estimate D2E/DX2                !
 ! A49   A(2,15,14)            120.5484         estimate D2E/DX2                !
 ! A50   A(2,15,30)            119.261          estimate D2E/DX2                !
 ! A51   A(14,15,30)           120.1905         estimate D2E/DX2                !
 ! D1    D(16,1,2,3)           152.9273         estimate D2E/DX2                !
 ! D2    D(16,1,2,15)          -29.1759         estimate D2E/DX2                !
 ! D3    D(17,1,2,3)            33.0746         estimate D2E/DX2                !
 ! D4    D(17,1,2,15)         -149.0285         estimate D2E/DX2                !
 ! D5    D(18,1,2,3)           -86.9953         estimate D2E/DX2                !
 ! D6    D(18,1,2,15)           90.9016         estimate D2E/DX2                !
 ! D7    D(1,2,3,4)            178.6443         estimate D2E/DX2                !
 ! D8    D(1,2,3,19)             0.3725         estimate D2E/DX2                !
 ! D9    D(15,2,3,4)             0.7093         estimate D2E/DX2                !
 ! D10   D(15,2,3,19)         -177.5625         estimate D2E/DX2                !
 ! D11   D(1,2,15,14)         -178.6613         estimate D2E/DX2                !
 ! D12   D(1,2,15,30)            1.2414         estimate D2E/DX2                !
 ! D13   D(3,2,15,14)           -0.7288         estimate D2E/DX2                !
 ! D14   D(3,2,15,30)          179.1739         estimate D2E/DX2                !
 ! D15   D(2,3,4,5)            179.1537         estimate D2E/DX2                !
 ! D16   D(2,3,4,13)            -0.2393         estimate D2E/DX2                !
 ! D17   D(19,3,4,5)            -2.5897         estimate D2E/DX2                !
 ! D18   D(19,3,4,13)          178.0173         estimate D2E/DX2                !
 ! D19   D(3,4,5,6)            -37.0849         estimate D2E/DX2                !
 ! D20   D(3,4,5,7)            150.7551         estimate D2E/DX2                !
 ! D21   D(13,4,5,6)           142.2959         estimate D2E/DX2                !
 ! D22   D(13,4,5,7)           -29.8641         estimate D2E/DX2                !
 ! D23   D(3,4,13,14)           -0.2223         estimate D2E/DX2                !
 ! D24   D(3,4,13,28)          178.9394         estimate D2E/DX2                !
 ! D25   D(5,4,13,14)         -179.6254         estimate D2E/DX2                !
 ! D26   D(5,4,13,28)           -0.4636         estimate D2E/DX2                !
 ! D27   D(4,5,6,20)           163.4239         estimate D2E/DX2                !
 ! D28   D(4,5,6,21)           -76.3946         estimate D2E/DX2                !
 ! D29   D(4,5,6,22)            44.023          estimate D2E/DX2                !
 ! D30   D(7,5,6,20)           -24.1722         estimate D2E/DX2                !
 ! D31   D(7,5,6,21)            96.0093         estimate D2E/DX2                !
 ! D32   D(7,5,6,22)          -143.5731         estimate D2E/DX2                !
 ! D33   D(4,5,7,8)            141.766          estimate D2E/DX2                !
 ! D34   D(4,5,7,12)           -38.3504         estimate D2E/DX2                !
 ! D35   D(6,5,7,8)            -30.4558         estimate D2E/DX2                !
 ! D36   D(6,5,7,12)           149.4278         estimate D2E/DX2                !
 ! D37   D(5,7,8,9)           -179.929          estimate D2E/DX2                !
 ! D38   D(5,7,8,23)            -1.4368         estimate D2E/DX2                !
 ! D39   D(12,7,8,9)             0.1851         estimate D2E/DX2                !
 ! D40   D(12,7,8,23)          178.6773         estimate D2E/DX2                !
 ! D41   D(5,7,12,11)          179.9733         estimate D2E/DX2                !
 ! D42   D(5,7,12,27)           -0.8189         estimate D2E/DX2                !
 ! D43   D(8,7,12,11)           -0.1395         estimate D2E/DX2                !
 ! D44   D(8,7,12,27)          179.0683         estimate D2E/DX2                !
 ! D45   D(7,8,9,10)            -0.1239         estimate D2E/DX2                !
 ! D46   D(7,8,9,24)           179.671          estimate D2E/DX2                !
 ! D47   D(23,8,9,10)         -178.6043         estimate D2E/DX2                !
 ! D48   D(23,8,9,24)            1.1907         estimate D2E/DX2                !
 ! D49   D(8,9,10,11)            0.0126         estimate D2E/DX2                !
 ! D50   D(8,9,10,25)          179.9856         estimate D2E/DX2                !
 ! D51   D(24,9,10,11)        -179.7825         estimate D2E/DX2                !
 ! D52   D(24,9,10,25)           0.1906         estimate D2E/DX2                !
 ! D53   D(9,10,11,12)           0.033          estimate D2E/DX2                !
 ! D54   D(9,10,11,26)        -179.8704         estimate D2E/DX2                !
 ! D55   D(25,10,11,12)       -179.94           estimate D2E/DX2                !
 ! D56   D(25,10,11,26)          0.1566         estimate D2E/DX2                !
 ! D57   D(10,11,12,7)           0.0324         estimate D2E/DX2                !
 ! D58   D(10,11,12,27)       -179.163          estimate D2E/DX2                !
 ! D59   D(26,11,12,7)         179.9358         estimate D2E/DX2                !
 ! D60   D(26,11,12,27)          0.7404         estimate D2E/DX2                !
 ! D61   D(4,13,14,15)           0.2003         estimate D2E/DX2                !
 ! D62   D(4,13,14,29)        -179.8707         estimate D2E/DX2                !
 ! D63   D(28,13,14,15)       -178.9502         estimate D2E/DX2                !
 ! D64   D(28,13,14,29)          0.9788         estimate D2E/DX2                !
 ! D65   D(13,14,15,2)           0.2843         estimate D2E/DX2                !
 ! D66   D(13,14,15,30)       -179.6175         estimate D2E/DX2                !
 ! D67   D(29,14,15,2)        -179.6447         estimate D2E/DX2                !
 ! D68   D(29,14,15,30)          0.4534         estimate D2E/DX2                !
 --------------------------------------------------------------------------------
 Trust Radius=3.00D-01 FncErr=1.00D-07 GrdErr=1.00D-06 EigMax=2.50D+02 EigMin=1.00D-04
 Number of steps in this run=    160 maximum allowed number of steps=    180.
 GradGradGradGradGradGradGradGradGradGradGradGradGradGradGradGradGradGrad

                          Input orientation:                          
 ---------------------------------------------------------------------
 Center     Atomic      Atomic             Coordinates (Angstroms)
 Number     Number       Type             X           Y           Z
 ---------------------------------------------------------------------
      1          6           0       -4.438350    1.417580   -0.231160
      2          6           0       -3.233010    0.632190    0.153940
      3          6           0       -2.071020    0.715790   -0.593640
      4          6           0       -0.920760    0.011360   -0.236830
      5          7           0        0.276890    0.080930   -1.016560
      6          6           0        0.180350    0.150590   -2.475190
      7          6           0        1.568040   -0.081230   -0.424360
      8          6           0        2.587710   -0.770990   -1.080760
      9          6           0        3.825720   -0.919860   -0.496250
     10          6           0        4.073720   -0.382700    0.752260
     11          6           0        3.076540    0.305360    1.415820
     12          6           0        1.837580    0.455170    0.834730
     13          6           0       -0.966510   -0.784910    0.906760
     14          6           0       -2.112740   -0.868430    1.662770
     15          6           0       -3.240300   -0.162540    1.292350
     16          1           0       -5.352570    0.928770    0.108680
     17          1           0       -4.506120    1.528170   -1.314410
     18          1           0       -4.407120    2.415660    0.208130
     19          1           0       -2.053970    1.361540   -1.451590
     20          1           0        1.123290    0.487650   -2.901940
     21          1           0       -0.058530   -0.832010   -2.877840
     22          1           0       -0.590540    0.851220   -2.785610
     23          1           0        2.390510   -1.209560   -2.043200
     24          1           0        4.602630   -1.459830   -1.012700
     25          1           0        5.043380   -0.500630    1.207970
     26          1           0        3.269210    0.726800    2.389060
     27          1           0        1.061740    1.001860    1.341890
     28          1           0       -0.092090   -1.347240    1.184130
     29          1           0       -2.131260   -1.486890    2.545330
     30          1           0       -4.136160   -0.222330    1.886770
 ---------------------------------------------------------------------
                    Distance matrix (angstroms):
                    1          2          3          4          5
     1  C    0.000000
     2  C    1.489290   0.000000
     3  C    2.495627   1.384227   0.000000
     4  C    3.788262   2.425826   1.395218   0.000000
     5  N    4.963565   3.740769   2.468722   1.430799   0.000000
     6  C    5.288981   4.335353   2.988034   2.498416   1.463480
     7  C    6.193584   4.888096   3.729163   2.497572   1.429708
     8  C    7.407913   6.113443   4.914424   3.692377   2.463692
     9  C    8.592366   7.256533   6.120162   4.843918   3.723775
    10  C    8.755767   7.401101   6.385605   5.106703   4.214213
    11  C    7.773233   6.442793   5.541097   4.335446   3.715492
    12  C    6.438140   5.119150   4.169570   2.992265   2.450119
    13  C    4.266087   2.777037   2.392330   1.394251   2.448445
    14  C    3.771111   2.404877   2.757332   2.409010   3.713546
    15  C    2.500637   1.388390   2.386553   2.783684   4.214376
    16  H    1.090974   2.140687   3.362616   4.538938   5.803087
    17  H    1.090987   2.140010   2.666305   4.039393   5.006037
    18  H    1.090924   2.135939   2.998292   4.258328   5.375014
    19  H    2.679152   2.121276   1.073947   2.140746   2.694832
    20  H    6.239365   5.323217   3.947647   3.392315   2.106293
    21  H    5.590026   4.627407   3.415168   2.903385   2.100078
    22  H    4.653130   3.958734   2.648565   2.703829   2.115495
    23  H    7.537817   6.312166   5.070843   3.964609   2.680810
    24  H    9.519959   8.193586   7.031823   5.768380   4.591948
    25  H    9.780278   8.419792   7.439097   6.157966   5.292086
    26  H    8.170019   6.876306   6.116754   4.996299   4.579233
    27  H    5.735704   4.471326   3.693548   2.720984   2.650733
    28  H    5.342027   3.852897   3.366411   2.133451   2.649312
    29  H    4.633304   3.379808   3.835174   3.383855   4.576495
    30  H    2.695598   2.132741   3.361147   3.860451   5.291153
                    6          7          8          9         10
     6  C    0.000000
     7  C    2.487032   0.000000
     8  C    2.930721   1.395119   0.000000
     9  C    4.283782   2.409479   1.377129   0.000000
    10  C    5.085190   2.784556   2.391434   1.381601   0.000000
    11  C    4.853023   2.410661   2.762317   2.391327   1.381342
    12  C    3.714129   1.394878   2.394841   2.759514   2.389383
    13  C    3.691617   2.948048   4.072212   4.995209   5.058613
    14  C    4.839357   4.303944   5.443407   6.318965   6.271941
    15  C    5.098358   5.106255   6.321990   7.328115   7.337238
    16  H    6.155904   7.014205   8.206826   9.382131   9.538820
    17  H    5.020771   6.346478   7.460774   8.722488   9.029740
    18  H    5.777164   6.506692   7.793819   8.910752   8.947153
    19  H    2.739771   4.031841   5.121562   6.378731   6.741507
    20  H    1.088513   2.580665   2.654317   3.882210   4.776581
    21  H    1.088436   3.037921   3.199345   4.557092   5.518604
    22  H    1.086975   3.332331   3.954662   5.280269   5.982842
    23  H    2.630861   2.137809   1.075882   2.129978   3.366228
    24  H    4.928376   3.384585   2.130501   1.077904   2.134254
    25  H    6.135048   3.862433   3.367743   2.136075   1.077877
    26  H    5.790855   3.385591   3.840243   3.368413   2.134793
    27  H    4.008941   2.132853   3.367613   3.835538   3.367001
    28  H    3.963375   2.635537   3.555716   4.284340   4.297769
    29  H    5.764590   4.947702   5.994140   6.712551   6.552565
    30  H    6.148010   6.156227   7.370054   8.340076   8.289449
                   11         12         13         14         15
    11  C    0.000000
    12  C    1.376637   0.000000
    13  C    4.218303   3.066905   0.000000
    14  C    5.326105   4.247658   1.375634   0.000000
    15  C    6.335349   5.135742   2.388754   1.380899   0.000000
    16  H    8.552611   7.242217   4.776102   4.017664   2.655883
    17  H    8.151451   6.783263   4.776272   4.509497   3.354996
    18  H    7.868739   6.575137   4.750740   4.262089   3.030531
    19  H    5.971573   4.603578   3.369218   3.830856   3.355504
    20  H    4.742517   3.804467   4.526905   5.757380   6.087342
    21  H    5.436708   4.362940   3.892280   4.983798   5.287942
    22  H    5.603343   4.377155   4.056091   5.006233   4.967766
    23  H    3.838025   3.370391   4.489117   5.842075   6.627833
    24  H    3.367871   3.837411   5.929179   7.252868   8.276942
    25  H    2.135716   3.366009   6.024145   7.179984   8.291006
    26  H    1.077928   2.130561   4.735378   5.660180   6.660887
    27  H    2.133072   1.076108   2.737825   3.698415   4.457110
    28  H    3.581199   2.663529   1.075992   2.131052   3.365479
    29  H    5.622200   4.738084   2.129397   1.077844   2.133971
    30  H    7.247295   6.103390   3.365055   2.135849   1.076789
                   16         17         18         19         20
    16  H    0.000000
    17  H    1.760949   0.000000
    18  H    1.764825   1.765097   0.000000
    19  H    3.674574   2.461630   3.066456   0.000000
    20  H    7.155081   5.940807   6.631379   3.600303   0.000000
    21  H    6.328231   5.272174   6.243461   3.290537   1.771661
    22  H    5.573137   4.237270   5.096689   2.044912   1.755827
    23  H    8.316149   7.455857   8.026112   5.168555   2.285564
    24  H   10.298976   9.591064   9.883595   7.243140   4.412223
    25  H   10.551180  10.083223   9.940643   7.804698   5.764995
    26  H    8.920539   8.649488   8.156883   6.594675   5.714617
    27  H    6.532191   6.191445   5.761308   4.200065   4.275312
    28  H    5.831763   5.830467   5.807881   4.258343   4.641114
    29  H    4.706327   5.443174   5.086447   4.908655   6.645574
    30  H    2.442599   3.667243   3.138510   4.241321   7.148261
                   21         22         23         24         25
    21  H    0.000000
    22  H    1.767712   0.000000
    23  H    2.614759   3.699276   0.000000
    24  H    5.059577   5.954257   2.453169   0.000000
    25  H    6.544703   7.036848   4.255632   2.458801   0.000000
    26  H    6.422147   6.456807   4.915947   4.258090   2.459520
    27  H    4.735420   4.448480   4.256153   4.913442   4.257801
    28  H    4.094654   4.565141   4.074054   5.184509   5.204841
    29  H    5.842589   6.021586   6.448095   7.616140   7.364557
    30  H    6.300816   5.962807   7.682233   9.290037   9.208810
                   26         27         28         29         30
    26  H    0.000000
    27  H    2.458688   0.000000
    28  H    4.129387   2.621923   0.000000
    29  H    5.838657   4.223434   2.455724   0.000000
    30  H    7.482824   5.367839   4.256011   2.460170   0.000000
 Stoichiometry    C14H15N
 Framework group  C1[X(C14H15N)]
 Deg. of freedom    84
 Full point group                 C1      NOp   1
 Largest Abelian subgroup         C1      NOp   1
 Largest concise Abelian subgroup C1      NOp   1
                         Standard orientation:                         
 ---------------------------------------------------------------------
 Center     Atomic      Atomic             Coordinates (Angstroms)
 Number     Number       Type             X           Y           Z
 ---------------------------------------------------------------------
      1          6           0       -4.550909    0.483476    0.733799
      2          6           0       -3.264319   -0.030591    0.187532
      3          6           0       -2.099172    0.704285    0.323453
      4          6           0       -0.877114    0.230930   -0.155234
      5          7           0        0.326359    0.995017   -0.032727
      6          6           0        0.271895    2.449214   -0.188026
      7          6           0        1.606259    0.366795    0.073381
      8          6           0        2.732150    0.899517   -0.555058
      9          6           0        3.957897    0.281627   -0.444432
     10          6           0        4.087365   -0.877477    0.296201
     11          6           0        2.983726   -1.417855    0.927135
     12          6           0        1.756791   -0.803196    0.817790
     13          6           0       -0.854131   -1.016793   -0.777004
     14          6           0       -2.003976   -1.760221   -0.909440
     15          6           0       -3.203284   -1.273519   -0.428124
     16          1           0       -5.401663    0.088511    0.176624
     17          1           0       -4.595447    1.572056    0.676677
     18          1           0       -4.670499    0.195756    1.779280
     19          1           0       -2.140073    1.647739    0.834905
     20          1           0        1.174669    2.907338    0.211952
     21          1           0        0.182510    2.705980   -1.241959
     22          1           0       -0.575617    2.870653    0.346415
     23          1           0        2.629701    1.789513   -1.150821
     24          1           0        4.818261    0.701536   -0.939739
     25          1           0        5.047674   -1.359550    0.381243
     26          1           0        3.083636   -2.320992    1.507041
     27          1           0        0.896898   -1.212942    1.318492
     28          1           0        0.078293   -1.386648   -1.166301
     29          1           0       -1.969083   -2.723969   -1.390815
     30          1           0       -4.102836   -1.857257   -0.525745
 ---------------------------------------------------------------------
 Rotational constants (GHZ):           1.4764769           0.3347044           0.2950957
 Standard basis: def2SVP (5D, 7F)
 There are   300 symmetry adapted cartesian basis functions of A   symmetry.
 There are   285 symmetry adapted basis functions of A   symmetry.
   285 basis functions,   480 primitive gaussians,   300 cartesian basis functions
    53 alpha electrons       53 beta electrons
       nuclear repulsion energy       917.1824054890 Hartrees.
 NAtoms=   30 NActive=   30 NUniq=   30 SFac= 1.00D+00 NAtFMM=   60 NAOKFM=F Big=F
 Integral buffers will be    131072 words long.
 Raffenetti 2 integral format.
 Two-electron integral symmetry is turned on.
 Nuclear repulsion after empirical dispersion term =      917.1626407598 Hartrees.
 One-electron integrals computed using PRISM.
   1 Symmetry operations used in ECPInt.
 ECPInt:  NShTT=    9180 NPrTT=   32880 LenC2=    8624 LenP2D=   22647.
 LDataN:  DoStor=T MaxTD1= 4 Len=   56
 NBasis=   285 RedAO= T EigKep=  2.33D-04  NBF=   285
 NBsUse=   285 1.00D-06 EigRej= -1.00D+00 NBFU=   285
 ExpMin= 1.22D-01 ExpMax= 1.71D+03 ExpMxC= 2.58D+02 IAcc=3 IRadAn=         5 AccDes= 0.00D+00
 Harris functional with IExCor= 4639 and IRadAn=       5 diagonalized for initial guess.
 HarFok:  IExCor= 4639 AccDes= 0.00D+00 IRadAn=         5 IDoV= 1 UseB2=F ITyADJ=14
 ICtDFT=  3500011 ScaDFX=  1.000000  1.000000  1.000000  1.000000
 FoFCou: FMM=F IPFlag=           0 FMFlag=      100000 FMFlg1=           0
         NFxFlg=           0 DoJE=T BraDBF=F KetDBF=T FulRan=T
         wScrn=  0.000000 ICntrl=       500 IOpCl=  0 I1Cent=   200000004 NGrid=           0
         NMat0=    1 NMatS0=      1 NMatT0=    0 NMatD0=    1 NMtDS0=    0 NMtDT0=    0
 Petite list used in FoFCou.
 Requested convergence on RMS density matrix=1.00D-08 within 128 cycles.
 Requested convergence on MAX density matrix=1.00D-06.
 Requested convergence on             energy=1.00D-06.
 No special actions if energy rises.
 Integral accuracy reduced to 1.0D-05 until final iterations.
 Initial convergence to 1.0D-05 achieved.  Increase integral accuracy.
 SCF Done:  E(RwB97XD) =  -596.647829761     A.U. after   15 cycles
            NFock= 15  Conv=0.56D-08     -V/T= 2.0108

 **********************************************************************

            Population analysis using the SCF Density.

 **********************************************************************

 Orbital symmetries:
       Occupied  (A) (A) (A) (A) (A) (A) (A) (A) (A) (A) (A) (A)
                 (A) (A) (A) (A) (A) (A) (A) (A) (A) (A) (A) (A)
                 (A) (A) (A) (A) (A) (A) (A) (A) (A) (A) (A) (A)
                 (A) (A) (A) (A) (A) (A) (A) (A) (A) (A) (A) (A)
                 (A) (A) (A) (A) (A)
       Virtual   (A) (A) (A) (A) (A) (A) (A) (A) (A) (A) (A) (A)
                 (A) (A) (A) (A) (A) (A) (A) (A) (A) (A) (A) (A)
                 (A) (A) (A) (A) (A) (A) (A) (A) (A) (A) (A) (A)
                 (A) (A) (A) (A) (A) (A) (A) (A) (A) (A) (A) (A)
                 (A) (A) (A) (A) (A) (A) (A) (A) (A) (A) (A) (A)
                 (A) (A) (A) (A) (A) (A) (A) (A) (A) (A) (A) (A)
                 (A) (A) (A) (A) (A) (A) (A) (A) (A) (A) (A) (A)
                 (A) (A) (A) (A) (A) (A) (A) (A) (A) (A) (A) (A)
                 (A) (A) (A) (A) (A) (A) (A) (A) (A) (A) (A) (A)
                 (A) (A) (A) (A) (A) (A) (A) (A) (A) (A) (A) (A)
                 (A) (A) (A) (A) (A) (A) (A) (A) (A) (A) (A) (A)
                 (A) (A) (A) (A) (A) (A) (A) (A) (A) (A) (A) (A)
                 (A) (A) (A) (A) (A) (A) (A) (A) (A) (A) (A) (A)
                 (A) (A) (A) (A) (A) (A) (A) (A) (A) (A) (A) (A)
                 (A) (A) (A) (A) (A) (A) (A) (A) (A) (A) (A) (A)
                 (A) (A) (A) (A) (A) (A) (A) (A) (A) (A) (A) (A)
                 (A) (A) (A) (A) (A) (A) (A) (A) (A) (A) (A) (A)
                 (A) (A) (A) (A) (A) (A) (A) (A) (A) (A) (A) (A)
                 (A) (A) (A) (A) (A) (A) (A) (A) (A) (A) (A) (A)
                 (A) (A) (A) (A)
 The electronic state is 1-A.
 Alpha  occ. eigenvalues --  -14.46304 -10.33799 -10.33759 -10.32865 -10.30137
 Alpha  occ. eigenvalues --  -10.29591 -10.29487 -10.29318 -10.29262 -10.29195
 Alpha  occ. eigenvalues --  -10.29003 -10.28872 -10.28816 -10.28590 -10.28389
 Alpha  occ. eigenvalues --   -1.03932  -0.95539  -0.94020  -0.86757  -0.84656
 Alpha  occ. eigenvalues --   -0.84202  -0.82697  -0.78312  -0.76410  -0.70752
 Alpha  occ. eigenvalues --   -0.69287  -0.68531  -0.65590  -0.61707  -0.60087
 Alpha  occ. eigenvalues --   -0.56869  -0.56201  -0.55559  -0.53180  -0.52861
 Alpha  occ. eigenvalues --   -0.51926  -0.51184  -0.50928  -0.50632  -0.49234
 Alpha  occ. eigenvalues --   -0.47615  -0.46679  -0.45977  -0.44859  -0.44337
 Alpha  occ. eigenvalues --   -0.43186  -0.42324  -0.41816  -0.37804  -0.33296
 Alpha  occ. eigenvalues --   -0.33233  -0.31998  -0.25876
 Alpha virt. eigenvalues --    0.05614   0.06027   0.07600   0.09186   0.13870
 Alpha virt. eigenvalues --    0.15209   0.16444   0.16990   0.18329   0.19119
 Alpha virt. eigenvalues --    0.20244   0.20682   0.21173   0.21837   0.22833
 Alpha virt. eigenvalues --    0.23068   0.24142   0.24252   0.24895   0.25114
 Alpha virt. eigenvalues --    0.26247   0.28360   0.32718   0.33514   0.34829
 Alpha virt. eigenvalues --    0.36792   0.37540   0.38269   0.38513   0.40588
 Alpha virt. eigenvalues --    0.40756   0.41848   0.43299   0.43921   0.46027
 Alpha virt. eigenvalues --    0.47840   0.48604   0.49071   0.49608   0.50781
 Alpha virt. eigenvalues --    0.51177   0.52458   0.53849   0.54160   0.55840
 Alpha virt. eigenvalues --    0.56627   0.57478   0.57835   0.58599   0.58722
 Alpha virt. eigenvalues --    0.59808   0.60279   0.62477   0.63055   0.64120
 Alpha virt. eigenvalues --    0.65566   0.66008   0.67508   0.68400   0.70209
 Alpha virt. eigenvalues --    0.70360   0.72047   0.72560   0.73095   0.73652
 Alpha virt. eigenvalues --    0.73914   0.74342   0.74703   0.74938   0.75683
 Alpha virt. eigenvalues --    0.76491   0.77181   0.77645   0.78127   0.78769
 Alpha virt. eigenvalues --    0.79367   0.79891   0.80937   0.81704   0.81829
 Alpha virt. eigenvalues --    0.84097   0.84449   0.84747   0.85288   0.86279
 Alpha virt. eigenvalues --    0.88051   0.88590   0.89646   0.90864   0.92326
 Alpha virt. eigenvalues --    0.93878   0.94355   0.97228   0.99319   1.01955
 Alpha virt. eigenvalues --    1.03540   1.05610   1.07325   1.08758   1.12733
 Alpha virt. eigenvalues --    1.17307   1.18308   1.20836   1.21806   1.26639
 Alpha virt. eigenvalues --    1.27473   1.28313   1.30897   1.32570   1.33352
 Alpha virt. eigenvalues --    1.35142   1.36409   1.37357   1.37851   1.38186
 Alpha virt. eigenvalues --    1.39486   1.40584   1.41300   1.41597   1.44835
 Alpha virt. eigenvalues --    1.49696   1.56001   1.57894   1.58632   1.61840
 Alpha virt. eigenvalues --    1.63129   1.64601   1.65836   1.68534   1.71915
 Alpha virt. eigenvalues --    1.76802   1.77593   1.78450   1.79351   1.79934
 Alpha virt. eigenvalues --    1.81820   1.82512   1.83512   1.84357   1.84550
 Alpha virt. eigenvalues --    1.84760   1.85394   1.86518   1.86835   1.87619
 Alpha virt. eigenvalues --    1.88907   1.89103   1.90487   1.91027   1.91400
 Alpha virt. eigenvalues --    1.91708   1.92628   1.93147   1.94883   1.97138
 Alpha virt. eigenvalues --    1.97256   1.99017   2.01959   2.03866   2.04914
 Alpha virt. eigenvalues --    2.06549   2.07042   2.07543   2.09142   2.11163
 Alpha virt. eigenvalues --    2.12225   2.14405   2.16187   2.16543   2.17109
 Alpha virt. eigenvalues --    2.20227   2.22203   2.24486   2.24608   2.25910
 Alpha virt. eigenvalues --    2.27330   2.28735   2.28886   2.30086   2.30252
 Alpha virt. eigenvalues --    2.34665   2.37930   2.38708   2.39130   2.39625
 Alpha virt. eigenvalues --    2.41185   2.41553   2.42945   2.44942   2.45900
 Alpha virt. eigenvalues --    2.46241   2.47887   2.53624   2.56594   2.58216
 Alpha virt. eigenvalues --    2.60175   2.60488   2.64835   2.68969   2.70181
 Alpha virt. eigenvalues --    2.71511   2.73617   2.74122   2.75728   2.76562
 Alpha virt. eigenvalues --    2.77012   2.79528   2.84761   2.85034   2.85611
 Alpha virt. eigenvalues --    2.85986   2.89370   2.93153   2.94266   2.98944
 Alpha virt. eigenvalues --    3.00433   3.00825   3.01790   3.03430   3.04787
 Alpha virt. eigenvalues --    3.07057   3.08068   3.11752   3.15474   3.22183
 Alpha virt. eigenvalues --    3.25035   3.28248   3.30174   3.40733   3.47523
 Alpha virt. eigenvalues --    3.76017   3.79894
          Condensed to atoms (all electrons):
               1          2          3          4          5          6
     1  C    4.553711   0.415682  -0.082916   0.012353  -0.000104  -0.000005
     2  C    0.415682   5.172214   0.306710   0.115383   0.008302   0.001065
     3  C   -0.082916   0.306710   5.218446   0.276611  -0.081182  -0.004807
     4  C    0.012353   0.115383   0.276611   5.053413   0.315939  -0.044646
     5  N   -0.000104   0.008302  -0.081182   0.315939   6.817783   0.339554
     6  C   -0.000005   0.001065  -0.004807  -0.044646   0.339554   4.434165
     7  C    0.000004  -0.000173   0.006271  -0.047390   0.322677  -0.055010
     8  C   -0.000000  -0.000002  -0.000479   0.005559  -0.083532  -0.000175
     9  C    0.000000  -0.000000   0.000002  -0.000126   0.008739   0.000111
    10  C    0.000000  -0.000000   0.000001   0.000019  -0.000539   0.000075
    11  C   -0.000000   0.000004  -0.000051  -0.000012   0.008888  -0.000198
    12  C    0.000000   0.000045   0.000515  -0.006309  -0.079493   0.005652
    13  C   -0.000670  -0.160281   0.062424   0.272724  -0.082834   0.004342
    14  C    0.011710   0.104541  -0.142192   0.121089   0.009863  -0.000163
    15  C   -0.080688   0.296619   0.059507  -0.157940  -0.000675  -0.000022
    16  H    0.390444  -0.018670   0.007505  -0.000500   0.000002   0.000000
    17  H    0.389424  -0.019170  -0.008732   0.001037  -0.000002  -0.000007
    18  H    0.387191  -0.011921  -0.003943  -0.000213   0.000002   0.000001
    19  H   -0.014845  -0.067711   0.450874  -0.074093  -0.011048  -0.000249
    20  H    0.000000  -0.000031   0.000572   0.005135  -0.017486   0.397387
    21  H   -0.000009  -0.000019   0.000393   0.003760  -0.041363   0.407621
    22  H    0.000078   0.000683   0.002816  -0.014346  -0.022714   0.401080
    23  H   -0.000000  -0.000000   0.000005  -0.000316  -0.014836   0.008362
    24  H   -0.000000   0.000000  -0.000000   0.000008  -0.000125  -0.000025
    25  H    0.000000  -0.000000   0.000000   0.000001   0.000009   0.000000
    26  H   -0.000000  -0.000000   0.000000  -0.000022  -0.000124   0.000006
    27  H   -0.000002   0.000015  -0.001033   0.005428  -0.013071  -0.000052
    28  H    0.000025  -0.002089   0.016203  -0.067081  -0.015231  -0.000176
    29  H   -0.000295   0.015594  -0.002240   0.015587  -0.000127   0.000006
    30  H   -0.015287  -0.074209   0.016023  -0.001627   0.000010  -0.000000
               7          8          9         10         11         12
     1  C    0.000004  -0.000000   0.000000   0.000000  -0.000000   0.000000
     2  C   -0.000173  -0.000002  -0.000000  -0.000000   0.000004   0.000045
     3  C    0.006271  -0.000479   0.000002   0.000001  -0.000051   0.000515
     4  C   -0.047390   0.005559  -0.000126   0.000019  -0.000012  -0.006309
     5  N    0.322677  -0.083532   0.008739  -0.000539   0.008888  -0.079493
     6  C   -0.055010  -0.000175   0.000111   0.000075  -0.000198   0.005652
     7  C    5.095833   0.268335   0.117964  -0.166158   0.120938   0.273717
     8  C    0.268335   5.189876   0.266656   0.087434  -0.151896   0.063233
     9  C    0.117964   0.266656   5.057319   0.281830   0.102139  -0.153295
    10  C   -0.166158   0.087434   0.281830   5.111246   0.269863   0.090084
    11  C    0.120938  -0.151896   0.102139   0.269863   5.063000   0.274341
    12  C    0.273717   0.063233  -0.153295   0.090084   0.274341   5.171831
    13  C   -0.004788   0.000812   0.000033   0.000046  -0.001418  -0.005605
    14  C   -0.000372  -0.000083   0.000005  -0.000003   0.000041  -0.001052
    15  C    0.000095   0.000002  -0.000000   0.000000  -0.000005  -0.000029
    16  H   -0.000000  -0.000000  -0.000000  -0.000000   0.000000   0.000000
    17  H    0.000001   0.000000  -0.000000   0.000000   0.000000  -0.000000
    18  H   -0.000001   0.000000   0.000000  -0.000000   0.000000   0.000000
    19  H   -0.000188   0.000006  -0.000000   0.000000   0.000001  -0.000049
    20  H   -0.008538   0.004115   0.001339  -0.000128  -0.000065   0.000367
    21  H   -0.003620   0.002120   0.000059  -0.000012   0.000045  -0.000714
    22  H    0.005211   0.000544  -0.000010   0.000002  -0.000009   0.000142
    23  H   -0.073173   0.457514  -0.071568   0.015253  -0.002528   0.016418
    24  H    0.015179  -0.067040   0.450992  -0.070578   0.014155  -0.001980
    25  H   -0.001623   0.014834  -0.070075   0.452802  -0.070276   0.014848
    26  H    0.015370  -0.002070   0.014333  -0.072448   0.453555  -0.068040
    27  H   -0.067794   0.016283  -0.002488   0.014803  -0.070378   0.459061
    28  H    0.005964  -0.000883   0.000040   0.000054  -0.000741   0.003161
    29  H   -0.000021   0.000001  -0.000000  -0.000000   0.000003   0.000044
    30  H    0.000001   0.000000   0.000000  -0.000000  -0.000000  -0.000000
              13         14         15         16         17         18
     1  C   -0.000670   0.011710  -0.080688   0.390444   0.389424   0.387191
     2  C   -0.160281   0.104541   0.296619  -0.018670  -0.019170  -0.011921
     3  C    0.062424  -0.142192   0.059507   0.007505  -0.008732  -0.003943
     4  C    0.272724   0.121089  -0.157940  -0.000500   0.001037  -0.000213
     5  N   -0.082834   0.009863  -0.000675   0.000002  -0.000002   0.000002
     6  C    0.004342  -0.000163  -0.000022   0.000000  -0.000007   0.000001
     7  C   -0.004788  -0.000372   0.000095  -0.000000   0.000001  -0.000001
     8  C    0.000812  -0.000083   0.000002  -0.000000   0.000000   0.000000
     9  C    0.000033   0.000005  -0.000000  -0.000000  -0.000000   0.000000
    10  C    0.000046  -0.000003   0.000000  -0.000000   0.000000  -0.000000
    11  C   -0.001418   0.000041  -0.000005   0.000000   0.000000   0.000000
    12  C   -0.005605  -0.001052  -0.000029   0.000000  -0.000000   0.000000
    13  C    5.211794   0.254200   0.093429   0.000003   0.000080   0.000066
    14  C    0.254200   5.051225   0.276986   0.000844  -0.000551  -0.000231
    15  C    0.093429   0.276986   5.143703  -0.008639   0.006829  -0.003185
    16  H    0.000003   0.000844  -0.008639   0.629746  -0.022745  -0.018641
    17  H    0.000080  -0.000551   0.006829  -0.022745   0.633341  -0.018996
    18  H    0.000066  -0.000231  -0.003185  -0.018641  -0.018996   0.612901
    19  H    0.017447  -0.002770   0.016998   0.000098   0.005211   0.000871
    20  H   -0.000310   0.000015   0.000001   0.000000  -0.000000   0.000000
    21  H    0.001440  -0.000133  -0.000007  -0.000000   0.000007  -0.000000
    22  H   -0.000461   0.000083  -0.000059   0.000000  -0.000055  -0.000003
    23  H    0.000002  -0.000000   0.000000   0.000000   0.000000   0.000000
    24  H   -0.000002  -0.000000   0.000000   0.000000   0.000000   0.000000
    25  H   -0.000000  -0.000000  -0.000000  -0.000000  -0.000000   0.000000
    26  H    0.000036   0.000002  -0.000000   0.000000  -0.000000   0.000000
    27  H    0.002955  -0.000533   0.000012   0.000000  -0.000000   0.000001
    28  H    0.459716  -0.072162   0.014801  -0.000000  -0.000001  -0.000002
    29  H   -0.071062   0.455393  -0.073769  -0.000005   0.000010   0.000006
    30  H    0.015420  -0.068523   0.453402   0.005024   0.000176   0.000733
              19         20         21         22         23         24
     1  C   -0.014845   0.000000  -0.000009   0.000078  -0.000000  -0.000000
     2  C   -0.067711  -0.000031  -0.000019   0.000683  -0.000000   0.000000
     3  C    0.450874   0.000572   0.000393   0.002816   0.000005  -0.000000
     4  C   -0.074093   0.005135   0.003760  -0.014346  -0.000316   0.000008
     5  N   -0.011048  -0.017486  -0.041363  -0.022714  -0.014836  -0.000125
     6  C   -0.000249   0.397387   0.407621   0.401080   0.008362  -0.000025
     7  C   -0.000188  -0.008538  -0.003620   0.005211  -0.073173   0.015179
     8  C    0.000006   0.004115   0.002120   0.000544   0.457514  -0.067040
     9  C   -0.000000   0.001339   0.000059  -0.000010  -0.071568   0.450992
    10  C    0.000000  -0.000128  -0.000012   0.000002   0.015253  -0.070578
    11  C    0.000001  -0.000065   0.000045  -0.000009  -0.002528   0.014155
    12  C   -0.000049   0.000367  -0.000714   0.000142   0.016418  -0.001980
    13  C    0.017447  -0.000310   0.001440  -0.000461   0.000002  -0.000002
    14  C   -0.002770   0.000015  -0.000133   0.000083  -0.000000  -0.000000
    15  C    0.016998   0.000001  -0.000007  -0.000059   0.000000   0.000000
    16  H    0.000098   0.000000  -0.000000   0.000000   0.000000   0.000000
    17  H    0.005211  -0.000000   0.000007  -0.000055   0.000000   0.000000
    18  H    0.000871   0.000000  -0.000000  -0.000003   0.000000   0.000000
    19  H    0.710803  -0.000317   0.000380  -0.001669  -0.000002  -0.000000
    20  H   -0.000317   0.614268  -0.031568  -0.012061  -0.001279   0.000014
    21  H    0.000380  -0.031568   0.658816  -0.033992  -0.000329   0.000010
    22  H   -0.001669  -0.012061  -0.033992   0.628854   0.000078  -0.000001
    23  H   -0.000002  -0.001279  -0.000329   0.000078   0.686313  -0.013178
    24  H   -0.000000   0.000014   0.000010  -0.000001  -0.013178   0.675681
    25  H    0.000000  -0.000001   0.000000  -0.000000  -0.000240  -0.012404
    26  H   -0.000000   0.000001  -0.000000  -0.000000   0.000023  -0.000268
    27  H   -0.000005  -0.000026  -0.000003  -0.000012  -0.000191   0.000021
    28  H   -0.000199  -0.000016   0.000106  -0.000038  -0.000020  -0.000004
    29  H    0.000024  -0.000000   0.000001  -0.000000   0.000000   0.000000
    30  H   -0.000274   0.000000  -0.000000  -0.000000   0.000000   0.000000
              25         26         27         28         29         30
     1  C    0.000000  -0.000000  -0.000002   0.000025  -0.000295  -0.015287
     2  C   -0.000000  -0.000000   0.000015  -0.002089   0.015594  -0.074209
     3  C    0.000000   0.000000  -0.001033   0.016203  -0.002240   0.016023
     4  C    0.000001  -0.000022   0.005428  -0.067081   0.015587  -0.001627
     5  N    0.000009  -0.000124  -0.013071  -0.015231  -0.000127   0.000010
     6  C    0.000000   0.000006  -0.000052  -0.000176   0.000006  -0.000000
     7  C   -0.001623   0.015370  -0.067794   0.005964  -0.000021   0.000001
     8  C    0.014834  -0.002070   0.016283  -0.000883   0.000001   0.000000
     9  C   -0.070075   0.014333  -0.002488   0.000040  -0.000000   0.000000
    10  C    0.452802  -0.072448   0.014803   0.000054  -0.000000  -0.000000
    11  C   -0.070276   0.453555  -0.070378  -0.000741   0.000003  -0.000000
    12  C    0.014848  -0.068040   0.459061   0.003161   0.000044  -0.000000
    13  C   -0.000000   0.000036   0.002955   0.459716  -0.071062   0.015420
    14  C   -0.000000   0.000002  -0.000533  -0.072162   0.455393  -0.068523
    15  C   -0.000000  -0.000000   0.000012   0.014801  -0.073769   0.453402
    16  H   -0.000000   0.000000   0.000000  -0.000000  -0.000005   0.005024
    17  H   -0.000000  -0.000000  -0.000000  -0.000001   0.000010   0.000176
    18  H    0.000000   0.000000   0.000001  -0.000002   0.000006   0.000733
    19  H    0.000000  -0.000000  -0.000005  -0.000199   0.000024  -0.000274
    20  H   -0.000001   0.000001  -0.000026  -0.000016  -0.000000   0.000000
    21  H    0.000000  -0.000000  -0.000003   0.000106   0.000001  -0.000000
    22  H   -0.000000  -0.000000  -0.000012  -0.000038  -0.000000  -0.000000
    23  H   -0.000240   0.000023  -0.000191  -0.000020   0.000000   0.000000
    24  H   -0.012404  -0.000268   0.000021  -0.000004   0.000000   0.000000
    25  H    0.678127  -0.012398  -0.000231   0.000000   0.000000  -0.000000
    26  H   -0.012398   0.673896  -0.012648   0.000014  -0.000000   0.000000
    27  H   -0.000231  -0.012648   0.656946  -0.002277   0.000016  -0.000000
    28  H    0.000000   0.000014  -0.002277   0.659214  -0.012734  -0.000252
    29  H    0.000000  -0.000000   0.000016  -0.012734   0.677930  -0.012556
    30  H   -0.000000   0.000000  -0.000000  -0.000252  -0.012556   0.693589
 Mulliken charges:
               1
     1  C    0.034199
     2  C   -0.082583
     3  C   -0.097304
     4  C    0.210577
     5  N   -0.367282
     6  C    0.106110
     7  C    0.181293
     8  C   -0.071165
     9  C   -0.004000
    10  C   -0.013645
    11  C   -0.009394
    12  C   -0.056894
    13  C   -0.069539
    14  C    0.002773
    15  C   -0.037368
    16  H    0.035534
    17  H    0.034143
    18  H    0.055365
    19  H   -0.029294
    20  H    0.048610
    21  H    0.037010
    22  H    0.045857
    23  H   -0.006308
    24  H    0.009545
    25  H    0.006626
    26  H    0.010781
    27  H    0.015201
    28  H    0.014607
    29  H    0.008195
    30  H   -0.011649
 Sum of Mulliken charges =  -0.00000
 Mulliken charges with hydrogens summed into heavy atoms:
               1
     1  C    0.159240
     2  C   -0.082583
     3  C   -0.126598
     4  C    0.210577
     5  N   -0.367282
     6  C    0.237588
     7  C    0.181293
     8  C   -0.077473
     9  C    0.005545
    10  C   -0.007019
    11  C    0.001387
    12  C   -0.041693
    13  C   -0.054932
    14  C    0.010968
    15  C   -0.049017
 Electronic spatial extent (au):  <R**2>=           3789.9330
 Charge=              0.0000 electrons
 Dipole moment (field-independent basis, Debye):
    X=             -0.4093    Y=              0.9364    Z=              0.1041  Tot=              1.0272
 Quadrupole moment (field-independent basis, Debye-Ang):
   XX=            -82.3852   YY=            -81.6485   ZZ=            -91.2346
   XY=             -0.3351   XZ=             -2.9836   YZ=             -0.7421
 Traceless Quadrupole moment (field-independent basis, Debye-Ang):
   XX=              2.7042   YY=              3.4409   ZZ=             -6.1451
   XY=             -0.3351   XZ=             -2.9836   YZ=             -0.7421
 Octapole moment (field-independent basis, Debye-Ang**2):
  XXX=             -6.5714  YYY=              9.9837  ZZZ=              2.4089  XYY=              0.1380
  XXY=             -3.8972  XXZ=             -0.2876  XZZ=             -1.3272  YZZ=             -0.2066
  YYZ=             -1.2737  XYZ=            -13.5241
 Hexadecapole moment (field-independent basis, Debye-Ang**3):
 XXXX=          -3818.2773 YYYY=           -835.2963 ZZZZ=           -311.9834 XXXY=             -6.0377
 XXXZ=            -54.8349 YYYX=              2.0225 YYYZ=              4.4896 ZZZX=            -17.4854
 ZZZY=             -6.2893 XXYY=           -794.0794 XXZZ=           -753.1438 YYZZ=           -185.5998
 XXYZ=            -18.2762 YYXZ=             12.2919 ZZXY=             -0.8022
 N-N= 9.171626407598D+02 E-N=-3.214887023853D+03  KE= 5.902819629353D+02
   1 Symmetry operations used in ECPInt.
 ECPInt:  NShTT=    9180 NPrTT=   32880 LenC2=    8624 LenP2D=   22647.
 LDataN:  DoStor=T MaxTD1= 5 Len=  102
 Calling FoFJK, ICntrl=      2127 FMM=F ISym2X=0 I1Cent= 0 IOpClX= 0 NMat=1 NMatS=1 NMatT=0.
 ***** Axes restored to original set *****
 -------------------------------------------------------------------
 Center     Atomic                   Forces (Hartrees/Bohr)
 Number     Number              X              Y              Z
 -------------------------------------------------------------------
      1        6          -0.003490642   -0.000452199   -0.003024762
      2        6          -0.000965924   -0.001561215    0.003115032
      3        6           0.007707058   -0.002492114   -0.000587988
      4        6           0.020125025    0.001767270   -0.011067399
      5        7           0.003984919    0.005569480    0.005061304
      6        6           0.000440109   -0.004083672    0.019632534
      7        6          -0.024039664   -0.000018190   -0.007651777
      8        6          -0.009830374    0.001009080   -0.003679277
      9        6           0.003861010    0.001895350    0.002355768
     10        6           0.007528704   -0.002186586    0.001523900
     11        6          -0.000146674   -0.000929564    0.000475608
     12        6          -0.004632857    0.002951467   -0.002289022
     13        6           0.005732698   -0.002916822   -0.003369756
     14        6          -0.001493967    0.002536967    0.000599189
     15        6          -0.003632032    0.000906299   -0.000101965
     16        1          -0.005048218   -0.001554840    0.002370038
     17        1          -0.000688305    0.002010604   -0.005757212
     18        1          -0.000651481    0.007005150    0.002507881
     19        1          -0.000412085    0.007133375   -0.011005545
     20        1           0.005322356    0.002629434   -0.000870524
     21        1          -0.002597987   -0.008283013   -0.008311061
     22        1          -0.004963493    0.004628228   -0.001912568
     23        1          -0.000944346   -0.005195619   -0.010082342
     24        1           0.006984383   -0.005376282   -0.005451464
     25        1           0.009326290   -0.001228677    0.004281252
     26        1           0.001230702    0.004624101    0.009154055
     27        1          -0.007466185    0.005747445    0.005920521
     28        1           0.008231908   -0.006261589    0.003494093
     29        1           0.000300498   -0.006409749    0.008178569
     30        1          -0.009771425   -0.001464118    0.006492919
 -------------------------------------------------------------------
 Cartesian Forces:  Max     0.024039664 RMS     0.006257798

 GradGradGradGradGradGradGradGradGradGradGradGradGradGradGradGradGradGrad
 Berny optimization.
 FormGI is forming the generalized inverse of G from B-inverse, IUseBI=4.
 Internal  Forces:  Max     0.018771125 RMS     0.005445789
 Search for a local minimum.
 Step number   1 out of a maximum of  160
 All quantities printed in internal units (Hartrees-Bohrs-Radians)
 Mixed Optimization -- RFO/linear search
 Second derivative matrix not updated -- first step.
 ITU=  0
     Eigenvalues ---    0.00852   0.00908   0.01141   0.01284   0.01299
     Eigenvalues ---    0.01714   0.01894   0.01896   0.02181   0.02183
     Eigenvalues ---    0.02223   0.02263   0.02269   0.02283   0.02284
     Eigenvalues ---    0.02300   0.02332   0.02334   0.02341   0.02351
     Eigenvalues ---    0.02365   0.02371   0.02378   0.07299   0.07322
     Eigenvalues ---    0.07338   0.07428   0.15993   0.15995   0.15998
     Eigenvalues ---    0.15999   0.16000   0.16000   0.16000   0.16000
     Eigenvalues ---    0.16000   0.16000   0.16000   0.16000   0.16000
     Eigenvalues ---    0.16000   0.16000   0.22000   0.22000   0.22000
     Eigenvalues ---    0.23453   0.23468   0.23482   0.24803   0.24864
     Eigenvalues ---    0.24983   0.24998   0.25000   0.33527   0.34699
     Eigenvalues ---    0.34700   0.34706   0.34985   0.34994   0.35165
     Eigenvalues ---    0.36246   0.36249   0.36252   0.36256   0.36385
     Eigenvalues ---    0.36469   0.36483   0.36496   0.36532   0.36736
     Eigenvalues ---    0.40875   0.41031   0.42950   0.43038   0.43601
     Eigenvalues ---    0.43730   0.47007   0.47297   0.47366   0.47889
     Eigenvalues ---    0.48508   0.49040   0.49435   0.49678
 RFO step:  Lambda=-1.15444062D-02 EMin= 8.52060540D-03
 Linear search not attempted -- first point.
 Iteration  1 RMS(Cart)=  0.05327168 RMS(Int)=  0.00054487
 Iteration  2 RMS(Cart)=  0.00111622 RMS(Int)=  0.00008178
 Iteration  3 RMS(Cart)=  0.00000096 RMS(Int)=  0.00008178
 Variable       Old X    -DE/DX   Delta X   Delta X   Delta X     New X
                                 (Linear)    (Quad)   (Total)
    R1        2.81435   0.01270   0.00000   0.03663   0.03663   2.85098
    R2        2.06164   0.00566   0.00000   0.01580   0.01580   2.07744
    R3        2.06167   0.00596   0.00000   0.01663   0.01663   2.07830
    R4        2.06155   0.00740   0.00000   0.02064   0.02064   2.08219
    R5        2.61581   0.01441   0.00000   0.02884   0.02883   2.64464
    R6        2.62368   0.01039   0.00000   0.02151   0.02150   2.64518
    R7        2.63658   0.00710   0.00000   0.01445   0.01444   2.65102
    R8        2.02947   0.01308   0.00000   0.03451   0.03451   2.06397
    R9        2.70382  -0.01771   0.00000  -0.04214  -0.04214   2.66168
   R10        2.63475   0.00991   0.00000   0.02057   0.02058   2.65533
   R11        2.76558  -0.00863   0.00000  -0.02291  -0.02291   2.74266
   R12        2.70176  -0.01877   0.00000  -0.04450  -0.04450   2.65726
   R13        2.05699   0.00577   0.00000   0.01596   0.01596   2.07295
   R14        2.05685   0.01112   0.00000   0.03077   0.03077   2.08762
   R15        2.05408   0.00705   0.00000   0.01941   0.01941   2.07349
   R16        2.63639   0.00840   0.00000   0.01722   0.01723   2.65362
   R17        2.63594   0.01013   0.00000   0.02085   0.02085   2.65679
   R18        2.60240   0.01691   0.00000   0.03329   0.03330   2.63569
   R19        2.03312   0.01131   0.00000   0.03004   0.03004   2.06316
   R20        2.61085   0.01162   0.00000   0.02367   0.02367   2.63451
   R21        2.03694   0.01034   0.00000   0.02764   0.02764   2.06459
   R22        2.61036   0.01461   0.00000   0.02963   0.02962   2.63998
   R23        2.03689   0.01033   0.00000   0.02763   0.02763   2.06452
   R24        2.60147   0.01456   0.00000   0.02861   0.02861   2.63008
   R25        2.03699   0.01029   0.00000   0.02752   0.02752   2.06451
   R26        2.03355   0.01109   0.00000   0.02948   0.02948   2.06303
   R27        2.59957   0.01463   0.00000   0.02891   0.02892   2.62849
   R28        2.03333   0.01086   0.00000   0.02886   0.02886   2.06219
   R29        2.60952   0.01319   0.00000   0.02679   0.02679   2.63631
   R30        2.03683   0.01037   0.00000   0.02772   0.02772   2.06455
   R31        2.03484   0.01180   0.00000   0.03142   0.03142   2.06626
    A1        1.94055   0.00063   0.00000   0.00455   0.00452   1.94507
    A2        1.93958   0.00128   0.00000   0.00866   0.00863   1.94820
    A3        1.93391   0.00071   0.00000   0.00206   0.00206   1.93597
    A4        1.87827  -0.00017   0.00000   0.00292   0.00286   1.88113
    A5        1.88438  -0.00118   0.00000  -0.00915  -0.00915   1.87524
    A6        1.88479  -0.00141   0.00000  -0.00991  -0.00991   1.87488
    A7        2.10354  -0.00084   0.00000  -0.00317  -0.00317   2.10037
    A8        2.10556   0.00085   0.00000   0.00329   0.00329   2.10885
    A9        2.07351  -0.00001   0.00000  -0.00001  -0.00002   2.07350
   A10        2.12170   0.00086   0.00000   0.00237   0.00235   2.12405
   A11        2.07269  -0.00074   0.00000  -0.00289  -0.00290   2.06979
   A12        2.08840  -0.00011   0.00000   0.00078   0.00077   2.08917
   A13        2.12489  -0.00505   0.00000  -0.01882  -0.01889   2.10600
   A14        2.06128   0.00204   0.00000   0.00663   0.00655   2.06783
   A15        2.09696   0.00300   0.00000   0.01197   0.01188   2.10885
   A16        2.08318  -0.00143   0.00000  -0.00636  -0.00644   2.07674
   A17        2.12314   0.00052   0.00000   0.00112   0.00103   2.12417
   A18        2.06896   0.00085   0.00000   0.00240   0.00232   2.07127
   A19        1.92660  -0.00341   0.00000  -0.02262  -0.02272   1.90388
   A20        1.91794   0.00753   0.00000   0.04883   0.04883   1.96677
   A21        1.94132  -0.00120   0.00000  -0.00920  -0.00944   1.93188
   A22        1.90142  -0.00120   0.00000  -0.00266  -0.00253   1.89889
   A23        1.87843   0.00038   0.00000  -0.00721  -0.00756   1.87088
   A24        1.89716  -0.00227   0.00000  -0.00816  -0.00829   1.88886
   A25        2.11910  -0.00345   0.00000  -0.01246  -0.01261   2.10649
   A26        2.09992   0.00165   0.00000   0.00705   0.00688   2.10680
   A27        2.06416   0.00180   0.00000   0.00535   0.00523   2.06939
   A28        2.10691  -0.00066   0.00000  -0.00359  -0.00358   2.10333
   A29        2.08112   0.00161   0.00000   0.00935   0.00932   2.09045
   A30        2.09485  -0.00094   0.00000  -0.00554  -0.00557   2.08929
   A31        2.09774   0.00155   0.00000   0.00768   0.00767   2.10541
   A32        2.09294  -0.00149   0.00000  -0.00803  -0.00805   2.08490
   A33        2.09250  -0.00006   0.00000   0.00033   0.00031   2.09281
   A34        2.09229  -0.00356   0.00000  -0.01344  -0.01345   2.07885
   A35        2.09555   0.00165   0.00000   0.00595   0.00595   2.10150
   A36        2.09534   0.00191   0.00000   0.00749   0.00749   2.10283
   A37        2.09570   0.00210   0.00000   0.01010   0.01008   2.10578
   A38        2.09374  -0.00026   0.00000  -0.00046  -0.00049   2.09326
   A39        2.09374  -0.00184   0.00000  -0.00966  -0.00969   2.08405
   A40        2.10956  -0.00124   0.00000  -0.00611  -0.00609   2.10347
   A41        2.07311   0.00152   0.00000   0.00830   0.00829   2.08140
   A42        2.10043  -0.00028   0.00000  -0.00216  -0.00217   2.09826
   A43        2.10922  -0.00292   0.00000  -0.01229  -0.01228   2.09695
   A44        2.07515   0.00253   0.00000   0.01241   0.01241   2.08756
   A45        2.09872   0.00039   0.00000  -0.00011  -0.00012   2.09861
   A46        2.09661   0.00237   0.00000   0.01190   0.01187   2.10848
   A47        2.09342  -0.00182   0.00000  -0.00967  -0.00971   2.08370
   A48        2.09316  -0.00055   0.00000  -0.00225  -0.00230   2.09086
   A49        2.10397  -0.00234   0.00000  -0.00857  -0.00857   2.09540
   A50        2.08150   0.00169   0.00000   0.00732   0.00731   2.08881
   A51        2.09772   0.00065   0.00000   0.00126   0.00125   2.09897
    D1        2.66908   0.00052   0.00000   0.00518   0.00523   2.67431
    D2       -0.50921   0.00061   0.00000   0.00861   0.00861  -0.50060
    D3        0.57726  -0.00054   0.00000  -0.00733  -0.00734   0.56992
    D4       -2.60104  -0.00045   0.00000  -0.00391  -0.00395  -2.60499
    D5       -1.51835  -0.00009   0.00000  -0.00196  -0.00194  -1.52029
    D6        1.58653   0.00000   0.00000   0.00147   0.00145   1.58798
    D7        3.11793  -0.00013   0.00000  -0.00457  -0.00458   3.11335
    D8        0.00650  -0.00048   0.00000  -0.01458  -0.01451  -0.00801
    D9        0.01238  -0.00023   0.00000  -0.00800  -0.00797   0.00441
   D10       -3.09905  -0.00059   0.00000  -0.01801  -0.01790  -3.11695
   D11       -3.11823   0.00012   0.00000   0.00196   0.00195  -3.11628
   D12        0.02167   0.00032   0.00000   0.00836   0.00836   0.03002
   D13       -0.01272   0.00019   0.00000   0.00525   0.00521  -0.00751
   D14        3.12718   0.00039   0.00000   0.01165   0.01162   3.13880
   D15        3.12682  -0.00029   0.00000  -0.01027  -0.01004   3.11678
   D16       -0.00418   0.00041   0.00000   0.01332   0.01338   0.00920
   D17       -0.04520   0.00006   0.00000  -0.00024  -0.00007  -0.04527
   D18        3.10699   0.00076   0.00000   0.02336   0.02336   3.13034
   D19       -0.64725  -0.00067   0.00000  -0.03214  -0.03216  -0.67942
   D20        2.63117  -0.00017   0.00000  -0.00794  -0.00801   2.62317
   D21        2.48353  -0.00140   0.00000  -0.05625  -0.05618   2.42735
   D22       -0.52123  -0.00090   0.00000  -0.03205  -0.03202  -0.55325
   D23       -0.00388  -0.00051   0.00000  -0.01602  -0.01600  -0.01988
   D24        3.12308  -0.00048   0.00000  -0.01465  -0.01469   3.10839
   D25       -3.13505   0.00023   0.00000   0.00738   0.00766  -3.12739
   D26       -0.00809   0.00026   0.00000   0.00875   0.00897   0.00088
   D27        2.85228  -0.00114   0.00000  -0.01071  -0.01054   2.84175
   D28       -1.33334   0.00003   0.00000   0.00290   0.00278  -1.33056
   D29        0.76835   0.00139   0.00000   0.01908   0.01897   0.78732
   D30       -0.42188  -0.00165   0.00000  -0.03424  -0.03403  -0.45591
   D31        1.67568  -0.00048   0.00000  -0.02063  -0.02071   1.65497
   D32       -2.50582   0.00089   0.00000  -0.00444  -0.00452  -2.51034
   D33        2.47428  -0.00061   0.00000  -0.02752  -0.02760   2.44669
   D34       -0.66934  -0.00160   0.00000  -0.06001  -0.06001  -0.72935
   D35       -0.53155   0.00006   0.00000  -0.00284  -0.00285  -0.53440
   D36        2.60801  -0.00093   0.00000  -0.03534  -0.03526   2.57275
   D37       -3.14035  -0.00104   0.00000  -0.03241  -0.03222   3.11061
   D38       -0.02508  -0.00071   0.00000  -0.02289  -0.02271  -0.04778
   D39        0.00323  -0.00007   0.00000  -0.00057  -0.00050   0.00273
   D40        3.11851   0.00025   0.00000   0.00895   0.00902   3.12752
   D41        3.14113   0.00057   0.00000   0.01883   0.01909  -3.12297
   D42       -0.01429   0.00065   0.00000   0.02159   0.02180   0.00750
   D43       -0.00244  -0.00040   0.00000  -0.01268  -0.01266  -0.01510
   D44        3.12533  -0.00031   0.00000  -0.00992  -0.00995   3.11538
   D45       -0.00216   0.00045   0.00000   0.01239   0.01245   0.01028
   D46        3.13585   0.00013   0.00000   0.00315   0.00317   3.13902
   D47       -3.11723   0.00009   0.00000   0.00257   0.00271  -3.11452
   D48        0.02078  -0.00024   0.00000  -0.00667  -0.00657   0.01421
   D49        0.00022  -0.00038   0.00000  -0.01108  -0.01110  -0.01088
   D50        3.14134  -0.00021   0.00000  -0.00602  -0.00605   3.13529
   D51       -3.13780  -0.00005   0.00000  -0.00183  -0.00176  -3.13955
   D52        0.00333   0.00011   0.00000   0.00324   0.00329   0.00661
   D53        0.00058  -0.00008   0.00000  -0.00208  -0.00213  -0.00155
   D54       -3.13933   0.00038   0.00000   0.01140   0.01143  -3.12790
   D55       -3.14055  -0.00025   0.00000  -0.00714  -0.00718   3.13546
   D56        0.00273   0.00022   0.00000   0.00634   0.00639   0.00912
   D57        0.00056   0.00047   0.00000   0.01408   0.01410   0.01467
   D58       -3.12699   0.00037   0.00000   0.01120   0.01129  -3.11570
   D59        3.14047   0.00001   0.00000   0.00061   0.00062   3.14109
   D60        0.01292  -0.00009   0.00000  -0.00227  -0.00220   0.01073
   D61        0.00350   0.00046   0.00000   0.01364   0.01367   0.01717
   D62       -3.13934  -0.00012   0.00000  -0.00324  -0.00324   3.14061
   D63       -3.12327   0.00041   0.00000   0.01215   0.01225  -3.11102
   D64        0.01708  -0.00017   0.00000  -0.00473  -0.00466   0.01243
   D65        0.00496  -0.00029   0.00000  -0.00808  -0.00816  -0.00320
   D66       -3.13492  -0.00049   0.00000  -0.01455  -0.01461   3.13365
   D67       -3.13539   0.00029   0.00000   0.00879   0.00882  -3.12657
   D68        0.00791   0.00009   0.00000   0.00233   0.00237   0.01028
         Item               Value     Threshold  Converged?
 Maximum Force            0.018771     0.000450     NO 
 RMS     Force            0.005446     0.000300     NO 
 Maximum Displacement     0.183296     0.001800     NO 
 RMS     Displacement     0.053879     0.001200     NO 
 Predicted change in Energy=-6.055012D-03
 GradGradGradGradGradGradGradGradGradGradGradGradGradGradGradGradGradGrad

                          Input orientation:                          
 ---------------------------------------------------------------------
 Center     Atomic      Atomic             Coordinates (Angstroms)
 Number     Number       Type             X           Y           Z
 ---------------------------------------------------------------------
      1          6           0       -4.436526    1.455126   -0.250049
      2          6           0       -3.235718    0.634134    0.150106
      3          6           0       -2.044877    0.720929   -0.579911
      4          6           0       -0.901089   -0.003955   -0.213432
      5          7           0        0.277093    0.076770   -0.981057
      6          6           0        0.171878    0.129196   -2.427643
      7          6           0        1.548597   -0.083582   -0.402388
      8          6           0        2.555524   -0.798217   -1.071169
      9          6           0        3.826446   -0.923638   -0.510501
     10          6           0        4.115915   -0.352839    0.728039
     11          6           0        3.118371    0.360061    1.397619
     12          6           0        1.851673    0.502826    0.838925
     13          6           0       -0.971508   -0.842970    0.911518
     14          6           0       -2.147656   -0.924549    1.649573
     15          6           0       -3.277134   -0.195483    1.276771
     16          1           0       -5.374346    0.974913    0.063675
     17          1           0       -4.482365    1.602072   -1.339013
     18          1           0       -4.404194    2.452838    0.216416
     19          1           0       -2.009307    1.387154   -1.444663
     20          1           0        1.119670    0.492907   -2.843237
     21          1           0       -0.058293   -0.854741   -2.874066
     22          1           0       -0.609220    0.836234   -2.734126
     23          1           0        2.337941   -1.272751   -2.030051
     24          1           0        4.596235   -1.485539   -1.044653
     25          1           0        5.110981   -0.458345    1.166516
     26          1           0        3.334261    0.823796    2.362958
     27          1           0        1.084672    1.081770    1.356966
     28          1           0       -0.102423   -1.439042    1.194799
     29          1           0       -2.188970   -1.581571    2.521465
     30          1           0       -4.199370   -0.272016    1.859164
 ---------------------------------------------------------------------
                    Distance matrix (angstroms):
                    1          2          3          4          5
     1  C    0.000000
     2  C    1.508672   0.000000
     3  C    2.523458   1.399485   0.000000
     4  C    3.824863   2.447409   1.402860   0.000000
     5  N    4.965123   3.732295   2.442828   1.408501   0.000000
     6  C    5.266631   4.302495   2.945890   2.464086   1.451355
     7  C    6.181628   4.869295   3.686707   2.458252   1.406162
     8  C    7.391926   6.089468   4.869582   3.648936   2.442329
     9  C    8.602504   7.262039   6.097693   4.825313   3.717545
    10  C    8.796002   7.440069   6.388980   5.116484   4.223994
    11  C    7.809639   6.481193   5.540757   4.345579   3.716344
    12  C    6.452457   5.135491   4.152562   2.990315   2.444005
    13  C    4.317040   2.808600   2.412936   1.405140   2.446787
    14  C    3.809245   2.421110   2.772861   2.423265   3.715139
    15  C    2.529799   1.399770   2.409467   2.811224   4.219530
    16  H    1.099333   2.167333   3.400599   4.587484   5.816949
    17  H    1.099790   2.169909   2.700740   4.083111   5.010701
    18  H    1.101845   2.162734   3.033154   4.300273   5.384616
    19  H    2.706126   2.148118   1.092208   2.163161   2.675755
    20  H    6.206594   5.286724   3.897307   3.353537   2.085862
    21  H    5.602667   4.632320   3.419415   2.917724   2.136277
    22  H    4.604557   3.906166   2.591341   2.673014   2.106084
    23  H    7.516857   6.281319   5.028595   3.924444   2.677441
    24  H    9.532559   8.201216   7.013477   5.753832   4.593456
    25  H    9.839864   8.479032   7.459692   6.185120   5.316473
    26  H    8.222622   6.935222   6.132388   5.026046   4.592032
    27  H    5.762424   4.508066   3.698078   2.754668   2.669936
    28  H    5.408165   3.899613   3.404144   2.163436   2.678818
    29  H    4.685545   3.410040   3.865333   3.409864   4.593389
    30  H    2.736429   2.161161   3.402479   3.904635   5.312931
                    6          7          8          9         10
     6  C    0.000000
     7  C    2.458106   0.000000
     8  C    2.895149   1.404234   0.000000
     9  C    4.259080   2.430222   1.394748   0.000000
    10  C    5.074063   2.818065   2.422876   1.394125   0.000000
    11  C    4.834021   2.429205   2.784478   2.406278   1.397017
    12  C    3.692125   1.405913   2.415902   2.784866   2.423066
    13  C    3.660934   2.941759   4.046357   5.004898   5.114270
    14  C    4.807734   4.310459   5.434915   6.352622   6.356760
    15  C    5.071862   5.110750   6.316329   7.361073   7.415055
    16  H    6.138608   7.018886   8.204554   9.412160   9.605694
    17  H    5.001645   6.331760   7.440767   8.723645   9.056754
    18  H    5.773283   6.500159   7.788768   8.925942   8.984756
    19  H    2.703013   3.988494   5.074744   6.345742   6.728043
    20  H    1.096956   2.544417   2.620859   3.843813   4.737803
    21  H    1.104719   3.047289   3.175795   4.547789   5.536342
    22  H    1.097245   3.307451   3.930962   5.264674   5.977238
    23  H    2.610625   2.164827   1.091779   2.155588   3.408004
    24  H    4.908663   3.415566   2.153512   1.092532   2.157812
    25  H    6.136605   3.910562   3.413665   2.163080   1.092497
    26  H    5.782127   3.414538   3.876930   3.398903   2.160651
    27  H    4.007974   2.160694   3.404937   3.876392   3.412049
    28  H    3.956855   2.667236   3.551049   4.313896   4.380876
    29  H    5.744040   4.976172   6.002573   6.768376   6.669163
    30  H    6.135593   6.179745   7.381892   8.393667   8.392255
                   11         12         13         14         15
    11  C    0.000000
    12  C    1.391778   0.000000
    13  C    4.290768   3.128384   0.000000
    14  C    5.426301   4.323099   1.390937   0.000000
    15  C    6.420726   5.194613   2.422511   1.395077   0.000000
    16  H    8.618799   7.282804   4.838235   4.066271   2.690674
    17  H    8.173307   6.787621   4.834174   4.557008   3.395013
    18  H    7.897085   6.582245   4.809247   4.307278   3.067283
    19  H    5.952023   4.572087   3.406182   3.864895   3.393866
    20  H    4.690130   3.754230   4.500642   5.733231   6.064670
    21  H    5.460241   4.390588   3.894194   4.983334   5.293865
    22  H    5.585069   4.351305   4.030099   4.968295   4.926408
    23  H    3.876090   3.408835   4.448595   5.812182   6.604896
    24  H    3.399266   3.877381   5.936267   7.283792   8.309223
    25  H    2.166492   3.413833   6.099970   7.289616   8.392957
    26  H    1.092492   2.150294   4.839879   5.798020   6.777114
    27  H    2.158344   1.091711   2.851477   3.815610   4.545675
    28  H    3.694784   2.777768   1.091265   2.157429   3.410564
    29  H    5.762017   4.847932   2.149343   1.092511   2.157453
    30  H    7.359476   6.185175   3.412201   2.163159   1.093416
                   16         17         18         19         20
    16  H    0.000000
    17  H    1.776653   0.000000
    18  H    1.774482   1.774619   0.000000
    19  H    3.710595   2.484626   3.103281   0.000000
    20  H    7.131249   5.905568   6.611799   3.542059   0.000000
    21  H    6.343373   5.288168   6.275190   3.297839   1.790168
    22  H    5.527509   4.187374   5.071582   1.981533   1.766023
    23  H    8.301510   7.433620   8.023903   5.129946   2.294124
    24  H   10.329313   9.593798   9.904991   7.214261   4.385848
    25  H   10.640140  10.126958   9.995811   7.805295   5.737034
    26  H    9.008295   8.683890   8.194212   6.585520   5.667307
    27  H    6.588091   6.207328   5.771338   4.185104   4.241425
    28  H    5.907605   5.903598   5.882959   4.311653   4.640223
    29  H    4.766861   5.504410   5.147517   4.957397   6.635554
    30  H    2.481770   3.717611   3.188323   4.297034   7.140719
                   21         22         23         24         25
    21  H    0.000000
    22  H    1.783956   0.000000
    23  H    2.574691   3.691787   0.000000
    24  H    5.040763   5.944889   2.473091   0.000000
    25  H    6.573038   7.043553   4.309414   2.491859   0.000000
    26  H    6.461682   6.444491   4.968571   4.305511   2.496416
    27  H    4.791459   4.434703   4.311188   4.968895   4.315019
    28  H    4.110842   4.568389   4.047554   5.205257   5.304918
    29  H    5.846351   5.996885   6.426865   7.665861   7.509115
    30  H    6.315976   5.934283   7.672282   9.341706   9.337940
                   26         27         28         29         30
    26  H    0.000000
    27  H    2.477745   0.000000
    28  H    4.277362   2.791055   0.000000
    29  H    6.026358   4.377919   2.476698   0.000000
    30  H    7.629561   5.477777   4.311416   2.489033   0.000000
 Stoichiometry    C14H15N
[...]
     1  C   -0.000035  -0.000004   0.000000  -0.000000   0.000001  -0.000005
     2  C   -0.001413   0.000085  -0.000004   0.000000  -0.000039  -0.000064
     3  C   -0.006825   0.000766  -0.000071   0.000078   0.000050   0.003943
     4  C   -0.148392   0.002136  -0.000067   0.000188  -0.002898   0.008414
     5  N    0.431334  -0.090491   0.002584   0.000393   0.002721  -0.066723
     6  C   -0.077205  -0.008344  -0.002213   0.000479  -0.000754   0.012712
     7  C    4.927518   0.384745  -0.003612  -0.068092  -0.016100   0.400534
     8  C    0.384745   5.201683   0.451395   0.011729  -0.068272   0.020759
     9  C   -0.003612   0.451395   4.866979   0.476724  -0.003438  -0.055437
    10  C   -0.068092   0.011729   0.476724   4.942855   0.459296  -0.002706
    11  C   -0.016100  -0.068272  -0.003438   0.459296   4.900056   0.471598
    12  C    0.400534   0.020759  -0.055437  -0.002706   0.471598   5.077849
    13  C    0.026898   0.001713   0.000175   0.000083   0.002758  -0.002240
    14  C   -0.003950  -0.001016   0.000094  -0.000021   0.000134  -0.002812
    15  C    0.001327   0.000098  -0.000006   0.000003   0.000008   0.000571
    16  H    0.000002   0.000000  -0.000000   0.000000  -0.000000  -0.000002
    17  H    0.000000  -0.000000  -0.000000   0.000000   0.000000   0.000002
    18  H   -0.000009  -0.000000   0.000000  -0.000000   0.000000   0.000002
    19  H    0.001331   0.000017  -0.000008   0.000002   0.000001  -0.000301
    20  H   -0.006516  -0.003729   0.001597  -0.000282   0.000008   0.001005
    21  H   -0.005351   0.008066  -0.001048   0.000128  -0.000132  -0.000526
    22  H    0.007474   0.000597   0.000104  -0.000018   0.000059  -0.000442
    23  H   -0.056857   0.429276  -0.022124   0.005384  -0.000343   0.003059
    24  H    0.013074  -0.055062   0.436442  -0.054735   0.009998  -0.002715
    25  H   -0.003601   0.012845  -0.059104   0.446511  -0.059706   0.012162
    26  H    0.013168  -0.003330   0.010788  -0.057197   0.439768  -0.055657
    27  H   -0.046834   0.007040  -0.001820   0.007159  -0.039768   0.432517
    28  H    0.001091   0.000945   0.000002  -0.000028   0.000183  -0.000404
    29  H    0.000047   0.000003   0.000001  -0.000001  -0.000012  -0.000115
    30  H    0.000006   0.000000  -0.000000   0.000000  -0.000000   0.000003
              13         14         15         16         17         18
     1  C   -0.003645   0.013528  -0.071934   0.425765   0.394829   0.427770
     2  C   -0.073602   0.002457   0.462884  -0.059582  -0.021316  -0.055518
     3  C    0.026983  -0.065504  -0.012337   0.009421  -0.007066  -0.003617
     4  C    0.406100  -0.008199  -0.086753  -0.001264  -0.000939   0.003009
     5  N   -0.052495   0.008900   0.001420   0.000005  -0.000004  -0.000059
     6  C   -0.003330   0.000286   0.000110  -0.000002   0.000012   0.000016
     7  C    0.026898  -0.003950   0.001327   0.000002   0.000000  -0.000009
     8  C    0.001713  -0.001016   0.000098   0.000000  -0.000000  -0.000000
     9  C    0.000175   0.000094  -0.000006  -0.000000  -0.000000   0.000000
    10  C    0.000083  -0.000021   0.000003   0.000000   0.000000  -0.000000
    11  C    0.002758   0.000134   0.000008  -0.000000   0.000000   0.000000
    12  C   -0.002240  -0.002812   0.000571  -0.000002   0.000002   0.000002
    13  C    5.136444   0.395448   0.050638   0.000410   0.000170   0.000085
    14  C    0.395448   4.934922   0.419757   0.000875  -0.000224  -0.000453
    15  C    0.050638   0.419757   5.057221  -0.001747  -0.004787   0.003578
    16  H    0.000410   0.000875  -0.001747   0.546127  -0.023667  -0.023108
    17  H    0.000170  -0.000224  -0.004787  -0.023667   0.558555  -0.028127
    18  H    0.000085  -0.000453   0.003578  -0.023108  -0.028127   0.548630
    19  H    0.009561  -0.003014   0.009926   0.000133   0.000671   0.000363
    20  H   -0.001303   0.000201  -0.000067  -0.000000   0.000000  -0.000000
    21  H    0.003839  -0.001017   0.000132   0.000000   0.000001  -0.000001
    22  H    0.000154   0.000508  -0.000194  -0.000003  -0.000008   0.000039
    23  H    0.000205  -0.000008  -0.000000   0.000000   0.000000  -0.000000
    24  H   -0.000003  -0.000000   0.000000   0.000000   0.000000   0.000000
    25  H    0.000002  -0.000000   0.000000   0.000000  -0.000000  -0.000000
    26  H   -0.000053   0.000017  -0.000005  -0.000000  -0.000000   0.000000
    27  H   -0.003537  -0.000555   0.000297  -0.000001   0.000002  -0.000005
    28  H    0.431658  -0.042424   0.008111   0.000000   0.000001  -0.000004
    29  H   -0.056496   0.445557  -0.061631  -0.000031   0.000016   0.000007
    30  H    0.011640  -0.049450   0.442255   0.002333   0.000174  -0.000022
              19         20         21         22         23         24
     1  C   -0.006434   0.000020  -0.000014   0.000034  -0.000000  -0.000000
     2  C   -0.037600  -0.000350   0.000194  -0.000863   0.000009   0.000000
     3  C    0.412744  -0.000849   0.003582  -0.004081  -0.000039  -0.000000
     4  C   -0.037769   0.015229  -0.007641  -0.008418  -0.001180   0.000028
     5  N    0.006638  -0.045872  -0.051539  -0.026595  -0.004801  -0.000111
     6  C   -0.002811   0.414555   0.406372   0.408052   0.004987  -0.000023
     7  C    0.001331  -0.006516  -0.005351   0.007474  -0.056857   0.013074
     8  C    0.000017  -0.003729   0.008066   0.000597   0.429276  -0.055062
     9  C   -0.000008   0.001597  -0.001048   0.000104  -0.022124   0.436442
    10  C    0.000002  -0.000282   0.000128  -0.000018   0.005384  -0.054735
    11  C    0.000001   0.000008  -0.000132   0.000059  -0.000343   0.009998
    12  C   -0.000301   0.001005  -0.000526  -0.000442   0.003059  -0.002715
    13  C    0.009561  -0.001303   0.003839   0.000154   0.000205  -0.000003
    14  C   -0.003014   0.000201  -0.001017   0.000508  -0.000008  -0.000000
    15  C    0.009926  -0.000067   0.000132  -0.000194  -0.000000   0.000000
    16  H    0.000133  -0.000000   0.000000  -0.000003   0.000000   0.000000
    17  H    0.000671   0.000000   0.000001  -0.000008   0.000000   0.000000
    18  H    0.000363  -0.000000  -0.000001   0.000039  -0.000000   0.000000
    19  H    0.512663  -0.000897   0.000713  -0.002855   0.000005   0.000000
    20  H   -0.000897   0.557688  -0.048907  -0.013129  -0.007116  -0.000015
    21  H    0.000713  -0.048907   0.589157  -0.025214   0.002787  -0.000002
    22  H   -0.002855  -0.013129  -0.025214   0.516221   0.000463  -0.000000
    23  H    0.000005  -0.007116   0.002787   0.000463   0.524000  -0.006731
    24  H    0.000000  -0.000015  -0.000002  -0.000000  -0.006731   0.553530
    25  H    0.000000  -0.000000   0.000001  -0.000000  -0.000151  -0.007008
    26  H   -0.000000  -0.000000  -0.000000  -0.000000   0.000040  -0.000180
    27  H   -0.000009  -0.000002   0.000021  -0.000018  -0.000158   0.000032
    28  H   -0.000181  -0.000024   0.000421  -0.000161  -0.000006  -0.000001
    29  H    0.000029  -0.000000   0.000001   0.000004   0.000000   0.000000
    30  H   -0.000071  -0.000000   0.000000  -0.000002   0.000000   0.000000
              25         26         27         28         29         30
     1  C    0.000000   0.000000  -0.000035   0.000032  -0.000184  -0.008331
     2  C   -0.000000   0.000005   0.000031  -0.001704   0.012658  -0.066405
     3  C    0.000000  -0.000021   0.000170   0.009540  -0.003741   0.016111
     4  C    0.000000   0.000091   0.002667  -0.042241   0.013213  -0.004233
     5  N    0.000021  -0.000161  -0.003924  -0.003738  -0.000231   0.000021
     6  C   -0.000001   0.000016  -0.000177   0.000043  -0.000002   0.000000
     7  C   -0.003601   0.013168  -0.046834   0.001091   0.000047   0.000006
     8  C    0.012845  -0.003330   0.007040   0.000945   0.000003   0.000000
     9  C   -0.059104   0.010788  -0.001820   0.000002   0.000001  -0.000000
    10  C    0.446511  -0.057197   0.007159  -0.000028  -0.000001   0.000000
    11  C   -0.059706   0.439768  -0.039768   0.000183  -0.000012  -0.000000
    12  C    0.012162  -0.055657   0.432517  -0.000404  -0.000115   0.000003
    13  C    0.000002  -0.000053  -0.003537   0.431658  -0.056496   0.011640
    14  C   -0.000000   0.000017  -0.000555  -0.042424   0.445557  -0.049450
    15  C    0.000000  -0.000005   0.000297   0.008111  -0.061631   0.442255
    16  H    0.000000  -0.000000  -0.000001   0.000000  -0.000031   0.002333
    17  H   -0.000000  -0.000000   0.000002   0.000001   0.000016   0.000174
    18  H   -0.000000   0.000000  -0.000005  -0.000004   0.000007  -0.000022
    19  H    0.000000  -0.000000  -0.000009  -0.000181   0.000029  -0.000071
    20  H   -0.000000  -0.000000  -0.000002  -0.000024  -0.000000  -0.000000
    21  H    0.000001  -0.000000   0.000021   0.000421   0.000001   0.000000
    22  H   -0.000000  -0.000000  -0.000018  -0.000161   0.000004  -0.000002
    23  H   -0.000151   0.000040  -0.000158  -0.000006   0.000000   0.000000
    24  H   -0.007008  -0.000180   0.000032  -0.000001   0.000000   0.000000
    25  H    0.552525  -0.006952  -0.000104   0.000001   0.000000   0.000000
    26  H   -0.006952   0.551352  -0.007047  -0.000002   0.000001  -0.000000
    27  H   -0.000104  -0.007047   0.506276  -0.000766   0.000001   0.000003
    28  H    0.000001  -0.000002  -0.000766   0.502325  -0.006482  -0.000103
    29  H    0.000000   0.000001   0.000001  -0.006482   0.544551  -0.007042
    30  H    0.000000  -0.000000   0.000003  -0.000103  -0.007042   0.550353
 Mulliken charges:
               1
     1  C   -0.373412
     2  C    0.224977
     3  C   -0.368809
     4  C    0.216889
     5  N   -0.058626
     6  C   -0.315861
     7  C    0.236241
     8  C   -0.303648
     9  C   -0.097932
    10  C   -0.167932
    11  C   -0.095178
    12  C   -0.254981
    13  C   -0.308261
    14  C   -0.044037
    15  C   -0.218876
    16  H    0.124336
    17  H    0.131705
    18  H    0.127425
    19  H    0.137153
    20  H    0.138755
    21  H    0.125978
    22  H    0.148293
    23  H    0.129299
    24  H    0.113483
    25  H    0.112559
    26  H    0.115359
    27  H    0.148546
    28  H    0.143917
    29  H    0.119880
    30  H    0.112760
 Sum of Mulliken charges =  -0.00000
 Mulliken charges with hydrogens summed into heavy atoms:
               1
     1  C    0.010053
     2  C    0.224977
     3  C   -0.231656
     4  C    0.216889
     5  N   -0.058626
     6  C    0.097165
     7  C    0.236241
     8  C   -0.174349
     9  C    0.015551
    10  C   -0.055372
    11  C    0.020181
    12  C   -0.106435
    13  C   -0.164344
    14  C    0.075844
    15  C   -0.106117
 Electronic spatial extent (au):  <R**2>=           3767.2191
 Charge=             -0.0000 electrons
 Dipole moment (field-independent basis, Debye):
    X=             -1.4776    Y=              0.8482    Z=             -0.1841  Tot=              1.7137
 Quadrupole moment (field-independent basis, Debye-Ang):
   XX=            -83.7010   YY=            -83.1667   ZZ=            -91.2005
   XY=              1.1847   XZ=             -2.7658   YZ=              0.0652
 Traceless Quadrupole moment (field-independent basis, Debye-Ang):
   XX=              2.3217   YY=              2.8560   ZZ=             -5.1778
   XY=              1.1847   XZ=             -2.7658   YZ=              0.0652
 Octapole moment (field-independent basis, Debye-Ang**2):
  XXX=            -14.4021  YYY=              8.9624  ZZZ=             -1.5431  XYY=              1.4850
  XXY=             -3.7616  XXZ=              4.6579  XZZ=             -9.2141  YZZ=             -1.7282
  YYZ=             -1.9574  XYZ=            -14.1934
 Hexadecapole moment (field-independent basis, Debye-Ang**3):
 XXXX=          -3757.5274 YYYY=           -813.8768 ZZZZ=           -427.4414 XXXY=             25.6823
 XXXZ=            -38.9590 YYYX=             -0.6001 YYYZ=             -5.9212 ZZZX=            -20.7645
 ZZZY=             12.4017 XXYY=           -769.1021 XXZZ=           -777.9347 YYZZ=           -196.3475
 XXYZ=            -13.4026 YYXZ=             16.4472 ZZXY=              4.5756
 N-N= 9.147313545425D+02 E-N=-3.214910065815D+03  KE= 5.938391259249D+02
 Breneman (CHELPG) radii used.
 Read replacement radii for each type of atom:
 Atom Element Radius
    1     6    1.50
    2     6    1.50
    3     6    1.50
    4     6    1.50
    5     7    1.70
    6     6    1.50
    7     6    1.50
    8     6    1.50
    9     6    1.50
   10     6    1.50
   11     6    1.50
   12     6    1.50
   13     6    1.50
   14     6    1.50
   15     6    1.50
   16     1    1.45
   17     1    1.45
   18     1    1.45
   19     1    1.45
   20     1    1.45
   21     1    1.45
   22     1    1.45
   23     1    1.45
   24     1    1.45
   25     1    1.45
   26     1    1.45
   27     1    1.45
   28     1    1.45
   29     1    1.45
   30     1    1.45
 Generate Potential Derived Charges using the Breneman model, NDens= 1.
 Grid spacing= 0.300 Box extension= 2.800
 NStep X,Y,Z=   54     39     34   Total possible points=       71604
 Number of Points to Fit=   18585

 **********************************************************************

            Electrostatic Properties Using The SCF Density.

 **********************************************************************

       Atomic Center    1 is at  -4.363100  0.363402  1.241678
       Atomic Center    2 is at  -3.180372 -0.049806  0.404218
       Atomic Center    3 is at  -1.955305  0.613250  0.531898
       Atomic Center    4 is at  -0.852654  0.271054 -0.256667
       Atomic Center    5 is at   0.361161  0.994434 -0.124675
       Atomic Center    6 is at   0.354766  2.393809 -0.490984
       Atomic Center    7 is at   1.575910  0.332559  0.045708
       Atomic Center    8 is at   2.795696  0.942368 -0.300052
       Atomic Center    9 is at   4.005954  0.282297 -0.089085
       Atomic Center   10 is at   4.040603 -0.994807  0.461187
       Atomic Center   11 is at   2.833829 -1.605265  0.809759
       Atomic Center   12 is at   1.621364 -0.957646  0.614094
       Atomic Center   13 is at  -0.974382 -0.770184 -1.185288
       Atomic Center   14 is at  -2.180902 -1.451871 -1.303956
       Atomic Center   15 is at  -3.277976 -1.093796 -0.521121
       Atomic Center   16 is at  -5.090181 -0.454618  1.342783
       Atomic Center   17 is at  -4.887246  1.217670  0.783181
       Atomic Center   18 is at  -4.052787  0.672118  2.250496
       Atomic Center   19 is at  -1.844139  1.411497  1.270906
       Atomic Center   20 is at   0.979359  2.984733  0.197465
       Atomic Center   21 is at   0.720485  2.564586 -1.521616
       Atomic Center   22 is at  -0.671082  2.777304 -0.435197
       Atomic Center   23 is at   2.810536  1.936898 -0.745309
       Atomic Center   24 is at   4.936121  0.782274 -0.369941
       Atomic Center   25 is at   4.990681 -1.507774  0.620704
       Atomic Center   26 is at   2.834960 -2.603597  1.253989
       Atomic Center   27 is at   0.693167 -1.447885  0.910870
       Atomic Center   28 is at  -0.115541 -1.043938 -1.801209
       Atomic Center   29 is at  -2.271439 -2.267585 -2.024867
       Atomic Center   30 is at  -4.221611 -1.634906 -0.627868
   18585 points will be used for fitting atomic charges
 Fitting point charges to electrostatic potential
 Charges from ESP fit, RMS=   0.00371 RRMS=   0.37063:
 ESP charges:
               1
     1  C   -0.253730
     2  C    0.262293
     3  C   -0.375688
     4  C    0.406877
     5  N   -0.450538
     6  C    0.061206
     7  C    0.411751
     8  C   -0.280209
     9  C   -0.049103
    10  C   -0.191352
    11  C   -0.037958
    12  C   -0.240992
    13  C   -0.196288
    14  C   -0.056459
    15  C   -0.282770
    16  H    0.074230
    17  H    0.072500
    18  H    0.068698
    19  H    0.162934
    20  H    0.029748
    21  H    0.018199
    22  H    0.031548
    23  H    0.127016
    24  H    0.090991
    25  H    0.101819
    26  H    0.092673
    27  H    0.079177
    28  H    0.089523
    29  H    0.102570
    30  H    0.131336
 Sum of ESP charges =   0.00000
 ESP charges with hydrogens summed into heavy atoms:
               1
     1  C   -0.038303
     2  C    0.262293
     3  C   -0.212754
     4  C    0.406877
     5  N   -0.450538
     6  C    0.140701
     7  C    0.411751
     8  C   -0.153193
     9  C    0.041887
    10  C   -0.089533
    11  C    0.054715
    12  C   -0.161815
    13  C   -0.106765
    14  C    0.046112
    15  C   -0.151434
 Charge=   0.00000 Dipole=    -1.4301     0.8521    -0.1866 Tot=     1.6751
 -----------------------------------------------------------------

              Electrostatic Properties (Atomic Units)

 -----------------------------------------------------------------
    Center     Electric         -------- Electric Field --------
               Potential          X             Y             Z
 -----------------------------------------------------------------
    1 Atom    -14.767355
    2 Atom    -14.755724
    3 Atom    -14.772112
    4 Atom    -14.728441
    5 Atom    -18.361674
    6 Atom    -14.736484
    7 Atom    -14.729641
    8 Atom    -14.779697
    9 Atom    -14.775954
   10 Atom    -14.785155
   11 Atom    -14.776599
   12 Atom    -14.781596
   13 Atom    -14.772520
   14 Atom    -14.767370
   15 Atom    -14.772540
   16 Atom     -1.113384
   17 Atom     -1.111063
   18 Atom     -1.112634
   19 Atom     -1.102815
   20 Atom     -1.111581
   21 Atom     -1.115706
   22 Atom     -1.105011
   23 Atom     -1.111306
   24 Atom     -1.115213
   25 Atom     -1.118766
   26 Atom     -1.116052
   27 Atom     -1.115274
   28 Atom     -1.105960
   29 Atom     -1.106501
   30 Atom     -1.107681
 -----------------------------------------------------------------
 Unable to Open any file for archive entry.
 1\1\GINC-NOTCH389\SP\RwB97XD\def2TZVP\C14H15N1\U1366379\17-Feb-2026\0\
 \#N Guess=Read Geom=Check Integral(Ultrafine) Density Pop=(ChelpG,Read
 Radii) NMR wB97XD def2TZVP\\prod_5d_6\\0,1\C,0,-4.2244859593,1.7892153
 812,-0.0671257743\C,0,-3.1366668395,0.7871221444,0.2216401843\C,0,-1.9
 348352239,0.8199402409,-0.4933833102\C,0,-0.9234742677,-0.1186457642,-
 0.2675990743\N,0,0.265135294,-0.0754758917,-1.0418022173\C,0,0.1537305
 634,-0.3271888979,-2.4619085244\C,0,1.5189328355,-0.1033989556,-0.4335
 788618\C,0,2.6597850817,-0.5427435711,-1.1298031076\C,0,3.9140262095,-
 0.5298206385,-0.5201842966\C,0,4.0707384538,-0.0897669219,0.7900783105
 \C,0,2.9431608631,0.3507611268,1.4864752039\C,0,1.6891425166,0.3522676
 473,0.8904889548\C,0,-1.1132332799,-1.1052116221,0.7081110102\C,0,-2.2
 947691366,-1.1327814044,1.4413788239\C,0,-3.3019851536,-0.1992812042,1
 .1990719341\H,0,-4.897844803,1.9114170915,0.7929206768\H,0,-4.83711911
 2,1.464958018,-0.9240163491\H,0,-3.8064171775,2.77509695,-0.3172624596
 \H,0,-1.7683444814,1.600970814,-1.2403510071\H,0,0.8320141514,0.326417
 4348,-3.0328727735\H,0,0.3826775609,-1.3773534488,-2.726211655\H,0,-0.
 8730747494,-0.1197776111,-2.786247418\H,0,2.5771631517,-0.906972962,-2
 .1535582805\H,0,4.7803906148,-0.8791148947,-1.087171497\H,0,5.05437329
 54,-0.0852478266,1.2630167324\H,0,3.0416554453,0.7117758912,2.51310922
 79\H,0,0.8262637741,0.7178512256,1.4488349709\H,0,-0.3253974329,-1.838
 5320076,0.8910385991\H,0,-2.4378362468,-1.8997279764,2.2059861685\H,0,
 -4.2274459476,-0.2352623668,1.7794758088\\Version=ES64L-G16RevC.01\Sta
 te=1-A\HF=-597.2788826\RMSD=2.576e-09\Dipole=-0.5996468,0.0237197,-0.3
 072935\Quadrupole=1.0676657,-3.258431,2.1907654,-2.5942538,-1.0421691,
 -0.2560771\PG=C01 [X(C14H15N1)]\\@
 The archive entry for this job was punched.


 DEFINE YOUR TERMS, YOU WILL PERMIT ME AGAIN TO SAY, 
 OR WE SHALL NEVER UNDERSTAND ONE ANOTHER.

                                    -- VOLTAIRE
 Job cpu time:       0 days  0 hours 56 minutes 47.6 seconds.
 Elapsed time:       0 days  0 hours  7 minutes 18.9 seconds.
 File lengths (MBytes):  RWF=    190 Int=      0 D2E=      0 Chk=     29 Scr=      2
 Normal termination of Gaussian 16 at Tue Feb 17 17:09:55 2026.
