 Entering Gaussian System, Link 0=g16
 Input=prod_5j_2.com
 Output=prod_5j_2.log
 Initial command:
 /uufs/chpc.utah.edu/sys/installdir/gaussian16/C01/AVX/g16/l1.exe "/scratch/general/vast/u1366379/GAUSSSCRDIR/11028680-notchpeak.peaks/Gau-3702084.inp" -scrdir="/scratch/general/vast/u1366379/GAUSSSCRDIR/11028680-notchpeak.peaks/"
 Entering Link 1 = /uufs/chpc.utah.edu/sys/installdir/gaussian16/C01/AVX/g16/l1.exe PID=   3702093.
  
 Copyright (c) 1988-2019, Gaussian, Inc.  All Rights Reserved.
  
 This is part of the Gaussian(R) 16 program.  It is based on
 the Gaussian(R) 09 system (copyright 2009, Gaussian, Inc.),
 the Gaussian(R) 03 system (copyright 2003, Gaussian, Inc.),
 the Gaussian(R) 98 system (copyright 1998, Gaussian, Inc.),
 the Gaussian(R) 94 system (copyright 1995, Gaussian, Inc.),
 the Gaussian 92(TM) system (copyright 1992, Gaussian, Inc.),
 the Gaussian 90(TM) system (copyright 1990, Gaussian, Inc.),
 the Gaussian 88(TM) system (copyright 1988, Gaussian, Inc.),
 the Gaussian 86(TM) system (copyright 1986, Carnegie Mellon
 University), and the Gaussian 82(TM) system (copyright 1983,
 Carnegie Mellon University). Gaussian is a federally registered
 trademark of Gaussian, Inc.
  
 This software contains proprietary and confidential information,
 including trade secrets, belonging to Gaussian, Inc.
  
 This software is provided under written license and may be
 used, copied, transmitted, or stored only in accord with that
 written license.
  
 The following legend is applicable only to US Government
 contracts under FAR:
  
                    RESTRICTED RIGHTS LEGEND
  
 Use, reproduction and disclosure by the US Government is
 subject to restrictions as set forth in subparagraphs (a)
 and (c) of the Commercial Computer Software - Restricted
 Rights clause in FAR 52.227-19.
  
 Gaussian, Inc.
 340 Quinnipiac St., Bldg. 40, Wallingford CT 06492
  
  
 ---------------------------------------------------------------
 Warning -- This program may not be used in any manner that
 competes with the business of Gaussian, Inc. or will provide
 assistance to any competitor of Gaussian, Inc.  The licensee
 of this program is prohibited from giving any competitor of
 Gaussian, Inc. access to this program.  By using this program,
 the user acknowledges that Gaussian, Inc. is engaged in the
 business of creating and licensing software in the field of
 computational chemistry and represents and warrants to the
 licensee that it is not a competitor of Gaussian, Inc. and that
 it will not use this program in any manner prohibited above.
 ---------------------------------------------------------------
  

 Cite this work as:
 Gaussian 16, Revision C.01,
 M. J. Frisch, G. W. Trucks, H. B. Schlegel, G. E. Scuseria, 
 M. A. Robb, J. R. Cheeseman, G. Scalmani, V. Barone, 
 G. A. Petersson, H. Nakatsuji, X. Li, M. Caricato, A. V. Marenich, 
 J. Bloino, B. G. Janesko, R. Gomperts, B. Mennucci, H. P. Hratchian, 
 J. V. Ortiz, A. F. Izmaylov, J. L. Sonnenberg, D. Williams-Young, 
 F. Ding, F. Lipparini, F. Egidi, J. Goings, B. Peng, A. Petrone, 
 T. Henderson, D. Ranasinghe, V. G. Zakrzewski, J. Gao, N. Rega, 
 G. Zheng, W. Liang, M. Hada, M. Ehara, K. Toyota, R. Fukuda, 
 J. Hasegawa, M. Ishida, T. Nakajima, Y. Honda, O. Kitao, H. Nakai, 
 T. Vreven, K. Throssell, J. A. Montgomery, Jr., J. E. Peralta, 
 F. Ogliaro, M. J. Bearpark, J. J. Heyd, E. N. Brothers, K. N. Kudin, 
 V. N. Staroverov, T. A. Keith, R. Kobayashi, J. Normand, 
 K. Raghavachari, A. P. Rendell, J. C. Burant, S. S. Iyengar, 
 J. Tomasi, M. Cossi, J. M. Millam, M. Klene, C. Adamo, R. Cammi, 
 J. W. Ochterski, R. L. Martin, K. Morokuma, O. Farkas, 
 J. B. Foresman, and D. J. Fox, Gaussian, Inc., Wallingford CT, 2019.
 
 ******************************************
 Gaussian 16:  ES64L-G16RevC.01  3-Jul-2019
                17-Feb-2026 
 ******************************************
 %NProcShared=8
 Will use up to    8 processors via shared memory.
 %Mem=8GB
 %chk=prod_5j_2.chk
 ------------------------------------------------------
 #N OPT FREQ=NORAMAN Integral(Ultrafine) wB97XD def2SVP
 ------------------------------------------------------
 1/18=20,19=15,26=4,38=1/1,3;
 2/9=110,12=2,17=6,18=5,40=1/2;
 3/5=43,7=101,11=2,25=1,30=1,71=1,74=-58,75=-5/1,2,3;
 4//1;
 5/5=2,38=5/2;
 6/7=2,8=2,9=2,10=2,28=1/1;
 7//1,2,3,16;
 1/18=20,19=15,26=4/3(2);
 2/9=110/2;
 99//99;
 2/9=110/2;
 3/5=43,7=101,11=2,25=1,30=1,71=1,74=-58,75=-5/1,2,3;
 4/5=5,16=3,69=1/1;
 5/5=2,38=5/2;
 7//1,2,3,16;
 1/18=20,19=15,26=4/3(-5);
 2/9=110/2;
 6/7=2,8=2,9=2,10=2,19=2,28=1/1;
 99/9=1/99;
 ---------
 prod_5j_2
 ---------
 Symbolic Z-matrix:
 Charge =  0 Multiplicity = 1
 C                     1.4354   -0.1452   -0.09302 
 N                     0.06529  -0.53675  -0.20004 
 C                    -1.15463   0.15788   0.0873 
 C                    -1.41209   1.44168   0.56419 
 C                    -2.71395   1.8569    0.75326 
 C                    -3.77764   1.01588   0.47598 
 C                    -3.54683  -0.26089   0.00213 
 C                    -2.24755  -0.68198  -0.1891 
 C                    -1.77253  -2.01211  -0.68814 
 C                    -0.2428   -1.90308  -0.69053 
 C                     2.44706  -1.04209  -0.44967 
 C                     3.77799  -0.69996  -0.35927 
 C                     4.14302   0.55154   0.09119 
 C                     3.16503   1.45587   0.44977 
 C                     1.83414   1.11252   0.35892 
 H                    -0.61806   2.12299   0.79074 
 H                    -2.9069    2.8511    1.12276 
 H                    -4.78834   1.35704   0.62989 
 H                    -4.36265  -0.92745  -0.21809 
 H                    -2.12823  -2.81465  -0.031 
 H                    -2.17404  -2.20866  -1.68943 
 H                     0.2206   -2.64034  -0.0268 
 H                     0.17459  -2.03157  -1.69456 
 H                     2.18649  -2.02326  -0.80338 
 H                     4.53724  -1.41153  -0.64086 
 H                     5.18435   0.82046   0.1628 
 H                     3.44487   2.43535   0.80269 
 H                     1.10182   1.83665   0.64504 
 

 GradGradGradGradGradGradGradGradGradGradGradGradGradGradGradGradGradGrad
 Berny optimization.
 Initialization pass.
                           ----------------------------
                           !    Initial Parameters    !
                           ! (Angstroms and Degrees)  !
 --------------------------                            --------------------------
 ! Name  Definition              Value          Derivative Info.                !
 --------------------------------------------------------------------------------
 ! R1    R(1,2)                  1.429          estimate D2E/DX2                !
 ! R2    R(1,11)                 1.3982         estimate D2E/DX2                !
 ! R3    R(1,15)                 1.3947         estimate D2E/DX2                !
 ! R4    R(2,3)                  1.4329         estimate D2E/DX2                !
 ! R5    R(2,10)                 1.484          estimate D2E/DX2                !
 ! R6    R(3,4)                  1.3935         estimate D2E/DX2                !
 ! R7    R(3,8)                  1.4058         estimate D2E/DX2                !
 ! R8    R(4,5)                  1.3795         estimate D2E/DX2                !
 ! R9    R(4,16)                 1.0705         estimate D2E/DX2                !
 ! R10   R(5,6)                  1.3841         estimate D2E/DX2                !
 ! R11   R(5,17)                 1.0781         estimate D2E/DX2                !
 ! R12   R(6,7)                  1.3813         estimate D2E/DX2                !
 ! R13   R(6,18)                 1.0778         estimate D2E/DX2                !
 ! R14   R(7,8)                  1.3791         estimate D2E/DX2                !
 ! R15   R(7,19)                 1.0763         estimate D2E/DX2                !
 ! R16   R(8,9)                  1.498          estimate D2E/DX2                !
 ! R17   R(9,10)                 1.5336         estimate D2E/DX2                !
 ! R18   R(9,20)                 1.0966         estimate D2E/DX2                !
 ! R19   R(9,21)                 1.0966         estimate D2E/DX2                !
 ! R20   R(10,22)                1.0949         estimate D2E/DX2                !
 ! R21   R(10,23)                1.0949         estimate D2E/DX2                !
 ! R22   R(11,12)                1.3772         estimate D2E/DX2                !
 ! R23   R(11,24)                1.075          estimate D2E/DX2                !
 ! R24   R(12,13)                1.3793         estimate D2E/DX2                !
 ! R25   R(12,25)                1.078          estimate D2E/DX2                !
 ! R26   R(13,14)                1.3794         estimate D2E/DX2                !
 ! R27   R(13,26)                1.0779         estimate D2E/DX2                !
 ! R28   R(14,15)                1.3775         estimate D2E/DX2                !
 ! R29   R(14,27)                1.0781         estimate D2E/DX2                !
 ! R30   R(15,28)                1.0689         estimate D2E/DX2                !
 ! A1    A(2,1,11)             119.9244         estimate D2E/DX2                !
 ! A2    A(2,1,15)             123.0586         estimate D2E/DX2                !
 ! A3    A(11,1,15)            117.017          estimate D2E/DX2                !
 ! A4    A(1,2,3)              131.9461         estimate D2E/DX2                !
 ! A5    A(1,2,10)             118.4297         estimate D2E/DX2                !
 ! A6    A(3,2,10)             109.6241         estimate D2E/DX2                !
 ! A7    A(2,3,4)              132.2617         estimate D2E/DX2                !
 ! A8    A(2,3,8)              109.441          estimate D2E/DX2                !
 ! A9    A(4,3,8)              118.2973         estimate D2E/DX2                !
 ! A10   A(3,4,5)              119.905          estimate D2E/DX2                !
 ! A11   A(3,4,16)             121.4474         estimate D2E/DX2                !
 ! A12   A(5,4,16)             118.6476         estimate D2E/DX2                !
 ! A13   A(4,5,6)              120.9922         estimate D2E/DX2                !
 ! A14   A(4,5,17)             119.5688         estimate D2E/DX2                !
 ! A15   A(6,5,17)             119.439          estimate D2E/DX2                !
 ! A16   A(5,6,7)              120.1307         estimate D2E/DX2                !
 ! A17   A(5,6,18)             119.9831         estimate D2E/DX2                !
 ! A18   A(7,6,18)             119.8862         estimate D2E/DX2                !
 ! A19   A(6,7,8)              119.1578         estimate D2E/DX2                !
 ! A20   A(6,7,19)             121.0639         estimate D2E/DX2                !
 ! A21   A(8,7,19)             119.7784         estimate D2E/DX2                !
 ! A22   A(3,8,7)              121.5171         estimate D2E/DX2                !
 ! A23   A(3,8,9)              110.4541         estimate D2E/DX2                !
 ! A24   A(7,8,9)              128.0288         estimate D2E/DX2                !
 ! A25   A(8,9,10)             104.6964         estimate D2E/DX2                !
 ! A26   A(8,9,20)             110.326          estimate D2E/DX2                !
 ! A27   A(8,9,21)             110.3192         estimate D2E/DX2                !
 ! A28   A(10,9,20)            112.1186         estimate D2E/DX2                !
 ! A29   A(10,9,21)            112.1202         estimate D2E/DX2                !
 ! A30   A(20,9,21)            107.293          estimate D2E/DX2                !
 ! A31   A(2,10,9)             105.7843         estimate D2E/DX2                !
 ! A32   A(2,10,22)            109.3736         estimate D2E/DX2                !
 ! A33   A(2,10,23)            109.3894         estimate D2E/DX2                !
 ! A34   A(9,10,22)            111.922          estimate D2E/DX2                !
 ! A35   A(9,10,23)            111.9214         estimate D2E/DX2                !
 ! A36   A(22,10,23)           108.3925         estimate D2E/DX2                !
 ! A37   A(1,11,12)            121.5428         estimate D2E/DX2                !
 ! A38   A(1,11,24)            119.6032         estimate D2E/DX2                !
 ! A39   A(12,11,24)           118.854          estimate D2E/DX2                !
 ! A40   A(11,12,13)           120.1734         estimate D2E/DX2                !
 ! A41   A(11,12,25)           119.9692         estimate D2E/DX2                !
 ! A42   A(13,12,25)           119.8574         estimate D2E/DX2                !
 ! A43   A(12,13,14)           119.4791         estimate D2E/DX2                !
 ! A44   A(12,13,26)           120.2487         estimate D2E/DX2                !
 ! A45   A(14,13,26)           120.2721         estimate D2E/DX2                !
 ! A46   A(13,14,15)           120.2947         estimate D2E/DX2                !
 ! A47   A(13,14,27)           119.781          estimate D2E/DX2                !
 ! A48   A(15,14,27)           119.9242         estimate D2E/DX2                !
 ! A49   A(1,15,14)            121.493          estimate D2E/DX2                !
 ! A50   A(1,15,28)            120.1192         estimate D2E/DX2                !
 ! A51   A(14,15,28)           118.3878         estimate D2E/DX2                !
 ! D1    D(11,1,2,3)          -179.9694         estimate D2E/DX2                !
 ! D2    D(11,1,2,10)            0.1296         estimate D2E/DX2                !
 ! D3    D(15,1,2,3)             0.0599         estimate D2E/DX2                !
 ! D4    D(15,1,2,10)         -179.8411         estimate D2E/DX2                !
 ! D5    D(2,1,11,12)         -179.9779         estimate D2E/DX2                !
 ! D6    D(2,1,11,24)            0.0163         estimate D2E/DX2                !
 ! D7    D(15,1,11,12)          -0.0055         estimate D2E/DX2                !
 ! D8    D(15,1,11,24)         179.9888         estimate D2E/DX2                !
 ! D9    D(2,1,15,14)          179.977          estimate D2E/DX2                !
 ! D10   D(2,1,15,28)           -0.0048         estimate D2E/DX2                !
 ! D11   D(11,1,15,14)           0.0055         estimate D2E/DX2                !
 ! D12   D(11,1,15,28)        -179.9763         estimate D2E/DX2                !
 ! D13   D(1,2,3,4)              0.0435         estimate D2E/DX2                !
 ! D14   D(1,2,3,8)           -179.9008         estimate D2E/DX2                !
 ! D15   D(10,2,3,4)           179.9511         estimate D2E/DX2                !
 ! D16   D(10,2,3,8)             0.0068         estimate D2E/DX2                !
 ! D17   D(1,2,10,9)           179.9217         estimate D2E/DX2                !
 ! D18   D(1,2,10,22)           59.2139         estimate D2E/DX2                !
 ! D19   D(1,2,10,23)          -59.3626         estimate D2E/DX2                !
 ! D20   D(3,2,10,9)            -0.0001         estimate D2E/DX2                !
 ! D21   D(3,2,10,22)         -120.708          estimate D2E/DX2                !
 ! D22   D(3,2,10,23)          120.7155         estimate D2E/DX2                !
 ! D23   D(2,3,4,5)           -179.9199         estimate D2E/DX2                !
 ! D24   D(2,3,4,16)             0.0762         estimate D2E/DX2                !
 ! D25   D(8,3,4,5)              0.0205         estimate D2E/DX2                !
 ! D26   D(8,3,4,16)          -179.9834         estimate D2E/DX2                !
 ! D27   D(2,3,8,7)            179.9285         estimate D2E/DX2                !
 ! D28   D(2,3,8,9)             -0.0109         estimate D2E/DX2                !
 ! D29   D(4,3,8,7)             -0.0247         estimate D2E/DX2                !
 ! D30   D(4,3,8,9)           -179.9642         estimate D2E/DX2                !
 ! D31   D(3,4,5,6)             -0.0041         estimate D2E/DX2                !
 ! D32   D(3,4,5,17)           179.9787         estimate D2E/DX2                !
 ! D33   D(16,4,5,6)           179.9996         estimate D2E/DX2                !
 ! D34   D(16,4,5,17)           -0.0175         estimate D2E/DX2                !
 ! D35   D(4,5,6,7)             -0.009          estimate D2E/DX2                !
 ! D36   D(4,5,6,18)           179.9858         estimate D2E/DX2                !
 ! D37   D(17,5,6,7)          -179.9919         estimate D2E/DX2                !
 ! D38   D(17,5,6,18)            0.0029         estimate D2E/DX2                !
 ! D39   D(5,6,7,8)              0.005          estimate D2E/DX2                !
 ! D40   D(5,6,7,19)           179.9812         estimate D2E/DX2                !
 ! D41   D(18,6,7,8)          -179.9898         estimate D2E/DX2                !
 ! D42   D(18,6,7,19)           -0.0136         estimate D2E/DX2                !
 ! D43   D(6,7,8,3)              0.012          estimate D2E/DX2                !
 ! D44   D(6,7,8,9)            179.94           estimate D2E/DX2                !
 ! D45   D(19,7,8,3)          -179.9645         estimate D2E/DX2                !
 ! D46   D(19,7,8,9)            -0.0365         estimate D2E/DX2                !
 ! D47   D(3,8,9,10)             0.0105         estimate D2E/DX2                !
 ! D48   D(3,8,9,20)           120.8252         estimate D2E/DX2                !
 ! D49   D(3,8,9,21)          -120.8025         estimate D2E/DX2                !
 ! D50   D(7,8,9,10)          -179.924          estimate D2E/DX2                !
 ! D51   D(7,8,9,20)           -59.1093         estimate D2E/DX2                !
 ! D52   D(7,8,9,21)            59.263          estimate D2E/DX2                !
 ! D53   D(8,9,10,2)            -0.006          estimate D2E/DX2                !
 ! D54   D(8,9,10,22)          119.0298         estimate D2E/DX2                !
 ! D55   D(8,9,10,23)         -119.0606         estimate D2E/DX2                !
 ! D56   D(20,9,10,2)         -119.6255         estimate D2E/DX2                !
 ! D57   D(20,9,10,22)          -0.5897         estimate D2E/DX2                !
 ! D58   D(20,9,10,23)         121.32           estimate D2E/DX2                !
 ! D59   D(21,9,10,2)          119.606          estimate D2E/DX2                !
 ! D60   D(21,9,10,22)        -121.3581         estimate D2E/DX2                !
 ! D61   D(21,9,10,23)           0.5515         estimate D2E/DX2                !
 ! D62   D(1,11,12,13)           0.0017         estimate D2E/DX2                !
 ! D63   D(1,11,12,25)         179.9877         estimate D2E/DX2                !
 ! D64   D(24,11,12,13)       -179.9926         estimate D2E/DX2                !
 ! D65   D(24,11,12,25)         -0.0066         estimate D2E/DX2                !
 ! D66   D(11,12,13,14)          0.0023         estimate D2E/DX2                !
 ! D67   D(11,12,13,26)        179.9754         estimate D2E/DX2                !
 ! D68   D(25,12,13,14)       -179.9837         estimate D2E/DX2                !
 ! D69   D(25,12,13,26)         -0.0106         estimate D2E/DX2                !
 ! D70   D(12,13,14,15)         -0.0023         estimate D2E/DX2                !
 ! D71   D(12,13,14,27)        179.9877         estimate D2E/DX2                !
 ! D72   D(26,13,14,15)       -179.9754         estimate D2E/DX2                !
 ! D73   D(26,13,14,27)          0.0146         estimate D2E/DX2                !
 ! D74   D(13,14,15,1)          -0.0017         estimate D2E/DX2                !
 ! D75   D(13,14,15,28)        179.9804         estimate D2E/DX2                !
 ! D76   D(27,14,15,1)        -179.9917         estimate D2E/DX2                !
 ! D77   D(27,14,15,28)         -0.0097         estimate D2E/DX2                !
 --------------------------------------------------------------------------------
 Trust Radius=3.00D-01 FncErr=1.00D-07 GrdErr=1.00D-06 EigMax=2.50D+02 EigMin=1.00D-04
 Number of steps in this run=    168 maximum allowed number of steps=    168.
 GradGradGradGradGradGradGradGradGradGradGradGradGradGradGradGradGradGrad

                          Input orientation:                          
 ---------------------------------------------------------------------
 Center     Atomic      Atomic             Coordinates (Angstroms)
 Number     Number       Type             X           Y           Z
 ---------------------------------------------------------------------
      1          6           0        1.435400   -0.145200   -0.093020
      2          7           0        0.065290   -0.536750   -0.200040
      3          6           0       -1.154630    0.157880    0.087300
      4          6           0       -1.412090    1.441680    0.564190
      5          6           0       -2.713950    1.856900    0.753260
      6          6           0       -3.777640    1.015880    0.475980
      7          6           0       -3.546830   -0.260890    0.002130
      8          6           0       -2.247550   -0.681980   -0.189100
      9          6           0       -1.772530   -2.012110   -0.688140
     10          6           0       -0.242800   -1.903080   -0.690530
     11          6           0        2.447060   -1.042090   -0.449670
     12          6           0        3.777990   -0.699960   -0.359270
     13          6           0        4.143020    0.551540    0.091190
     14          6           0        3.165030    1.455870    0.449770
     15          6           0        1.834140    1.112520    0.358920
     16          1           0       -0.618060    2.122990    0.790740
     17          1           0       -2.906900    2.851100    1.122760
     18          1           0       -4.788340    1.357040    0.629890
     19          1           0       -4.362650   -0.927450   -0.218090
     20          1           0       -2.128230   -2.814650   -0.031000
     21          1           0       -2.174040   -2.208660   -1.689430
     22          1           0        0.220600   -2.640340   -0.026800
     23          1           0        0.174590   -2.031570   -1.694560
     24          1           0        2.186490   -2.023260   -0.803380
     25          1           0        4.537240   -1.411530   -0.640860
     26          1           0        5.184350    0.820460    0.162800
     27          1           0        3.444870    2.435350    0.802690
     28          1           0        1.101820    1.836650    0.645040
 ---------------------------------------------------------------------
                    Distance matrix (angstroms):
                    1          2          3          4          5
     1  C    0.000000
     2  N    1.428974   0.000000
     3  C    2.613930   1.432927   0.000000
     4  C    3.325404   2.584741   1.393504   0.000000
     5  C    4.684197   3.789791   2.400344   1.379491   0.000000
     6  C    5.371001   4.199497   2.787009   2.405185   1.384065
     7  C    4.984481   3.628275   2.430071   2.787790   2.396439
     8  C    3.723102   2.317421   1.405787   2.403200   2.747996
     9  C    3.759034   2.406764   2.385784   3.691465   4.234754
    10  C    2.502702   1.484034   2.384116   3.758854   4.725311
    11  C    1.398237   2.447552   3.834115   4.700007   6.040464
    12  C    2.422060   3.719695   5.026535   5.690020   7.065447
    13  C    2.801890   4.230493   5.312257   5.645824   7.011443
    14  C    2.418608   3.741814   4.525000   4.578572   5.900452
    15  C    1.394669   2.482208   3.149264   3.269326   4.625444
    16  H    3.184716   2.919388   2.155085   1.070510   2.113046
    17  H    5.414010   4.696940   3.375805   2.129066   1.078051
    18  H    6.443156   5.275694   3.864743   3.377950   2.137329
    19  H    5.851918   4.445180   3.400382   3.864006   3.378511
    20  H    4.453007   3.166849   3.130148   4.357000   4.772998
    21  H    4.453588   3.166728   3.129933   4.357104   4.773575
    22  H    2.775941   2.116418   3.119986   4.435970   5.426347
    23  H    2.777222   2.116607   3.120183   4.436549   5.427309
    24  H    2.143795   2.659553   4.088247   5.179366   6.441512
    25  H    3.394868   4.577980   5.949004   6.707271   8.075021
    26  H    3.879764   5.308338   6.373961   6.637774   7.987865
    27  H    3.391092   4.610901   5.182090   4.963298   6.186122
    28  H    2.140967   2.724258   2.867213   2.546033   3.817358
                    6          7          8          9         10
     6  C    0.000000
     7  C    1.381285   0.000000
     8  C    2.380386   1.379135   0.000000
     9  C    3.813708   2.586771   1.497976   0.000000
    10  C    4.730345   3.754088   2.400321   1.533612   0.000000
    11  C    6.621099   6.061445   4.715606   4.336213   2.834548
    12  C    7.792900   7.346862   6.027969   5.712982   4.209986
    13  C    7.943584   7.733160   6.514562   6.494104   5.086419
    14  C    6.956648   6.942385   5.854450   6.140132   4.918957
    15  C    5.613833   5.564925   4.492299   4.885460   3.809051
    16  H    3.362694   3.857782   3.388684   4.540808   4.306300
    17  H    2.131794   3.368947   3.826013   5.311964   5.743490
    18  H    1.077772   2.133806   3.359161   4.709935   5.747506
    19  H    2.144878   1.076272   2.129494   2.847131   4.260072
    20  H    4.201255   2.921509   2.141848   1.096552   2.195629
    21  H    4.202165   2.922283   2.141762   1.096551   2.195648
    22  H    5.441200   4.456024   3.154882   2.191942   1.094911
    23  H    5.442271   4.456796   3.155086   2.191925   1.094897
    24  H    6.814982   6.051921   4.673016   3.960713   2.434877
    25  H    8.733664   8.190824   6.838838   6.338464   4.805504
    26  H    8.969589   8.799354   7.590408   7.559480   6.131868
    27  H    7.367923   7.536211   6.565443   7.015963   5.886475
    28  H    4.950896   5.140326   4.272887   4.985199   4.192533
                   11         12         13         14         15
    11  C    0.000000
    12  C    1.377171   0.000000
    13  C    2.389240   1.379280   0.000000
    14  C    2.750323   2.382828   1.379441   0.000000
    15  C    2.381561   2.753077   2.391089   1.377465   0.000000
    16  H    4.577260   5.349470   5.062283   3.856563   2.687155
    17  H    6.803995   7.713248   7.486888   6.266412   5.107208
    18  H    7.698850   8.865196   8.983775   7.956023   6.632530
    19  H    6.814611   8.145042   8.638836   7.924154   6.549399
    20  H    4.924483   6.281967   7.118619   6.818144   5.592413
    21  H    4.924678   6.282688   7.120011   6.819870   5.593879
    22  H    2.773147   4.065788   5.058399   5.067122   4.103200
    23  H    2.773615   4.067023   5.060612   5.069824   4.105629
    24  H    1.075036   2.116891   3.355273   3.825215   3.362768
    25  H    2.131171   1.078001   2.131889   3.360717   3.831075
    26  H    3.367042   2.135903   1.077875   2.136294   3.368630
    27  H    3.828396   3.360251   2.131287   1.078074   2.131024
    28  H    3.360834   3.821638   3.347709   2.107121   1.068888
                   16         17         18         19         20
    16  H    0.000000
    17  H    2.424700   0.000000
    18  H    4.243087   2.452540   0.000000
    19  H    4.934053   4.265504   2.473697   0.000000
    20  H    5.228399   5.834228   4.991589   2.930727   0.000000
    21  H    5.228337   5.834952   4.992797   2.931954   1.766271
    22  H    4.905205   6.423290   6.442031   4.896607   2.355293
    23  H    4.905648   6.424433   6.443324   4.897509   2.946799
    24  H    5.253390   7.308353   7.882192   6.665928   4.454175
    25  H    6.412443   8.757602   9.810516   8.923066   6.838799
    26  H    5.979871   8.397223   9.998032   9.713160   8.168562
    27  H    4.074937   6.373404   8.305321   8.561997   7.701752
    28  H    1.749630   4.162591   5.909673   6.184309   5.703056
                   21         22         23         24         25
    21  H    0.000000
    22  H    2.947030   0.000000
    23  H    2.355303   1.775990   0.000000
    24  H    4.453502   2.201951   2.200457   0.000000
    25  H    6.839312   4.529948   4.530723   2.434472   0.000000
    26  H    8.170204   6.054081   6.056530   4.243514   2.458943
    27  H    7.703872   6.070140   6.073250   4.903283   4.251540
    28  H    5.704870   4.612088   4.614825   4.263019   4.899625
                   26         27         28
    26  H    0.000000
    27  H    2.458276   0.000000
    28  H    4.234649   2.423464   0.000000
 Stoichiometry    C14H13N
 Framework group  C1[X(C14H13N)]
 Deg. of freedom    78
 Full point group                 C1      NOp   1
 Largest Abelian subgroup         C1      NOp   1
 Largest concise Abelian subgroup C1      NOp   1
                         Standard orientation:                         
 ---------------------------------------------------------------------
 Center     Atomic      Atomic             Coordinates (Angstroms)
 Number     Number       Type             X           Y           Z
 ---------------------------------------------------------------------
      1          6           0       -1.439723    0.121398   -0.000906
      2          7           0       -0.078995    0.557730   -0.001517
      3          6           0        1.158505   -0.164677   -0.001786
      4          6           0        1.447919   -1.527795   -0.002329
      5          6           0        2.760499   -1.952207   -0.000807
      6          6           0        3.803643   -1.042547    0.001180
      7          6           0        3.541053    0.313549    0.001480
      8          6           0        2.230905    0.744274   -0.000116
      9          6           0        1.722745    2.153424    0.001107
     10          6           0        0.195284    2.016197    0.000266
     11          6           0       -2.473960    1.062365   -0.001414
     12          6           0       -3.796711    0.679054   -0.000401
     13          6           0       -4.130685   -0.659181    0.001192
     14          6           0       -3.129939   -1.608582    0.001809
     15          6           0       -1.807258   -1.223972    0.000793
     16          1           0        0.670554   -2.263794   -0.003852
     17          1           0        2.978204   -3.008047   -0.000888
     18          1           0        4.823140   -1.392141    0.002581
     19          1           0        4.340590    1.034033    0.003316
     20          1           0        2.088638    2.689513    0.884937
     21          1           0        2.089484    2.691221   -0.881333
     22          1           0       -0.256365    2.469628    0.888659
     23          1           0       -0.255580    2.471935   -0.887329
     24          1           0       -2.237740    2.111127   -0.002529
     25          1           0       -4.573856    1.426136   -0.000623
     26          1           0       -5.165572   -0.960549    0.002387
     27          1           0       -3.385464   -2.655935    0.003254
     28          1           0       -1.056717   -1.985030    0.001633
 ---------------------------------------------------------------------
 Rotational constants (GHZ):           1.4729736           0.3842916           0.3059436
 Standard basis: def2SVP (5D, 7F)
 There are   290 symmetry adapted cartesian basis functions of A   symmetry.
 There are   275 symmetry adapted basis functions of A   symmetry.
   275 basis functions,   466 primitive gaussians,   290 cartesian basis functions
    52 alpha electrons       52 beta electrons
       nuclear repulsion energy       904.7405770763 Hartrees.
 NAtoms=   28 NActive=   28 NUniq=   28 SFac= 1.00D+00 NAtFMM=   60 NAOKFM=F Big=F
 Integral buffers will be    131072 words long.
 Raffenetti 2 integral format.
 Two-electron integral symmetry is turned on.
 Nuclear repulsion after empirical dispersion term =      904.7221600677 Hartrees.
 One-electron integrals computed using PRISM.
   1 Symmetry operations used in ECPInt.
 ECPInt:  NShTT=    8385 NPrTT=   30369 LenC2=    7918 LenP2D=   21122.
 LDataN:  DoStor=T MaxTD1= 4 Len=   56
 NBasis=   275 RedAO= T EigKep=  2.24D-04  NBF=   275
 NBsUse=   275 1.00D-06 EigRej= -1.00D+00 NBFU=   275
 ExpMin= 1.22D-01 ExpMax= 1.71D+03 ExpMxC= 2.58D+02 IAcc=3 IRadAn=         5 AccDes= 0.00D+00
 Harris functional with IExCor= 4639 and IRadAn=       5 diagonalized for initial guess.
 HarFok:  IExCor= 4639 AccDes= 0.00D+00 IRadAn=         5 IDoV= 1 UseB2=F ITyADJ=14
 ICtDFT=  3500011 ScaDFX=  1.000000  1.000000  1.000000  1.000000
 FoFCou: FMM=F IPFlag=           0 FMFlag=      100000 FMFlg1=           0
         NFxFlg=           0 DoJE=T BraDBF=F KetDBF=T FulRan=T
         wScrn=  0.000000 ICntrl=       500 IOpCl=  0 I1Cent=   200000004 NGrid=           0
         NMat0=    1 NMatS0=      1 NMatT0=    0 NMatD0=    1 NMtDS0=    0 NMtDT0=    0
 Petite list used in FoFCou.
 Requested convergence on RMS density matrix=1.00D-08 within 128 cycles.
 Requested convergence on MAX density matrix=1.00D-06.
 Requested convergence on             energy=1.00D-06.
 No special actions if energy rises.
 Integral accuracy reduced to 1.0D-05 until final iterations.
 Initial convergence to 1.0D-05 achieved.  Increase integral accuracy.
 SCF Done:  E(RwB97XD) =  -595.445530557     A.U. after   15 cycles
            NFock= 15  Conv=0.66D-08     -V/T= 2.0108

 **********************************************************************

            Population analysis using the SCF Density.

 **********************************************************************

 Orbital symmetries:
       Occupied  (A) (A) (A) (A) (A) (A) (A) (A) (A) (A) (A) (A)
                 (A) (A) (A) (A) (A) (A) (A) (A) (A) (A) (A) (A)
                 (A) (A) (A) (A) (A) (A) (A) (A) (A) (A) (A) (A)
                 (A) (A) (A) (A) (A) (A) (A) (A) (A) (A) (A) (A)
                 (A) (A) (A) (A)
       Virtual   (A) (A) (A) (A) (A) (A) (A) (A) (A) (A) (A) (A)
                 (A) (A) (A) (A) (A) (A) (A) (A) (A) (A) (A) (A)
                 (A) (A) (A) (A) (A) (A) (A) (A) (A) (A) (A) (A)
                 (A) (A) (A) (A) (A) (A) (A) (A) (A) (A) (A) (A)
                 (A) (A) (A) (A) (A) (A) (A) (A) (A) (A) (A) (A)
                 (A) (A) (A) (A) (A) (A) (A) (A) (A) (A) (A) (A)
                 (A) (A) (A) (A) (A) (A) (A) (A) (A) (A) (A) (A)
                 (A) (A) (A) (A) (A) (A) (A) (A) (A) (A) (A) (A)
                 (A) (A) (A) (A) (A) (A) (A) (A) (A) (A) (A) (A)
                 (A) (A) (A) (A) (A) (A) (A) (A) (A) (A) (A) (A)
                 (A) (A) (A) (A) (A) (A) (A) (A) (A) (A) (A) (A)
                 (A) (A) (A) (A) (A) (A) (A) (A) (A) (A) (A) (A)
                 (A) (A) (A) (A) (A) (A) (A) (A) (A) (A) (A) (A)
                 (A) (A) (A) (A) (A) (A) (A) (A) (A) (A) (A) (A)
                 (A) (A) (A) (A) (A) (A) (A) (A) (A) (A) (A) (A)
                 (A) (A) (A) (A) (A) (A) (A) (A) (A) (A) (A) (A)
                 (A) (A) (A) (A) (A) (A) (A) (A) (A) (A) (A) (A)
                 (A) (A) (A) (A) (A) (A) (A) (A) (A) (A) (A) (A)
                 (A) (A) (A) (A) (A) (A) (A)
 The electronic state is 1-A.
 Alpha  occ. eigenvalues --  -14.47752 -10.34626 -10.34389 -10.33939 -10.30932
 Alpha  occ. eigenvalues --  -10.30023 -10.29682 -10.29627 -10.29616 -10.29571
 Alpha  occ. eigenvalues --  -10.29564 -10.29308 -10.29152 -10.28913 -10.28636
 Alpha  occ. eigenvalues --   -1.05428  -0.96191  -0.93937  -0.88896  -0.85129
 Alpha  occ. eigenvalues --   -0.84016  -0.82222  -0.81046  -0.72658  -0.72036
 Alpha  occ. eigenvalues --   -0.70017  -0.66983  -0.66663  -0.62780  -0.59227
 Alpha  occ. eigenvalues --   -0.57764  -0.57376  -0.55987  -0.53968  -0.53773
 Alpha  occ. eigenvalues --   -0.51538  -0.51187  -0.50218  -0.49099  -0.48004
 Alpha  occ. eigenvalues --   -0.47185  -0.46882  -0.45093  -0.44654  -0.43253
 Alpha  occ. eigenvalues --   -0.42668  -0.41106  -0.39674  -0.33586  -0.33168
 Alpha  occ. eigenvalues --   -0.32624  -0.25704
 Alpha virt. eigenvalues --    0.05655   0.06103   0.06920   0.10183   0.13730
 Alpha virt. eigenvalues --    0.14258   0.15608   0.17454   0.17841   0.18186
 Alpha virt. eigenvalues --    0.20525   0.20824   0.21702   0.23111   0.24128
 Alpha virt. eigenvalues --    0.24553   0.25217   0.25229   0.26971   0.27494
 Alpha virt. eigenvalues --    0.28516   0.32126   0.33710   0.34696   0.36092
 Alpha virt. eigenvalues --    0.37212   0.37402   0.39097   0.40198   0.41734
 Alpha virt. eigenvalues --    0.42491   0.42921   0.43547   0.46079   0.47425
 Alpha virt. eigenvalues --    0.49173   0.49317   0.50953   0.51744   0.52247
 Alpha virt. eigenvalues --    0.53739   0.54204   0.55364   0.56155   0.56796
 Alpha virt. eigenvalues --    0.56880   0.57220   0.58283   0.59139   0.60467
 Alpha virt. eigenvalues --    0.60637   0.62878   0.63425   0.64374   0.65743
 Alpha virt. eigenvalues --    0.66114   0.67955   0.69358   0.69638   0.71067
 Alpha virt. eigenvalues --    0.71675   0.71787   0.72745   0.72962   0.74730
 Alpha virt. eigenvalues --    0.74808   0.75994   0.76049   0.76472   0.77126
 Alpha virt. eigenvalues --    0.77235   0.78321   0.79047   0.79180   0.80374
 Alpha virt. eigenvalues --    0.81514   0.82769   0.83259   0.84332   0.85032
 Alpha virt. eigenvalues --    0.85550   0.87186   0.87281   0.89329   0.90610
 Alpha virt. eigenvalues --    0.92299   0.94323   0.95183   0.96727   0.99505
 Alpha virt. eigenvalues --    1.00749   1.04338   1.05425   1.08028   1.09198
 Alpha virt. eigenvalues --    1.15725   1.17617   1.20417   1.22777   1.25237
 Alpha virt. eigenvalues --    1.26526   1.29255   1.30299   1.32329   1.32945
 Alpha virt. eigenvalues --    1.33357   1.33585   1.35075   1.35111   1.37400
 Alpha virt. eigenvalues --    1.38600   1.38995   1.39595   1.41599   1.42736
 Alpha virt. eigenvalues --    1.44071   1.44498   1.47305   1.55669   1.58804
 Alpha virt. eigenvalues --    1.63347   1.63391   1.67066   1.74906   1.76289
 Alpha virt. eigenvalues --    1.76975   1.77857   1.78464   1.78894   1.79855
 Alpha virt. eigenvalues --    1.81903   1.82416   1.82626   1.83105   1.83731
 Alpha virt. eigenvalues --    1.84992   1.85187   1.86685   1.86936   1.87185
 Alpha virt. eigenvalues --    1.87634   1.88423   1.89085   1.89561   1.90387
 Alpha virt. eigenvalues --    1.90856   1.93395   1.94337   1.98288   1.98331
 Alpha virt. eigenvalues --    2.01423   2.02261   2.04231   2.04844   2.05358
 Alpha virt. eigenvalues --    2.07205   2.07726   2.08355   2.10024   2.12138
 Alpha virt. eigenvalues --    2.13733   2.16236   2.16430   2.18493   2.19382
 Alpha virt. eigenvalues --    2.23003   2.24191   2.24920   2.26370   2.26815
 Alpha virt. eigenvalues --    2.28890   2.29509   2.32792   2.34632   2.36428
 Alpha virt. eigenvalues --    2.38216   2.38353   2.40754   2.41053   2.41394
 Alpha virt. eigenvalues --    2.41687   2.44291   2.45337   2.46506   2.50480
 Alpha virt. eigenvalues --    2.51403   2.53954   2.58857   2.61902   2.62468
 Alpha virt. eigenvalues --    2.63134   2.70705   2.71792   2.71924   2.73016
 Alpha virt. eigenvalues --    2.74593   2.77613   2.81082   2.83208   2.83855
 Alpha virt. eigenvalues --    2.84644   2.84970   2.85407   2.87640   2.89320
 Alpha virt. eigenvalues --    2.92640   2.98181   2.99073   2.99342   3.01518
 Alpha virt. eigenvalues --    3.02721   3.05490   3.11558   3.12585   3.13038
 Alpha virt. eigenvalues --    3.20283   3.25900   3.28555   3.29441   3.38449
 Alpha virt. eigenvalues --    3.51497   3.76115   3.80703
          Condensed to atoms (all electrons):
               1          2          3          4          5          6
     1  C    5.042275   0.341505  -0.039308  -0.005327   0.000158  -0.000020
     2  N    0.341505   6.785790   0.333802  -0.064468   0.004868  -0.000084
     3  C   -0.039308   0.333802   4.977209   0.293321   0.097374  -0.143385
     4  C   -0.005327  -0.064468   0.293321   5.154432   0.309086   0.074464
     5  C    0.000158   0.004868   0.097374   0.309086   5.020304   0.305285
     6  C   -0.000020  -0.000084  -0.143385   0.074464   0.305285   5.054619
     7  C    0.000015   0.007035   0.057936  -0.125933   0.075112   0.307529
     8  C    0.006242  -0.066216   0.351575   0.051810  -0.144200   0.078715
     9  C    0.009201  -0.056992  -0.100205   0.016520   0.000646   0.011399
    10  C   -0.052634   0.351691  -0.070504   0.002672  -0.000208  -0.000778
    11  C    0.256709  -0.090150   0.004985   0.000044   0.000026  -0.000002
    12  C    0.115850   0.007451   0.000040  -0.000011  -0.000000   0.000000
    13  C   -0.167126  -0.000677  -0.000046  -0.000022   0.000001  -0.000000
    14  C    0.118251   0.006496   0.000330   0.000513  -0.000036   0.000001
    15  C    0.256744  -0.075976  -0.006489   0.000145   0.000377  -0.000023
    16  H    0.000548  -0.007876  -0.089594   0.474221  -0.069613   0.016207
    17  H   -0.000007  -0.000073   0.016587  -0.065002   0.451088  -0.072245
    18  H   -0.000000   0.000010  -0.001298   0.014591  -0.069012   0.451377
    19  H    0.000004  -0.000124   0.015408  -0.002232   0.014441  -0.069528
    20  H   -0.000183   0.002370   0.003161  -0.000554   0.000077  -0.000103
    21  H   -0.000182   0.002363   0.003159  -0.000555   0.000077  -0.000107
    22  H   -0.008475  -0.028041   0.004746  -0.000005   0.000002   0.000011
    23  H   -0.008513  -0.027949   0.004731  -0.000007   0.000002   0.000011
    24  H   -0.077346  -0.016964   0.000003   0.000003  -0.000000   0.000000
    25  H    0.015562  -0.000071   0.000004  -0.000000  -0.000000   0.000000
    26  H   -0.001283   0.000011  -0.000000   0.000000   0.000000   0.000000
    27  H    0.016588  -0.000082  -0.000020   0.000024  -0.000002   0.000000
    28  H   -0.084442  -0.012316   0.001666  -0.008300   0.001465  -0.000091
               7          8          9         10         11         12
     1  C    0.000015   0.006242   0.009201  -0.052634   0.256709   0.115850
     2  N    0.007035  -0.066216  -0.056992   0.351691  -0.090150   0.007451
     3  C    0.057936   0.351575  -0.100205  -0.070504   0.004985   0.000040
     4  C   -0.125933   0.051810   0.016520   0.002672   0.000044  -0.000011
     5  C    0.075112  -0.144200   0.000646  -0.000208   0.000026  -0.000000
     6  C    0.307529   0.078715   0.011399  -0.000778  -0.000002   0.000000
     7  C    5.018677   0.366873  -0.069706   0.011443   0.000005  -0.000000
     8  C    0.366873   5.285316   0.346649  -0.051838  -0.000633   0.000011
     9  C   -0.069706   0.346649   4.703331   0.379200   0.001884  -0.000057
    10  C    0.011443  -0.051838   0.379200   4.526727   0.004304   0.000212
    11  C    0.000005  -0.000633   0.001884   0.004304   5.202079   0.271781
    12  C   -0.000000   0.000011  -0.000057   0.000212   0.271781   5.054402
    13  C    0.000000  -0.000003   0.000005   0.000090   0.093244   0.276154
    14  C   -0.000001   0.000018  -0.000005  -0.000211  -0.154061   0.100251
    15  C    0.000007   0.000466  -0.000206   0.005613   0.081318  -0.155760
    16  H   -0.002319   0.016623  -0.000379  -0.000161  -0.000339   0.000036
    17  H    0.014559  -0.001976   0.000005   0.000009   0.000000  -0.000000
    18  H   -0.071228   0.015260  -0.000345   0.000015   0.000000   0.000000
    19  H    0.461638  -0.074551  -0.016736   0.000353   0.000000   0.000000
    20  H   -0.005245  -0.001947   0.352597  -0.005201  -0.000035   0.000001
    21  H   -0.005221  -0.001903   0.352502  -0.005184  -0.000035   0.000001
    22  H   -0.000325   0.000799  -0.013360   0.385660   0.004513   0.001031
    23  H   -0.000326   0.000789  -0.013369   0.385626   0.004471   0.001036
    24  H    0.000002  -0.000078   0.001198   0.009804   0.460317  -0.071788
    25  H    0.000000   0.000000  -0.000001  -0.000049  -0.070096   0.455509
    26  H   -0.000000   0.000000  -0.000000   0.000000   0.014836  -0.070408
    27  H    0.000000   0.000000  -0.000000   0.000005  -0.002252   0.014621
    28  H    0.000015   0.000189  -0.000062   0.000016   0.017245  -0.002594
              13         14         15         16         17         18
     1  C   -0.167126   0.118251   0.256744   0.000548  -0.000007  -0.000000
     2  N   -0.000677   0.006496  -0.075976  -0.007876  -0.000073   0.000010
     3  C   -0.000046   0.000330  -0.006489  -0.089594   0.016587  -0.001298
     4  C   -0.000022   0.000513   0.000145   0.474221  -0.065002   0.014591
     5  C    0.000001  -0.000036   0.000377  -0.069613   0.451088  -0.069012
     6  C   -0.000000   0.000001  -0.000023   0.016207  -0.072245   0.451377
     7  C    0.000000  -0.000001   0.000007  -0.002319   0.014559  -0.071228
     8  C   -0.000003   0.000018   0.000466   0.016623  -0.001976   0.015260
     9  C    0.000005  -0.000005  -0.000206  -0.000379   0.000005  -0.000345
    10  C    0.000090  -0.000211   0.005613  -0.000161   0.000009   0.000015
    11  C    0.093244  -0.154061   0.081318  -0.000339   0.000000   0.000000
    12  C    0.276154   0.100251  -0.155760   0.000036  -0.000000   0.000000
    13  C    5.109712   0.277601   0.090447  -0.000113   0.000000   0.000000
    14  C    0.277601   5.015609   0.306255   0.001521  -0.000001   0.000000
    15  C    0.090447   0.306255   5.159992  -0.008752   0.000008   0.000000
    16  H   -0.000113   0.001521  -0.008752   0.704240  -0.016121  -0.000274
    17  H    0.000000  -0.000001   0.000008  -0.016121   0.676249  -0.012312
    18  H    0.000000   0.000000   0.000000  -0.000274  -0.012312   0.679293
    19  H    0.000000   0.000000   0.000000   0.000023  -0.000253  -0.011960
    20  H   -0.000000  -0.000000   0.000007   0.000009  -0.000000   0.000006
    21  H   -0.000000  -0.000000   0.000007   0.000009  -0.000000   0.000006
    22  H   -0.000090   0.000036  -0.000310   0.000003  -0.000000  -0.000000
    23  H   -0.000090   0.000036  -0.000317   0.000003  -0.000000  -0.000000
    24  H    0.015873  -0.002434   0.016408  -0.000005  -0.000000   0.000000
    25  H   -0.071636   0.014560  -0.002140   0.000000  -0.000000   0.000000
    26  H    0.452489  -0.070076   0.014584   0.000001  -0.000000  -0.000000
    27  H   -0.073762   0.453260  -0.066222   0.000193  -0.000000  -0.000000
    28  H    0.017508  -0.069572   0.469010  -0.006760   0.000135   0.000001
              19         20         21         22         23         24
     1  C    0.000004  -0.000183  -0.000182  -0.008475  -0.008513  -0.077346
     2  N   -0.000124   0.002370   0.002363  -0.028041  -0.027949  -0.016964
     3  C    0.015408   0.003161   0.003159   0.004746   0.004731   0.000003
     4  C   -0.002232  -0.000554  -0.000555  -0.000005  -0.000007   0.000003
     5  C    0.014441   0.000077   0.000077   0.000002   0.000002  -0.000000
     6  C   -0.069528  -0.000103  -0.000107   0.000011   0.000011   0.000000
     7  C    0.461638  -0.005245  -0.005221  -0.000325  -0.000326   0.000002
     8  C   -0.074551  -0.001947  -0.001903   0.000799   0.000789  -0.000078
     9  C   -0.016736   0.352597   0.352502  -0.013360  -0.013369   0.001198
    10  C    0.000353  -0.005201  -0.005184   0.385660   0.385626   0.009804
    11  C    0.000000  -0.000035  -0.000035   0.004513   0.004471   0.460317
    12  C    0.000000   0.000001   0.000001   0.001031   0.001036  -0.071788
    13  C    0.000000  -0.000000  -0.000000  -0.000090  -0.000090   0.015873
    14  C    0.000000  -0.000000  -0.000000   0.000036   0.000036  -0.002434
    15  C    0.000000   0.000007   0.000007  -0.000310  -0.000317   0.016408
    16  H    0.000023   0.000009   0.000009   0.000003   0.000003  -0.000005
    17  H   -0.000253  -0.000000  -0.000000  -0.000000  -0.000000  -0.000000
    18  H   -0.011960   0.000006   0.000006  -0.000000  -0.000000   0.000000
    19  H    0.686212   0.002320   0.002320  -0.000008  -0.000008   0.000000
    20  H    0.002320   0.638104  -0.022264  -0.015801   0.005191   0.000006
    21  H    0.002320  -0.022264   0.638126   0.005192  -0.015800   0.000006
    22  H   -0.000008  -0.015801   0.005192   0.664472  -0.043058  -0.002140
    23  H   -0.000008   0.005191  -0.015800  -0.043058   0.664492  -0.002135
    24  H    0.000000   0.000006   0.000006  -0.002140  -0.002135   0.688625
    25  H   -0.000000  -0.000000  -0.000000   0.000019   0.000019  -0.014315
    26  H    0.000000  -0.000000  -0.000000   0.000000   0.000000  -0.000267
    27  H    0.000000   0.000000   0.000000  -0.000000  -0.000000   0.000019
    28  H   -0.000000   0.000001   0.000001  -0.000014  -0.000014  -0.000147
              25         26         27         28
     1  C    0.015562  -0.001283   0.016588  -0.084442
     2  N   -0.000071   0.000011  -0.000082  -0.012316
     3  C    0.000004  -0.000000  -0.000020   0.001666
     4  C   -0.000000   0.000000   0.000024  -0.008300
     5  C   -0.000000   0.000000  -0.000002   0.001465
     6  C    0.000000   0.000000   0.000000  -0.000091
     7  C    0.000000  -0.000000   0.000000   0.000015
     8  C    0.000000   0.000000   0.000000   0.000189
     9  C   -0.000001  -0.000000  -0.000000  -0.000062
    10  C   -0.000049   0.000000   0.000005   0.000016
    11  C   -0.070096   0.014836  -0.002252   0.017245
    12  C    0.455509  -0.070408   0.014621  -0.002594
    13  C   -0.071636   0.452489  -0.073762   0.017508
    14  C    0.014560  -0.070076   0.453260  -0.069572
    15  C   -0.002140   0.014584  -0.066222   0.469010
    16  H    0.000000   0.000001   0.000193  -0.006760
    17  H   -0.000000  -0.000000  -0.000000   0.000135
    18  H    0.000000  -0.000000  -0.000000   0.000001
    19  H   -0.000000   0.000000   0.000000  -0.000000
    20  H   -0.000000  -0.000000   0.000000   0.000001
    21  H   -0.000000  -0.000000   0.000000   0.000001
    22  H    0.000019   0.000000  -0.000000  -0.000014
    23  H    0.000019   0.000000  -0.000000  -0.000014
    24  H   -0.014315  -0.000267   0.000019  -0.000147
    25  H    0.675739  -0.012432  -0.000278   0.000018
    26  H   -0.012432   0.679469  -0.012227  -0.000306
    27  H   -0.000278  -0.012227   0.679221  -0.017309
    28  H    0.000018  -0.000306  -0.017309   0.720016
 Mulliken charges:
               1
     1  C    0.265194
     2  N   -0.395336
     3  C    0.284813
     4  C   -0.119432
     5  C    0.002683
     6  C   -0.013252
     7  C   -0.040544
     8  C   -0.177990
     9  C    0.096285
    10  C    0.123326
    11  C   -0.100158
    12  C    0.002232
    13  C   -0.019559
    14  C    0.001661
    15  C   -0.085193
    16  H   -0.011333
    17  H    0.009351
    18  H    0.005871
    19  H   -0.007320
    20  H    0.047481
    21  H    0.047481
    22  H    0.045142
    23  H    0.045177
    24  H   -0.004644
    25  H    0.009588
    26  H    0.005609
    27  H    0.008223
    28  H   -0.025357
 Sum of Mulliken charges =  -0.00000
 Mulliken charges with hydrogens summed into heavy atoms:
               1
     1  C    0.265194
     2  N   -0.395336
     3  C    0.284813
     4  C   -0.130765
     5  C    0.012034
     6  C   -0.007380
     7  C   -0.047864
     8  C   -0.177990
     9  C    0.191247
    10  C    0.213646
    11  C   -0.104802
    12  C    0.011821
    13  C   -0.013949
    14  C    0.009883
    15  C   -0.110551
 Electronic spatial extent (au):  <R**2>=           3481.4360
 Charge=             -0.0000 electrons
 Dipole moment (field-independent basis, Debye):
    X=              0.4018    Y=              1.2481    Z=              0.0038  Tot=              1.3112
 Quadrupole moment (field-independent basis, Debye-Ang):
   XX=            -82.6073   YY=            -76.9289   ZZ=            -93.4701
   XY=              1.3046   XZ=              0.0062   YZ=             -0.0019
 Traceless Quadrupole moment (field-independent basis, Debye-Ang):
   XX=              1.7281   YY=              7.4065   ZZ=             -9.1346
   XY=              1.3046   XZ=              0.0062   YZ=             -0.0019
 Octapole moment (field-independent basis, Debye-Ang**2):
  XXX=             -0.2083  YYY=             -0.1771  ZZZ=              0.0093  XYY=              0.8398
  XXY=              3.2262  XXZ=              0.0866  XZZ=              2.6163  YZZ=              7.3808
  YYZ=              0.0028  XYZ=              0.0296
 Hexadecapole moment (field-independent basis, Debye-Ang**3):
 XXXX=          -3402.4607 YYYY=           -994.0228 ZZZZ=           -113.9008 XXXY=              1.6068
 XXXZ=              0.1272 YYYX=             -0.1167 YYYZ=             -0.0455 ZZZX=              0.0200
 ZZZY=              0.0133 XXYY=           -722.1572 XXZZ=           -697.3103 YYZZ=           -201.7100
 XXYZ=             -0.0880 YYXZ=             -0.0189 ZZXY=              7.4389
 N-N= 9.047221600677D+02 E-N=-3.187252374268D+03  KE= 5.890705471142D+02
   1 Symmetry operations used in ECPInt.
 ECPInt:  NShTT=    8385 NPrTT=   30369 LenC2=    7918 LenP2D=   21122.
 LDataN:  DoStor=T MaxTD1= 5 Len=  102
 Calling FoFJK, ICntrl=      2127 FMM=F ISym2X=0 I1Cent= 0 IOpClX= 0 NMat=1 NMatS=1 NMatT=0.
 ***** Axes restored to original set *****
 -------------------------------------------------------------------
 Center     Atomic                   Forces (Hartrees/Bohr)
 Number     Number              X              Y              Z
 -------------------------------------------------------------------
      1        6          -0.033017806   -0.004412759   -0.000718115
      2        7           0.004689838    0.005472312    0.001854408
      3        6           0.016454331   -0.015630765   -0.006079744
      4        6           0.014197348   -0.004468750   -0.002059757
      5        6          -0.008725874   -0.003168797   -0.000915197
      6        6          -0.004435880    0.007016255    0.002682123
      7        6           0.008477773   -0.003461355   -0.001519023
      8        6           0.008571745   -0.000727955   -0.000443392
      9        6          -0.001485033   -0.000873452   -0.000309562
     10        6          -0.002220457    0.016426353    0.006057406
     11        6          -0.008375296   -0.006724946   -0.002255145
     12        6           0.000923524    0.002160157    0.000778020
     13        6           0.009298850    0.001896025    0.000468823
     14        6           0.001311459   -0.001573358   -0.000619901
     15        6          -0.006960936    0.002489884    0.001090085
     16        1           0.007352868    0.008055377    0.002727353
     17        1          -0.000586448    0.009406772    0.003448014
     18        1          -0.009569193    0.003536743    0.001568298
     19        1          -0.009343299   -0.007000104   -0.002301618
     20        1           0.000168547   -0.003272863    0.000654832
     21        1           0.000086924   -0.002090134   -0.002624986
     22        1           0.001961041   -0.004091085    0.001679009
     23        1           0.001796264   -0.002004116   -0.004016556
     24        1          -0.000706768   -0.009610654   -0.003521092
     25        1           0.006155455   -0.007586920   -0.002959033
     26        1           0.009903976    0.002557010    0.000662454
     27        1           0.001178003    0.009461976    0.003449037
     28        1          -0.007100957    0.008219149    0.003223258
 -------------------------------------------------------------------
 Cartesian Forces:  Max     0.033017806 RMS     0.006856351

 GradGradGradGradGradGradGradGradGradGradGradGradGradGradGradGradGradGrad
 Berny optimization.
 FormGI is forming the generalized inverse of G from B-inverse, IUseBI=4.
 Internal  Forces:  Max     0.027150816 RMS     0.005357582
 Search for a local minimum.
 Step number   1 out of a maximum of  168
 All quantities printed in internal units (Hartrees-Bohrs-Radians)
 Mixed Optimization -- RFO/linear search
 Second derivative matrix not updated -- first step.
 ITU=  0
     Eigenvalues ---    0.00507   0.00995   0.01309   0.01420   0.01551
     Eigenvalues ---    0.01841   0.01882   0.02167   0.02245   0.02254
     Eigenvalues ---    0.02273   0.02296   0.02316   0.02330   0.02332
     Eigenvalues ---    0.02337   0.02351   0.02362   0.02369   0.02375
     Eigenvalues ---    0.02378   0.04001   0.04006   0.05545   0.05868
     Eigenvalues ---    0.08320   0.08465   0.08543   0.10764   0.16000
     Eigenvalues ---    0.16000   0.16000   0.16000   0.16000   0.16000
     Eigenvalues ---    0.16000   0.16000   0.16000   0.22000   0.22000
     Eigenvalues ---    0.22000   0.22508   0.22844   0.23459   0.24466
     Eigenvalues ---    0.24830   0.25000   0.25000   0.28460   0.31405
     Eigenvalues ---    0.33429   0.34066   0.34066   0.34251   0.34253
     Eigenvalues ---    0.36228   0.36231   0.36237   0.36252   0.36265
     Eigenvalues ---    0.36449   0.36601   0.37166   0.37371   0.38910
     Eigenvalues ---    0.40471   0.41137   0.42966   0.43606   0.43623
     Eigenvalues ---    0.46341   0.47196   0.47734   0.48112   0.48776
     Eigenvalues ---    0.49229   0.49302   0.49597
 RFO step:  Lambda=-1.11309448D-02 EMin= 5.06551674D-03
 Linear search not attempted -- first point.
 Iteration  1 RMS(Cart)=  0.03276379 RMS(Int)=  0.00014178
 Iteration  2 RMS(Cart)=  0.00027554 RMS(Int)=  0.00003934
 Iteration  3 RMS(Cart)=  0.00000005 RMS(Int)=  0.00003934
 Variable       Old X    -DE/DX   Delta X   Delta X   Delta X     New X
                                 (Linear)    (Quad)   (Total)
    R1        2.70037  -0.02715   0.00000  -0.06426  -0.06426   2.63611
    R2        2.64229   0.01092   0.00000   0.02293   0.02292   2.66521
    R3        2.63554   0.01186   0.00000   0.02466   0.02465   2.66020
    R4        2.70784  -0.02281   0.00000  -0.05702  -0.05701   2.65083
    R5        2.80442  -0.00807   0.00000  -0.02472  -0.02468   2.77974
    R6        2.63334   0.00618   0.00000   0.01225   0.01225   2.64559
    R7        2.65655   0.00093   0.00000   0.00073   0.00067   2.65722
    R8        2.60686   0.01732   0.00000   0.03497   0.03499   2.64185
    R9        2.02297   0.01116   0.00000   0.02915   0.02915   2.05212
   R10        2.61550   0.00805   0.00000   0.01746   0.01748   2.63299
   R11        2.03722   0.00996   0.00000   0.02668   0.02668   2.06390
   R12        2.61025   0.01541   0.00000   0.03149   0.03149   2.64174
   R13        2.03669   0.01032   0.00000   0.02760   0.02760   2.06430
   R14        2.60619   0.00782   0.00000   0.01498   0.01496   2.62115
   R15        2.03386   0.01189   0.00000   0.03165   0.03165   2.06551
   R16        2.83076   0.00258   0.00000   0.01048   0.01046   2.84122
   R17        2.89811  -0.00060   0.00000  -0.00004  -0.00002   2.89809
   R18        2.07218   0.00273   0.00000   0.00777   0.00777   2.07995
   R19        2.07218   0.00274   0.00000   0.00779   0.00779   2.07997
   R20        2.06908   0.00460   0.00000   0.01301   0.01301   2.08209
   R21        2.06906   0.00460   0.00000   0.01301   0.01301   2.08207
   R22        2.60248   0.01506   0.00000   0.02965   0.02965   2.63213
   R23        2.03152   0.01010   0.00000   0.02679   0.02679   2.05831
   R24        2.60646   0.01371   0.00000   0.02747   0.02748   2.63394
   R25        2.03713   0.01012   0.00000   0.02709   0.02709   2.06421
   R26        2.60677   0.01431   0.00000   0.02871   0.02872   2.63548
   R27        2.03689   0.01025   0.00000   0.02743   0.02743   2.06432
   R28        2.60303   0.01458   0.00000   0.02879   0.02879   2.63182
   R29        2.03727   0.01003   0.00000   0.02686   0.02686   2.06413
   R30        2.01991   0.01130   0.00000   0.02935   0.02935   2.04926
    A1        2.09308  -0.00370   0.00000  -0.01376  -0.01376   2.07932
    A2        2.14778   0.00066   0.00000   0.00293   0.00294   2.15072
    A3        2.04233   0.00304   0.00000   0.01083   0.01082   2.05315
    A4        2.30289  -0.00672   0.00000  -0.02236  -0.02237   2.28053
    A5        2.06699   0.00187   0.00000   0.01054   0.01053   2.07752
    A6        1.91330   0.00484   0.00000   0.01182   0.01184   1.92514
    A7        2.30840  -0.00532   0.00000  -0.01639  -0.01634   2.29206
    A8        1.91011   0.00143   0.00000   0.00283   0.00280   1.91290
    A9        2.06468   0.00388   0.00000   0.01356   0.01355   2.07823
   A10        2.09274  -0.00293   0.00000  -0.01281  -0.01280   2.07993
   A11        2.11966   0.00286   0.00000   0.01454   0.01454   2.13420
   A12        2.07079   0.00007   0.00000  -0.00173  -0.00174   2.06906
   A13        2.11171   0.00120   0.00000   0.00898   0.00902   2.12073
   A14        2.08687  -0.00184   0.00000  -0.01174  -0.01176   2.07511
   A15        2.08460   0.00064   0.00000   0.00276   0.00274   2.08735
   A16        2.09668  -0.00423   0.00000  -0.01428  -0.01427   2.08241
   A17        2.09410   0.00180   0.00000   0.00531   0.00530   2.09940
   A18        2.09241   0.00243   0.00000   0.00897   0.00897   2.10138
   A19        2.07970   0.00163   0.00000   0.00732   0.00729   2.08698
   A20        2.11296  -0.00133   0.00000  -0.00669  -0.00668   2.10629
   A21        2.09053  -0.00029   0.00000  -0.00063  -0.00061   2.08991
   A22        2.12087   0.00045   0.00000  -0.00277  -0.00278   2.11809
   A23        1.92779  -0.00128   0.00000  -0.00080  -0.00085   1.92694
   A24        2.23452   0.00083   0.00000   0.00357   0.00363   2.23816
   A25        1.82730  -0.00612   0.00000  -0.02055  -0.02053   1.80677
   A26        1.92555   0.00301   0.00000   0.01767   0.01753   1.94309
   A27        1.92543   0.00302   0.00000   0.01773   0.01759   1.94302
   A28        1.95684   0.00073   0.00000  -0.00489  -0.00479   1.95205
   A29        1.95687   0.00072   0.00000  -0.00511  -0.00500   1.95186
   A30        1.87262  -0.00117   0.00000  -0.00369  -0.00393   1.86869
   A31        1.84629   0.00113   0.00000   0.00671   0.00674   1.85302
   A32        1.90893   0.00026   0.00000   0.00681   0.00680   1.91573
   A33        1.90920   0.00026   0.00000   0.00673   0.00673   1.91593
   A34        1.95341  -0.00055   0.00000  -0.00414  -0.00421   1.94920
   A35        1.95340  -0.00055   0.00000  -0.00425  -0.00432   1.94908
   A36        1.89181  -0.00048   0.00000  -0.01076  -0.01081   1.88100
   A37        2.12132  -0.00229   0.00000  -0.01031  -0.01032   2.11101
   A38        2.08747   0.00297   0.00000   0.01581   0.01581   2.10328
   A39        2.07439  -0.00068   0.00000  -0.00550  -0.00550   2.06890
   A40        2.09742   0.00276   0.00000   0.01267   0.01268   2.11010
   A41        2.09386  -0.00278   0.00000  -0.01448  -0.01448   2.07938
   A42        2.09191   0.00001   0.00000   0.00181   0.00180   2.09371
   A43        2.08530  -0.00384   0.00000  -0.01524  -0.01523   2.07007
   A44        2.09874   0.00191   0.00000   0.00757   0.00756   2.10630
   A45        2.09914   0.00193   0.00000   0.00768   0.00767   2.10681
   A46        2.09954   0.00279   0.00000   0.01295   0.01296   2.11250
   A47        2.09057   0.00011   0.00000   0.00231   0.00230   2.09288
   A48        2.09307  -0.00290   0.00000  -0.01526  -0.01526   2.07781
   A49        2.12045  -0.00247   0.00000  -0.01090  -0.01091   2.10955
   A50        2.09648   0.00212   0.00000   0.01062   0.01063   2.10710
   A51        2.06626   0.00035   0.00000   0.00028   0.00028   2.06654
    D1       -3.14106   0.00002   0.00000   0.00078   0.00078  -3.14028
    D2        0.00226   0.00001   0.00000   0.00051   0.00051   0.00277
    D3        0.00105   0.00001   0.00000   0.00050   0.00050   0.00154
    D4       -3.13882   0.00000   0.00000   0.00023   0.00023  -3.13859
    D5       -3.14121  -0.00001   0.00000  -0.00027  -0.00027  -3.14147
    D6        0.00029  -0.00000   0.00000  -0.00006  -0.00006   0.00023
    D7       -0.00010  -0.00000   0.00000  -0.00000  -0.00000  -0.00010
    D8        3.14140   0.00001   0.00000   0.00021   0.00021  -3.14158
    D9        3.14119   0.00001   0.00000   0.00028   0.00028   3.14147
   D10       -0.00008   0.00001   0.00000   0.00029   0.00029   0.00021
   D11        0.00010   0.00000   0.00000   0.00001   0.00001   0.00010
   D12       -3.14118   0.00000   0.00000   0.00002   0.00002  -3.14116
   D13        0.00076   0.00002   0.00000   0.00073   0.00073   0.00149
   D14       -3.13986  -0.00001   0.00000  -0.00020  -0.00019  -3.14005
   D15        3.14074   0.00003   0.00000   0.00099   0.00098  -3.14147
   D16        0.00012  -0.00000   0.00000   0.00006   0.00006   0.00018
   D17        3.14023   0.00000   0.00000   0.00012   0.00012   3.14035
   D18        1.03348  -0.00014   0.00000  -0.00249  -0.00250   1.03097
   D19       -1.03607   0.00014   0.00000   0.00256   0.00258  -1.03349
   D20       -0.00000   0.00000   0.00000  -0.00006  -0.00006  -0.00006
   D21       -2.10675  -0.00014   0.00000  -0.00267  -0.00269  -2.10944
   D22        2.10688   0.00014   0.00000   0.00238   0.00240   2.10928
   D23       -3.14020  -0.00003   0.00000  -0.00091  -0.00091  -3.14110
   D24        0.00133  -0.00002   0.00000  -0.00050  -0.00050   0.00083
   D25        0.00036   0.00000   0.00000   0.00007   0.00008   0.00044
   D26       -3.14130   0.00002   0.00000   0.00048   0.00049  -3.14082
   D27        3.14034   0.00002   0.00000   0.00060   0.00061   3.14095
   D28       -0.00019  -0.00000   0.00000  -0.00003  -0.00003  -0.00022
   D29       -0.00043  -0.00000   0.00000  -0.00016  -0.00017  -0.00060
   D30       -3.14097  -0.00002   0.00000  -0.00079  -0.00080   3.14142
   D31       -0.00007   0.00000   0.00000   0.00004   0.00004  -0.00003
   D32        3.14122   0.00001   0.00000   0.00030   0.00029   3.14152
   D33        3.14159  -0.00001   0.00000  -0.00036  -0.00035   3.14123
   D34       -0.00031  -0.00000   0.00000  -0.00010  -0.00010  -0.00041
   D35       -0.00016  -0.00000   0.00000  -0.00007  -0.00007  -0.00023
   D36        3.14134   0.00000   0.00000   0.00015   0.00015   3.14149
   D37       -3.14145  -0.00001   0.00000  -0.00032  -0.00032   3.14141
   D38        0.00005  -0.00000   0.00000  -0.00010  -0.00010  -0.00005
   D39        0.00009  -0.00000   0.00000  -0.00001  -0.00002   0.00007
   D40        3.14127   0.00001   0.00000   0.00044   0.00044  -3.14148
   D41       -3.14141  -0.00001   0.00000  -0.00023  -0.00023   3.14154
   D42       -0.00024   0.00001   0.00000   0.00022   0.00022  -0.00002
   D43        0.00021   0.00000   0.00000   0.00013   0.00013   0.00034
   D44        3.14055   0.00002   0.00000   0.00088   0.00088   3.14143
   D45       -3.14097  -0.00001   0.00000  -0.00032  -0.00032  -3.14129
   D46       -0.00064   0.00001   0.00000   0.00043   0.00044  -0.00020
   D47        0.00018   0.00000   0.00000  -0.00001  -0.00001   0.00017
   D48        2.10880  -0.00114   0.00000  -0.00861  -0.00876   2.10004
   D49       -2.10840   0.00116   0.00000   0.00881   0.00896  -2.09944
   D50       -3.14027  -0.00002   0.00000  -0.00069  -0.00070  -3.14096
   D51       -1.03165  -0.00116   0.00000  -0.00929  -0.00944  -1.04110
   D52        1.03433   0.00114   0.00000   0.00813   0.00828   1.04261
   D53       -0.00011  -0.00000   0.00000   0.00004   0.00004  -0.00006
   D54        2.07746   0.00071   0.00000   0.01015   0.01013   2.08759
   D55       -2.07800  -0.00071   0.00000  -0.00991  -0.00990  -2.08789
   D56       -2.08786  -0.00024   0.00000  -0.00595  -0.00596  -2.09382
   D57       -0.01029   0.00048   0.00000   0.00416   0.00412  -0.00617
   D58        2.11743  -0.00095   0.00000  -0.01590  -0.01590   2.10153
   D59        2.08752   0.00024   0.00000   0.00598   0.00600   2.09352
   D60       -2.11810   0.00095   0.00000   0.01609   0.01609  -2.10201
   D61        0.00963  -0.00047   0.00000  -0.00397  -0.00393   0.00569
   D62        0.00003  -0.00000   0.00000  -0.00001  -0.00001   0.00002
   D63        3.14138   0.00001   0.00000   0.00022   0.00022  -3.14159
   D64       -3.14146  -0.00001   0.00000  -0.00022  -0.00022   3.14151
   D65       -0.00012   0.00000   0.00000   0.00001   0.00001  -0.00010
   D66        0.00004   0.00000   0.00000   0.00001   0.00001   0.00005
   D67        3.14116   0.00001   0.00000   0.00029   0.00029   3.14146
   D68       -3.14131  -0.00001   0.00000  -0.00021  -0.00021  -3.14152
   D69       -0.00018   0.00000   0.00000   0.00007   0.00007  -0.00012
   D70       -0.00004  -0.00000   0.00000  -0.00001  -0.00001  -0.00005
   D71        3.14138   0.00000   0.00000   0.00007   0.00007   3.14145
   D72       -3.14116  -0.00001   0.00000  -0.00029  -0.00029  -3.14145
   D73        0.00026  -0.00001   0.00000  -0.00021  -0.00021   0.00005
   D74       -0.00003  -0.00000   0.00000  -0.00000  -0.00000  -0.00003
   D75        3.14125  -0.00000   0.00000  -0.00001  -0.00001   3.14124
   D76       -3.14145  -0.00000   0.00000  -0.00008  -0.00008  -3.14153
   D77       -0.00017  -0.00000   0.00000  -0.00009  -0.00009  -0.00026
         Item               Value     Threshold  Converged?
 Maximum Force            0.027151     0.000450     NO 
 RMS     Force            0.005358     0.000300     NO 
 Maximum Displacement     0.142361     0.001800     NO 
 RMS     Displacement     0.032895     0.001200     NO 
 Predicted change in Energy=-5.732418D-03
 GradGradGradGradGradGradGradGradGradGradGradGradGradGradGradGradGradGrad

                          Input orientation:                          
 ---------------------------------------------------------------------
 Center     Atomic      Atomic             Coordinates (Angstroms)
 Number     Number       Type             X           Y           Z
 ---------------------------------------------------------------------
      1          6           0        1.391544   -0.151715   -0.093554
      2          7           0        0.060141   -0.552823   -0.204974
      3          6           0       -1.128694    0.135361    0.079282
      4          6           0       -1.354781    1.431061    0.558877
      5          6           0       -2.669064    1.865568    0.754565
      6          6           0       -3.757340    1.038908    0.483232
      7          6           0       -3.531432   -0.254773    0.004045
      8          6           0       -2.230756   -0.694330   -0.193298
      9          6           0       -1.767190   -2.033483   -0.695605
     10          6           0       -0.238713   -1.908252   -0.692066
     11          6           0        2.413229   -1.054757   -0.453849
     12          6           0        3.755079   -0.693923   -0.357388
     13          6           0        4.125380    0.570241    0.098139
     14          6           0        3.122802    1.470798    0.457097
     15          6           0        1.777643    1.121935    0.365143
     16          1           0       -0.542726    2.115457    0.785650
     17          1           0       -2.840238    2.877188    1.128938
     18          1           0       -4.776143    1.398966    0.643513
     19          1           0       -4.368632   -0.922049   -0.216252
     20          1           0       -2.112875   -2.848131   -0.041150
     21          1           0       -2.158624   -2.240443   -1.703289
     22          1           0        0.229251   -2.653863   -0.029473
     23          1           0        0.182962   -2.043198   -1.700981
     24          1           0        2.167336   -2.052586   -0.814755
     25          1           0        4.522184   -1.416680   -0.644384
     26          1           0        5.178867    0.849444    0.172501
     27          1           0        3.388920    2.467173    0.816974
     28          1           0        1.033519    1.855245    0.655835
 ---------------------------------------------------------------------
                    Distance matrix (angstroms):
                    1          2          3          4          5
     1  C    0.000000
     2  N    1.394968   0.000000
     3  C    2.542416   1.402756   0.000000
     4  C    3.236224   2.553677   1.399988   0.000000
     5  C    4.612729   3.770661   2.412957   1.398009   0.000000
     6  C    5.316132   4.192898   2.808799   2.435528   1.393317
     7  C    4.925021   3.609974   2.435367   2.808502   2.408900
     8  C    3.664074   2.295293   1.406139   2.418757   2.764712
     9  C    3.725737   2.402543   2.389982   3.707678   4.256638
    10  C    2.470097   1.470973   2.358686   3.736506   4.716043
    11  C    1.410368   2.418864   3.774364   4.626316   5.984836
    12  C    2.439241   3.700771   4.972889   5.609435   7.004073
    13  C    2.834048   4.228395   5.272074   5.566458   6.947894
    14  C    2.435779   3.730050   4.472287   4.478916   5.812920
    15  C    1.407715   2.465697   3.082506   3.153597   4.525245
    16  H    3.107164   2.909381   2.182451   1.085936   2.141197
    17  H    5.345719   4.685775   3.398349   2.150078   1.092169
    18  H    6.402205   5.283848   3.901146   3.422559   2.160979
    19  H    5.812752   4.444151   3.420914   3.901442   3.406144
    20  H    4.422030   3.165008   3.143937   4.387052   4.812636
    21  H    4.422411   3.164794   3.143685   4.386741   4.812579
    22  H    2.759669   2.115129   3.104128   4.420624   5.425882
    23  H    2.760833   2.115264   3.104174   4.420643   5.426067
    24  H    2.176073   2.657329   4.055888   5.140814   6.419148
    25  H    3.421178   4.566088   5.904654   6.640496   8.027718
    26  H    3.926439   5.320733   6.348537   6.570853   7.934817
    27  H    3.417185   4.609287   5.137156   4.862391   6.088103
    28  H    2.172017   2.736284   2.822336   2.427614   3.703914
                    6          7          8          9         10
     6  C    0.000000
     7  C    1.397950   0.000000
     8  C    2.406712   1.387051   0.000000
     9  C    3.845769   2.601128   1.503509   0.000000
    10  C    4.737912   3.749741   2.385501   1.533603   0.000000
    11  C    6.583120   6.015699   4.665233   4.300263   2.796069
    12  C    7.755371   7.308674   5.988084   5.692475   4.187718
    13  C    7.906024   7.701705   6.487260   6.490901   5.080617
    14  C    6.893734   6.889243   5.811315   6.125417   4.902891
    15  C    5.536865   5.496544   4.435983   4.862890   3.790175
    16  H    3.403550   3.893746   3.420919   4.572432   4.297244
    17  H    2.153436   3.398869   3.856879   5.347437   5.743207
    18  H    1.092379   2.166351   3.400166   4.756967   5.771458
    19  H    2.169864   1.093020   2.150091   2.869244   4.272613
    20  H    4.253036   2.956324   2.162384   1.100663   2.195346
    21  H    4.253340   2.956767   2.162346   1.100672   2.195217
    22  H    5.458235   4.460885   3.149325   2.194170   1.101797
    23  H    5.458584   4.461199   3.149379   2.194076   1.101785
    24  H    6.807635   6.031461   4.644813   3.936377   2.413495
    25  H    8.709302   8.162794   6.806429   6.319755   4.786446
    26  H    8.943614   8.781627   7.577570   7.570508   6.140239
    27  H    7.295228   7.480716   6.526601   7.009228   5.880585
    28  H    4.862975   5.071073   4.228103   4.979214   4.195155
                   11         12         13         14         15
    11  C    0.000000
    12  C    1.392863   0.000000
    13  C    2.424205   1.393821   0.000000
    14  C    2.777002   2.397743   1.394638   0.000000
    15  C    2.410955   2.780224   2.426422   1.392700   0.000000
    16  H    4.508246   5.260254   4.965035   3.736259   2.558910
    17  H    6.750135   7.645927   7.409749   6.163372   4.998912
    18  H    7.675417   8.841025   8.956636   7.901471   6.565542
    19  H    6.787319   8.128138   8.629832   7.893079   6.503275
    20  H    4.885911   6.258873   7.114808   6.805417   5.573386
    21  H    4.885570   6.258998   7.115743   6.806911   5.574782
    22  H    2.739890   4.047266   5.058750   5.061839   4.099987
    23  H    2.739790   4.047939   5.060589   5.064398   4.102432
    24  H    1.089211   2.139177   3.398019   3.865845   3.409048
    25  H    2.148251   1.092335   2.157927   3.392500   3.872495
    26  H    3.415706   2.165626   1.092391   2.166674   3.417555
    27  H    3.869232   3.392009   2.158112   1.092289   2.147098
    28  H    3.406334   3.864164   3.394387   2.133635   1.084419
                   16         17         18         19         20
    16  H    0.000000
    17  H    2.444717   0.000000
    18  H    4.295973   2.483648   0.000000
    19  H    4.986763   4.310421   2.508459   0.000000
    20  H    5.271259   5.888756   5.059604   2.971345   0.000000
    21  H    5.270655   5.888654   5.060057   2.972133   1.770334
    22  H    4.899672   6.430879   6.475515   4.916767   2.350198
    23  H    4.899425   6.431048   6.475945   4.917153   2.945135
    24  H    5.222865   7.290845   7.889972   6.659970   4.421715
    25  H    6.338320   8.705586   9.800277   8.914850   6.814466
    26  H    5.891974   8.326617   9.981285   9.718232   8.178459
    27  H    3.947471   6.250427   8.236468   8.528423   7.697959
    28  H    1.602845   4.034128   5.827565   6.136541   5.701520
                   21         22         23         24         25
    21  H    0.000000
    22  H    2.945254   0.000000
    23  H    2.349880   1.780167   0.000000
    24  H    4.420262   2.175862   2.173299   0.000000
    25  H    6.814181   4.509768   4.509742   2.445140   0.000000
    26  H    8.179533   6.067343   6.069298   4.297182   2.496768
    27  H    7.699910   6.076594   6.079615   4.958128   4.301647
    28  H    5.703499   4.631259   4.634209   4.326583   4.956495
                   26         27         28
    26  H    0.000000
    27  H    2.497259   0.000000
    28  H    4.292919   2.438921   0.000000
 Stoichiometry    C14H13N
 Framework group  C1[X(C14H13N)]
 Deg. of freedom    78
 Full point group                 C1      NOp   1
 Largest Abelian subgroup         C1      NOp   1
 Largest concise Abelian subgroup C1      NOp   1
                         Standard orientation:                         
 ---------------------------------------------------------------------
 Center     Atomic      Atomic             Coordinates (Angstroms)
 Number     Number       Type             X           Y           Z
 ---------------------------------------------------------------------
      1          6           0       -1.397311    0.130285   -0.000427
      2          7           0       -0.074663    0.573609   -0.000923
      3          6           0        1.130182   -0.144773   -0.001068
      4          6           0        1.385789   -1.521229   -0.002328
      5          6           0        2.710376   -1.968328   -0.001545
      6          6           0        3.780220   -1.075713    0.000420
      7          6           0        3.524828    0.298710    0.001363
      8          6           0        2.213733    0.751410    0.000417
      9          6           0        1.719577    2.171392    0.001347
     10          6           0        0.193472    2.019937    0.000487
     11          6           0       -2.439907    1.080090   -0.002004
     12          6           0       -3.773919    0.679494   -0.001431
     13          6           0       -4.115481   -0.671828    0.000742
     14          6           0       -3.092052   -1.619248    0.002404
     15          6           0       -1.754456   -1.231371    0.001860
     16          1           0        0.589010   -2.259062   -0.004214
     17          1           0        2.904597   -3.043088   -0.002460
     18          1           0        4.807542   -1.447062    0.001095
     19          1           0        4.347134    1.018782    0.002799
     20          1           0        2.076298    2.718867    0.887056
     21          1           0        2.076973    2.720197   -0.883277
     22          1           0       -0.261971    2.482412    0.890793
     23          1           0       -0.261016    2.484177   -0.889373
     24          1           0       -2.216715    2.146187   -0.003804
     25          1           0       -4.557745    1.440290   -0.002695
     26          1           0       -5.162903   -0.982027    0.001312
     27          1           0       -3.335506   -2.684059    0.004254
     28          1           0       -0.993364   -2.003835    0.003548
 ---------------------------------------------------------------------
 Rotational constants (GHZ):           1.4508519           0.3915332           0.3095265
 Standard basis: def2SVP (5D, 7F)
 There are   290 symmetry adapted cartesian basis functions of A   symmetry.
[...]
     9  C    0.001570  -0.042558  -0.058481   0.018400  -0.006159   0.011662
    10  C   -0.065706   0.328332  -0.065376   0.011819  -0.000527   0.000822
    11  C    0.404786  -0.088986   0.006768   0.004488  -0.000457   0.000059
    12  C   -0.009638   0.003729  -0.000317  -0.000102   0.000010  -0.000001
    13  C   -0.060539   0.000319  -0.000102  -0.000257   0.000006   0.000000
    14  C   -0.029300   0.002892  -0.000993   0.003636   0.000112   0.000000
    15  C    0.420129  -0.046048  -0.019592   0.009290   0.002638  -0.000112
    16  H    0.003640  -0.002644  -0.054059   0.430950  -0.027420   0.005723
    17  H    0.000024  -0.000132   0.013643  -0.057885   0.438882  -0.054353
    18  H    0.000001   0.000019  -0.004868   0.014334  -0.062449   0.456155
    19  H    0.000015  -0.000142   0.020368  -0.005675   0.013053  -0.062147
    20  H    0.000287   0.005517  -0.007733   0.001303  -0.000135   0.000364
    21  H    0.000162   0.004941   0.003097  -0.000519   0.000164   0.000208
    22  H    0.001878  -0.041424   0.005086  -0.001767   0.000198  -0.000099
    23  H   -0.006764  -0.055311   0.002521   0.004883  -0.000682   0.000177
    24  H   -0.061581  -0.004834  -0.000688   0.000035  -0.000011   0.000001
    25  H    0.013264  -0.000118   0.000023   0.000003   0.000000   0.000000
    26  H   -0.003692   0.000015   0.000001  -0.000001  -0.000000   0.000000
    27  H    0.012165  -0.000164   0.000099  -0.000016  -0.000005  -0.000000
    28  H   -0.045774   0.001928   0.000332  -0.001499   0.000999  -0.000055
               7          8          9         10         11         12
     1  C   -0.000078   0.011364   0.001570  -0.065706   0.404786  -0.009638
     2  N    0.004521  -0.114939  -0.042558   0.328332  -0.088986   0.003729
     3  C    0.004770   0.420231  -0.058481  -0.065376   0.006768  -0.000317
     4  C   -0.087610   0.049447   0.018400   0.011819   0.004488  -0.000102
     5  C    0.039130  -0.097806  -0.006159  -0.000527  -0.000457   0.000010
     6  C    0.409807   0.020818   0.011662   0.000822   0.000059  -0.000001
     7  C    5.093005   0.375194  -0.082824  -0.001714  -0.000092   0.000003
     8  C    0.375194   5.238606   0.330006  -0.066458  -0.001057   0.000102
     9  C   -0.082824   0.330006   4.843355   0.377516   0.003423  -0.000089
    10  C   -0.001714  -0.066458   0.377516   4.882860  -0.008268   0.000192
    11  C   -0.000092  -0.001057   0.003423  -0.008268   5.155934   0.448928
    12  C    0.000003   0.000102  -0.000089   0.000192   0.448928   4.878429
    13  C   -0.000000  -0.000011   0.000005  -0.000012   0.007710   0.468402
    14  C    0.000000  -0.000250   0.000077  -0.000463  -0.057313  -0.003600
    15  C    0.000182   0.000795  -0.001623   0.010381   0.013766  -0.058344
    16  H   -0.001556   0.006248  -0.000002  -0.000556   0.000180  -0.000063
    17  H    0.010271  -0.002214   0.000043   0.000020   0.000005  -0.000000
    18  H   -0.069760   0.016325   0.000012   0.000016  -0.000000  -0.000000
    19  H    0.456592  -0.072560  -0.009011   0.000020  -0.000004   0.000000
    20  H    0.004094  -0.027484   0.378049  -0.024536   0.000128  -0.000001
    21  H   -0.001440  -0.046584   0.431847  -0.032085  -0.000146   0.000000
    22  H   -0.000000   0.010493  -0.023055   0.425481  -0.006223   0.000614
    23  H    0.000008  -0.001023  -0.015647   0.377123   0.008765   0.000029
    24  H   -0.000001  -0.000111   0.001052   0.003759   0.436274  -0.032814
    25  H   -0.000000  -0.000002  -0.000001   0.000029  -0.055299   0.438394
    26  H   -0.000000  -0.000000   0.000000  -0.000004   0.012164  -0.057705
    27  H   -0.000000   0.000009  -0.000001   0.000019  -0.003153   0.010194
    28  H    0.000015  -0.000733  -0.000126   0.000234   0.002064  -0.000548
              13         14         15         16         17         18
     1  C   -0.060539  -0.029300   0.420129   0.003640   0.000024   0.000001
     2  N    0.000319   0.002892  -0.046048  -0.002644  -0.000132   0.000019
     3  C   -0.000102  -0.000993  -0.019592  -0.054059   0.013643  -0.004868
     4  C   -0.000257   0.003636   0.009290   0.430950  -0.057885   0.014334
     5  C    0.000006   0.000112   0.002638  -0.027420   0.438882  -0.062449
     6  C    0.000000   0.000000  -0.000112   0.005723  -0.054353   0.456155
     7  C   -0.000000   0.000000   0.000182  -0.001556   0.010271  -0.069760
     8  C   -0.000011  -0.000250   0.000795   0.006248  -0.002214   0.016325
     9  C    0.000005   0.000077  -0.001623  -0.000002   0.000043   0.000012
    10  C   -0.000012  -0.000463   0.010381  -0.000556   0.000020   0.000016
    11  C    0.007710  -0.057313   0.013766   0.000180   0.000005  -0.000000
    12  C    0.468402  -0.003600  -0.058344  -0.000063  -0.000000  -0.000000
    13  C    4.927455   0.464986   0.003885  -0.000184   0.000000  -0.000000
    14  C    0.464986   4.882071   0.456558   0.001794  -0.000006  -0.000000
    15  C    0.003885   0.456558   5.138165  -0.000289  -0.000018  -0.000000
    16  H   -0.000184   0.001794  -0.000289   0.493747  -0.005867  -0.000093
    17  H    0.000000  -0.000006  -0.000018  -0.005867   0.548436  -0.007600
    18  H   -0.000000  -0.000000  -0.000000  -0.000093  -0.007600   0.551762
    19  H   -0.000000   0.000000   0.000004   0.000018  -0.000153  -0.007557
    20  H   -0.000000   0.000016  -0.000201   0.000051  -0.000002  -0.000000
    21  H   -0.000000  -0.000002   0.000043   0.000008  -0.000000  -0.000014
    22  H   -0.000237  -0.000116   0.002174  -0.000058   0.000000  -0.000000
    23  H    0.000008   0.000145  -0.001599   0.000183  -0.000002  -0.000000
    24  H    0.007537  -0.001823   0.006091   0.000006   0.000000   0.000000
    25  H   -0.054689   0.010487  -0.003349  -0.000000  -0.000000   0.000000
    26  H    0.445654  -0.058561   0.012314   0.000001   0.000000  -0.000000
    27  H   -0.053434   0.437998  -0.054144   0.000090  -0.000000   0.000000
    28  H    0.004186  -0.025032   0.424140  -0.007271   0.000036   0.000001
              19         20         21         22         23         24
     1  C    0.000015   0.000287   0.000162   0.001878  -0.006764  -0.061581
     2  N   -0.000142   0.005517   0.004941  -0.041424  -0.055311  -0.004834
     3  C    0.020368  -0.007733   0.003097   0.005086   0.002521  -0.000688
     4  C   -0.005675   0.001303  -0.000519  -0.001767   0.004883   0.000035
     5  C    0.013053  -0.000135   0.000164   0.000198  -0.000682  -0.000011
     6  C   -0.062147   0.000364   0.000208  -0.000099   0.000177   0.000001
     7  C    0.456592   0.004094  -0.001440  -0.000000   0.000008  -0.000001
     8  C   -0.072560  -0.027484  -0.046584   0.010493  -0.001023  -0.000111
     9  C   -0.009011   0.378049   0.431847  -0.023055  -0.015647   0.001052
    10  C    0.000020  -0.024536  -0.032085   0.425481   0.377123   0.003759
    11  C   -0.000004   0.000128  -0.000146  -0.006223   0.008765   0.436274
    12  C    0.000000  -0.000001   0.000000   0.000614   0.000029  -0.032814
    13  C   -0.000000  -0.000000  -0.000000  -0.000237   0.000008   0.007537
    14  C    0.000000   0.000016  -0.000002  -0.000116   0.000145  -0.001823
    15  C    0.000004  -0.000201   0.000043   0.002174  -0.001599   0.006091
    16  H    0.000018   0.000051   0.000008  -0.000058   0.000183   0.000006
    17  H   -0.000153  -0.000002  -0.000000   0.000000  -0.000002   0.000000
    18  H   -0.007557  -0.000000  -0.000014  -0.000000  -0.000000   0.000000
    19  H    0.556391   0.000355   0.001339   0.000013  -0.000067  -0.000000
    20  H    0.000355   0.608175  -0.034713  -0.014234   0.009325   0.000021
    21  H    0.001339  -0.034713   0.563360   0.001919  -0.011648  -0.000021
    22  H    0.000013  -0.014234   0.001919   0.567994  -0.054998  -0.005489
    23  H   -0.000067   0.009325  -0.011648  -0.054998   0.649765   0.002562
    24  H   -0.000000   0.000021  -0.000021  -0.005489   0.002562   0.526874
    25  H   -0.000000   0.000000   0.000000  -0.000014   0.000018  -0.006961
    26  H    0.000000  -0.000000  -0.000000   0.000001  -0.000000  -0.000117
    27  H    0.000000  -0.000000   0.000000   0.000001  -0.000001   0.000030
    28  H   -0.000001   0.000018  -0.000000  -0.000035   0.000017  -0.000139
              25         26         27         28
     1  C    0.013264  -0.003692   0.012165  -0.045774
     2  N   -0.000118   0.000015  -0.000164   0.001928
     3  C    0.000023   0.000001   0.000099   0.000332
     4  C    0.000003  -0.000001  -0.000016  -0.001499
     5  C    0.000000  -0.000000  -0.000005   0.000999
     6  C    0.000000   0.000000  -0.000000  -0.000055
     7  C   -0.000000  -0.000000  -0.000000   0.000015
     8  C   -0.000002  -0.000000   0.000009  -0.000733
     9  C   -0.000001   0.000000  -0.000001  -0.000126
    10  C    0.000029  -0.000004   0.000019   0.000234
    11  C   -0.055299   0.012164  -0.003153   0.002064
    12  C    0.438394  -0.057705   0.010194  -0.000548
    13  C   -0.054689   0.445654  -0.053434   0.004186
    14  C    0.010487  -0.058561   0.437998  -0.025032
    15  C   -0.003349   0.012314  -0.054144   0.424140
    16  H   -0.000000   0.000001   0.000090  -0.007271
    17  H   -0.000000   0.000000  -0.000000   0.000036
    18  H    0.000000  -0.000000   0.000000   0.000001
    19  H   -0.000000   0.000000   0.000000  -0.000001
    20  H    0.000000  -0.000000  -0.000000   0.000018
    21  H    0.000000  -0.000000   0.000000  -0.000000
    22  H   -0.000014   0.000001   0.000001  -0.000035
    23  H    0.000018  -0.000000  -0.000001   0.000017
    24  H   -0.006961  -0.000117   0.000030  -0.000139
    25  H    0.547664  -0.006888  -0.000171   0.000033
    26  H   -0.006888   0.547014  -0.006864  -0.000100
    27  H   -0.000171  -0.006864   0.544358  -0.005784
    28  H    0.000033  -0.000100  -0.005784   0.482676
 Mulliken charges:
               1
     1  C    0.259629
     2  N   -0.021349
     3  C    0.167913
     4  C   -0.327242
     5  C   -0.097586
     6  C   -0.137169
     7  C   -0.152517
     8  C   -0.048408
     9  C   -0.157440
    10  C   -0.152917
    11  C   -0.284446
    12  C   -0.085803
    13  C   -0.160690
    14  C   -0.083315
    15  C   -0.315237
    16  H    0.157422
    17  H    0.116872
    18  H    0.113717
    19  H    0.109149
    20  H    0.101335
    21  H    0.120084
    22  H    0.131899
    23  H    0.092212
    24  H    0.130348
    25  H    0.117577
    26  H    0.116768
    27  H    0.118772
    28  H    0.170420
 Sum of Mulliken charges =  -0.00000
 Mulliken charges with hydrogens summed into heavy atoms:
               1
     1  C    0.259629
     2  N   -0.021349
     3  C    0.167913
     4  C   -0.169820
     5  C    0.019286
     6  C   -0.023452
     7  C   -0.043368
     8  C   -0.048408
     9  C    0.063979
    10  C    0.071195
    11  C   -0.154098
    12  C    0.031775
    13  C   -0.043922
    14  C    0.035457
    15  C   -0.144817
 Electronic spatial extent (au):  <R**2>=           3385.1469
 Charge=              0.0000 electrons
 Dipole moment (field-independent basis, Debye):
    X=              0.0601    Y=              1.2593    Z=              0.0927  Tot=              1.2642
 Quadrupole moment (field-independent basis, Debye-Ang):
   XX=            -83.3482   YY=            -79.0026   ZZ=            -92.3443
   XY=              2.0543   XZ=              1.2304   YZ=             -1.4571
 Traceless Quadrupole moment (field-independent basis, Debye-Ang):
   XX=              1.5502   YY=              5.8958   ZZ=             -7.4459
   XY=              2.0543   XZ=              1.2304   YZ=             -1.4571
 Octapole moment (field-independent basis, Debye-Ang**2):
  XXX=             -2.8745  YYY=              3.0303  ZZZ=              3.2792  XYY=              3.0767
  XXY=              0.6571  XXZ=             -4.9845  XZZ=             -1.6609  YZZ=              6.1959
  YYZ=             -0.5736  XYZ=             11.8997
 Hexadecapole moment (field-independent basis, Debye-Ang**3):
 XXXX=          -3256.2845 YYYY=           -978.2713 ZZZZ=           -205.0145 XXXY=             20.8315
 XXXZ=             34.4501 YYYX=              1.6271 YYYZ=             -3.7864 ZZZX=              7.1740
 ZZZY=             -1.7616 XXYY=           -708.0527 XXZZ=           -674.3094 YYZZ=           -201.5969
 XXYZ=            -18.3431 YYXZ=            -13.3075 ZZXY=              6.2419
 N-N= 9.078854262042D+02 E-N=-3.198628929649D+03  KE= 5.926959017687D+02
 Breneman (CHELPG) radii used.
 Read replacement radii for each type of atom:
 Atom Element Radius
    1     6    1.50
    2     7    1.70
    3     6    1.50
    4     6    1.50
    5     6    1.50
    6     6    1.50
    7     6    1.50
    8     6    1.50
    9     6    1.50
   10     6    1.50
   11     6    1.50
   12     6    1.50
   13     6    1.50
   14     6    1.50
   15     6    1.50
   16     1    1.45
   17     1    1.45
   18     1    1.45
   19     1    1.45
   20     1    1.45
   21     1    1.45
   22     1    1.45
   23     1    1.45
   24     1    1.45
   25     1    1.45
   26     1    1.45
   27     1    1.45
   28     1    1.45
 Generate Potential Derived Charges using the Breneman model, NDens= 1.
 Grid spacing= 0.300 Box extension= 2.800
 NStep X,Y,Z=   52     40     28   Total possible points=       58240
 Number of Points to Fit=   17214

 **********************************************************************

            Electrostatic Properties Using The SCF Density.

 **********************************************************************

       Atomic Center    1 is at  -1.378654  0.185694  0.038733
       Atomic Center    2 is at  -0.061499  0.637160  0.078126
       Atomic Center    3 is at   1.106776 -0.120926 -0.020517
       Atomic Center    4 is at   1.273413 -1.476313 -0.308965
       Atomic Center    5 is at   2.574927 -1.983561 -0.386701
       Atomic Center    6 is at   3.687146 -1.168577 -0.192499
       Atomic Center    7 is at   3.509781  0.194648  0.077095
       Atomic Center    8 is at   2.227760  0.710146  0.155193
       Atomic Center    9 is at   1.751268  2.113913  0.436991
       Atomic Center   10 is at   0.279147  2.055772 -0.001254
       Atomic Center   11 is at  -2.384582  0.984043 -0.532235
       Atomic Center   12 is at  -3.708920  0.552778 -0.546050
       Atomic Center   13 is at  -4.063479 -0.679058 -0.001290
       Atomic Center   14 is at  -3.071541 -1.470295  0.578571
       Atomic Center   15 is at  -1.747833 -1.045214  0.611054
       Atomic Center   16 is at   0.420253 -2.127820 -0.495159
       Atomic Center   17 is at   2.714277 -3.042705 -0.615446
       Atomic Center   18 is at   4.692779 -1.587547 -0.260242
       Atomic Center   19 is at   4.374656  0.847821  0.218103
       Atomic Center   20 is at   1.834003  2.337115  1.514160
       Atomic Center   21 is at   2.316674  2.883897 -0.105603
       Atomic Center   22 is at  -0.389548  2.646968  0.641349
       Atomic Center   23 is at   0.168783  2.427964 -1.038231
       Atomic Center   24 is at  -2.130432  1.945497 -0.980385
       Atomic Center   25 is at  -4.471527  1.190727 -0.998857
       Atomic Center   26 is at  -5.101576 -1.015758 -0.019456
       Atomic Center   27 is at  -3.332910 -2.429463  1.031667
       Atomic Center   28 is at  -0.996186 -1.655126  1.112461
   17214 points will be used for fitting atomic charges
 Fitting point charges to electrostatic potential
 Charges from ESP fit, RMS=   0.00408 RRMS=   0.39065:
 ESP charges:
               1
     1  C    0.342251
     2  N   -0.369358
     3  C    0.228826
     4  C   -0.203410
     5  C   -0.091764
     6  C   -0.147032
     7  C   -0.165588
     8  C    0.008728
     9  C   -0.018765
    10  C    0.157296
    11  C   -0.245589
    12  C   -0.052075
    13  C   -0.167759
    14  C   -0.038590
    15  C   -0.223301
    16  H    0.105185
    17  H    0.101156
    18  H    0.099252
    19  H    0.117795
    20  H    0.026147
    21  H    0.021811
    22  H    0.008028
    23  H    0.002159
    24  H    0.118684
    25  H    0.091711
    26  H    0.098489
    27  H    0.089297
    28  H    0.106417
 Sum of ESP charges =   0.00000
 ESP charges with hydrogens summed into heavy atoms:
               1
     1  C    0.342251
     2  N   -0.369358
     3  C    0.228826
     4  C   -0.098225
     5  C    0.009392
     6  C   -0.047781
     7  C   -0.047793
     8  C    0.008728
     9  C    0.029192
    10  C    0.167484
    11  C   -0.126905
    12  C    0.039636
    13  C   -0.069270
    14  C    0.050707
    15  C   -0.116884
 Charge=   0.00000 Dipole=     0.0568     1.2206     0.0647 Tot=     1.2236
 -----------------------------------------------------------------

              Electrostatic Properties (Atomic Units)

 -----------------------------------------------------------------
    Center     Electric         -------- Electric Field --------
               Potential          X             Y             Z
 -----------------------------------------------------------------
    1 Atom    -14.722152
    2 Atom    -18.353984
    3 Atom    -14.730816
    4 Atom    -14.773907
    5 Atom    -14.772372
    6 Atom    -14.779109
    7 Atom    -14.770549
    8 Atom    -14.768356
    9 Atom    -14.754271
   10 Atom    -14.724683
   11 Atom    -14.771203
   12 Atom    -14.768589
   13 Atom    -14.776170
   14 Atom    -14.768924
   15 Atom    -14.772344
   16 Atom     -1.107650
   17 Atom     -1.112898
   18 Atom     -1.115168
   19 Atom     -1.107376
   20 Atom     -1.111281
   21 Atom     -1.108108
   22 Atom     -1.107346
   23 Atom     -1.114771
   24 Atom     -1.103226
   25 Atom     -1.108115
   26 Atom     -1.111342
   27 Atom     -1.108681
   28 Atom     -1.106142
 -----------------------------------------------------------------
 Unable to Open any file for archive entry.
 1\1\GINC-NOTCH313\SP\RwB97XD\def2TZVP\C14H13N1\U1366379\17-Feb-2026\0\
 \#N Guess=Read Geom=Check Integral(Ultrafine) Density Pop=(ChelpG,Read
 Radii) NMR wB97XD def2TZVP\\prod_5j_2\\0,1\C,0,1.3772289462,-0.2078863
 173,-0.0424969179\N,0,0.0588277271,-0.6470212653,-0.1386646746\C,0,-1.
 1074847689,0.1036099373,0.0212103071\C,0,-1.2715698436,1.4800255946,0.
 1843102821\C,0,-2.571843068,1.9864844584,0.2846599692\C,0,-3.685387208
 1,1.1532090916,0.2167137187\C,0,-3.5107513345,-0.2245899055,0.03314955
 94\C,0,-2.2299961088,-0.7389624206,-0.0693356117\C,0,-1.7562923995,-2.
 1593252054,-0.256929879\C,0,-0.2874848638,-1.9648774601,-0.6660412553\
 C,0,2.3757631605,-0.7816724042,-0.8480749342\C,0,3.7014767773,-0.36988
 27283,-0.7342244449\C,0,4.0647150682,0.6217432974,0.1738674459\C,0,3.0
 802160056,1.1859282505,0.9854655556\C,0,1.755301331,0.7740057657,0.891
 2751266\H,0,-0.4175937827,2.1561148738,0.2096274535\H,0,-2.7092252535,
 3.0631405607,0.409025404\H,0,-4.6900256171,1.5726035543,0.29565183\H,0
 ,-4.3768048587,-0.8877483946,-0.0353959448\H,0,-1.8313033701,-2.716266
 7445,0.6923573835\H,0,-2.3287084347,-2.7140359221,-1.0129748745\H,0,0.
 3841609693,-2.7315545222,-0.2528789391\H,0,-0.1866476064,-1.9847692275
 ,-1.7685220495\H,0,2.1146563158,-1.5482922206,-1.5787881791\H,0,4.4582
 046657,-0.8294573985,-1.3743324215\H,0,5.1038282427,0.945602759,0.2557
 272542\H,0,3.348572023,1.9487909729,1.7200673353\H,0,1.0098172862,1.19
 14230205,1.568321501\\Version=ES64L-G16RevC.01\State=1-A\HF=-596.07671
 56\RMSD=1.515e-09\Dipole=-0.025129,-0.4809374,-0.1242221\Quadrupole=1.
 1486165,2.700892,-3.8495085,1.7747642,-0.4162874,3.859751\PG=C01 [X(C1
 4H13N1)]\\@
 The archive entry for this job was punched.


 YOU WILL NEVER "FIND" TIME FOR ANYTHING.
 IF YOU WANT TIME, YOU MUST MAKE IT.

                        -- CHARLES BIXTON
 Job cpu time:       0 days  1 hours  1 minutes 38.1 seconds.
 Elapsed time:       0 days  0 hours  7 minutes 55.6 seconds.
 File lengths (MBytes):  RWF=    183 Int=      0 D2E=      0 Chk=     28 Scr=      2
 Normal termination of Gaussian 16 at Tue Feb 17 16:44:28 2026.
