 Entering Gaussian System, Link 0=g16
 Input=prod_3f_4.com
 Output=prod_3f_4.log
 Initial command:
 /uufs/chpc.utah.edu/sys/installdir/gaussian16/C01/AVX/g16/l1.exe "/scratch/general/vast/u1366379/GAUSSSCRDIR/11028609-notchpeak.peaks/Gau-76820.inp" -scrdir="/scratch/general/vast/u1366379/GAUSSSCRDIR/11028609-notchpeak.peaks/"
 Entering Link 1 = /uufs/chpc.utah.edu/sys/installdir/gaussian16/C01/AVX/g16/l1.exe PID=     76823.
  
 Copyright (c) 1988-2019, Gaussian, Inc.  All Rights Reserved.
  
 This is part of the Gaussian(R) 16 program.  It is based on
 the Gaussian(R) 09 system (copyright 2009, Gaussian, Inc.),
 the Gaussian(R) 03 system (copyright 2003, Gaussian, Inc.),
 the Gaussian(R) 98 system (copyright 1998, Gaussian, Inc.),
 the Gaussian(R) 94 system (copyright 1995, Gaussian, Inc.),
 the Gaussian 92(TM) system (copyright 1992, Gaussian, Inc.),
 the Gaussian 90(TM) system (copyright 1990, Gaussian, Inc.),
 the Gaussian 88(TM) system (copyright 1988, Gaussian, Inc.),
 the Gaussian 86(TM) system (copyright 1986, Carnegie Mellon
 University), and the Gaussian 82(TM) system (copyright 1983,
 Carnegie Mellon University). Gaussian is a federally registered
 trademark of Gaussian, Inc.
  
 This software contains proprietary and confidential information,
 including trade secrets, belonging to Gaussian, Inc.
  
 This software is provided under written license and may be
 used, copied, transmitted, or stored only in accord with that
 written license.
  
 The following legend is applicable only to US Government
 contracts under FAR:
  
                    RESTRICTED RIGHTS LEGEND
  
 Use, reproduction and disclosure by the US Government is
 subject to restrictions as set forth in subparagraphs (a)
 and (c) of the Commercial Computer Software - Restricted
 Rights clause in FAR 52.227-19.
  
 Gaussian, Inc.
 340 Quinnipiac St., Bldg. 40, Wallingford CT 06492
  
  
 ---------------------------------------------------------------
 Warning -- This program may not be used in any manner that
 competes with the business of Gaussian, Inc. or will provide
 assistance to any competitor of Gaussian, Inc.  The licensee
 of this program is prohibited from giving any competitor of
 Gaussian, Inc. access to this program.  By using this program,
 the user acknowledges that Gaussian, Inc. is engaged in the
 business of creating and licensing software in the field of
 computational chemistry and represents and warrants to the
 licensee that it is not a competitor of Gaussian, Inc. and that
 it will not use this program in any manner prohibited above.
 ---------------------------------------------------------------
  

 Cite this work as:
 Gaussian 16, Revision C.01,
 M. J. Frisch, G. W. Trucks, H. B. Schlegel, G. E. Scuseria, 
 M. A. Robb, J. R. Cheeseman, G. Scalmani, V. Barone, 
 G. A. Petersson, H. Nakatsuji, X. Li, M. Caricato, A. V. Marenich, 
 J. Bloino, B. G. Janesko, R. Gomperts, B. Mennucci, H. P. Hratchian, 
 J. V. Ortiz, A. F. Izmaylov, J. L. Sonnenberg, D. Williams-Young, 
 F. Ding, F. Lipparini, F. Egidi, J. Goings, B. Peng, A. Petrone, 
 T. Henderson, D. Ranasinghe, V. G. Zakrzewski, J. Gao, N. Rega, 
 G. Zheng, W. Liang, M. Hada, M. Ehara, K. Toyota, R. Fukuda, 
 J. Hasegawa, M. Ishida, T. Nakajima, Y. Honda, O. Kitao, H. Nakai, 
 T. Vreven, K. Throssell, J. A. Montgomery, Jr., J. E. Peralta, 
 F. Ogliaro, M. J. Bearpark, J. J. Heyd, E. N. Brothers, K. N. Kudin, 
 V. N. Staroverov, T. A. Keith, R. Kobayashi, J. Normand, 
 K. Raghavachari, A. P. Rendell, J. C. Burant, S. S. Iyengar, 
 J. Tomasi, M. Cossi, J. M. Millam, M. Klene, C. Adamo, R. Cammi, 
 J. W. Ochterski, R. L. Martin, K. Morokuma, O. Farkas, 
 J. B. Foresman, and D. J. Fox, Gaussian, Inc., Wallingford CT, 2019.
 
 ******************************************
 Gaussian 16:  ES64L-G16RevC.01  3-Jul-2019
                17-Feb-2026 
 ******************************************
 %NProcShared=8
 Will use up to    8 processors via shared memory.
 %Mem=8GB
 %chk=prod_3f_4.chk
 ------------------------------------------------------
 #N OPT FREQ=NORAMAN Integral(Ultrafine) wB97XD def2SVP
 ------------------------------------------------------
 1/18=20,19=15,26=4,38=1/1,3;
 2/9=110,12=2,17=6,18=5,40=1/2;
 3/5=43,7=101,11=2,25=1,30=1,71=1,74=-58,75=-5/1,2,3;
 4//1;
 5/5=2,38=5/2;
 6/7=2,8=2,9=2,10=2,28=1/1;
 7//1,2,3,16;
 1/18=20,19=15,26=4/3(2);
 2/9=110/2;
 99//99;
 2/9=110/2;
 3/5=43,7=101,11=2,25=1,30=1,71=1,74=-58,75=-5/1,2,3;
 4/5=5,16=3,69=1/1;
 5/5=2,38=5/2;
 7//1,2,3,16;
 1/18=20,19=15,26=4/3(-5);
 2/9=110/2;
 6/7=2,8=2,9=2,10=2,19=2,28=1/1;
 99/9=1/99;
 ---------
 prod_3f_4
 ---------
 Symbolic Z-matrix:
 Charge =  0 Multiplicity = 1
 C                    -1.75181  -2.093     1.39552 
 O                    -0.98638  -1.30088   0.5186 
 C                    -1.59508  -0.10704   0.1108 
 C                    -2.8506    0.31078   0.53963 
 C                    -3.41158   1.48213   0.07176 
 C                    -2.73229   2.26157  -0.83854 
 C                    -1.48246   1.87521  -1.27626 
 C                    -0.88895   0.71224  -0.80765 
 N                     0.39945   0.34252  -1.27953 
 C                     1.50245  -0.08839  -0.52001 
 C                     1.48723  -0.05683   0.87331 
 C                     2.58687  -0.45155   1.60037 
 C                     3.72837  -0.88019   0.95099 
 C                     3.76421  -0.91169  -0.42987 
 C                     2.6651   -0.51818  -1.15949 
 H                    -1.18707  -2.99644   1.62755 
 H                    -2.69008  -2.37639   0.91743 
 H                    -1.94139  -1.54825   2.32099 
 H                    -3.39987  -0.28894   1.24202 
 H                    -4.38706   1.78522   0.41566 
 H                    -3.17508   3.17243  -1.20685 
 H                    -0.94314   2.48298  -1.98169 
 H                     0.57679   0.50736  -2.2688 
 H                     0.59165   0.26738   1.37251 
 H                     2.55612  -0.42908   2.6774 
 H                     4.589    -1.19057   1.52057 
 H                     4.65467  -1.24575  -0.93685 
 H                     2.68966  -0.54284  -2.23495 
 

 GradGradGradGradGradGradGradGradGradGradGradGradGradGradGradGradGradGrad
 Berny optimization.
 Initialization pass.
                           ----------------------------
                           !    Initial Parameters    !
                           ! (Angstroms and Degrees)  !
 --------------------------                            --------------------------
 ! Name  Definition              Value          Derivative Info.                !
 --------------------------------------------------------------------------------
 ! R1    R(1,2)                  1.408          estimate D2E/DX2                !
 ! R2    R(1,16)                 1.0904         estimate D2E/DX2                !
 ! R3    R(1,17)                 1.0905         estimate D2E/DX2                !
 ! R4    R(1,18)                 1.0905         estimate D2E/DX2                !
 ! R5    R(2,3)                  1.4007         estimate D2E/DX2                !
 ! R6    R(3,4)                  1.391          estimate D2E/DX2                !
 ! R7    R(3,8)                  1.4189         estimate D2E/DX2                !
 ! R8    R(4,5)                  1.3805         estimate D2E/DX2                !
 ! R9    R(4,19)                 1.0746         estimate D2E/DX2                !
 ! R10   R(5,6)                  1.3775         estimate D2E/DX2                !
 ! R11   R(5,20)                 1.0778         estimate D2E/DX2                !
 ! R12   R(6,7)                  1.3795         estimate D2E/DX2                !
 ! R13   R(6,21)                 1.0777         estimate D2E/DX2                !
 ! R14   R(7,8)                  1.3872         estimate D2E/DX2                !
 ! R15   R(7,22)                 1.076          estimate D2E/DX2                !
 ! R16   R(8,9)                  1.421          estimate D2E/DX2                !
 ! R17   R(9,10)                 1.4068         estimate D2E/DX2                !
 ! R18   R(9,23)                 1.0185         estimate D2E/DX2                !
 ! R19   R(10,11)                1.3938         estimate D2E/DX2                !
 ! R20   R(10,15)                1.3948         estimate D2E/DX2                !
 ! R21   R(11,12)                1.3761         estimate D2E/DX2                !
 ! R22   R(11,24)                1.0753         estimate D2E/DX2                !
 ! R23   R(12,13)                1.3815         estimate D2E/DX2                !
 ! R24   R(12,25)                1.0777         estimate D2E/DX2                !
 ! R25   R(13,14)                1.3817         estimate D2E/DX2                !
 ! R26   R(13,26)                1.0777         estimate D2E/DX2                !
 ! R27   R(14,15)                1.3767         estimate D2E/DX2                !
 ! R28   R(14,27)                1.0777         estimate D2E/DX2                !
 ! R29   R(15,28)                1.076          estimate D2E/DX2                !
 ! A1    A(2,1,16)             108.4882         estimate D2E/DX2                !
 ! A2    A(2,1,17)             109.9315         estimate D2E/DX2                !
 ! A3    A(2,1,18)             110.0015         estimate D2E/DX2                !
 ! A4    A(16,1,17)            108.8803         estimate D2E/DX2                !
 ! A5    A(16,1,18)            108.8649         estimate D2E/DX2                !
 ! A6    A(17,1,18)            110.628          estimate D2E/DX2                !
 ! A7    A(1,2,3)              115.1244         estimate D2E/DX2                !
 ! A8    A(2,3,4)              123.9519         estimate D2E/DX2                !
 ! A9    A(2,3,8)              117.6645         estimate D2E/DX2                !
 ! A10   A(4,3,8)              118.3791         estimate D2E/DX2                !
 ! A11   A(3,4,5)              121.1441         estimate D2E/DX2                !
 ! A12   A(3,4,19)             119.6862         estimate D2E/DX2                !
 ! A13   A(5,4,19)             119.1684         estimate D2E/DX2                !
 ! A14   A(4,5,6)              120.2444         estimate D2E/DX2                !
 ! A15   A(4,5,20)             119.8848         estimate D2E/DX2                !
 ! A16   A(6,5,20)             119.8699         estimate D2E/DX2                !
 ! A17   A(5,6,7)              119.8668         estimate D2E/DX2                !
 ! A18   A(5,6,21)             120.0973         estimate D2E/DX2                !
 ! A19   A(7,6,21)             120.0358         estimate D2E/DX2                !
 ! A20   A(6,7,8)              121.0142         estimate D2E/DX2                !
 ! A21   A(6,7,22)             120.2602         estimate D2E/DX2                !
 ! A22   A(8,7,22)             118.7204         estimate D2E/DX2                !
 ! A23   A(3,8,7)              119.3272         estimate D2E/DX2                !
 ! A24   A(3,8,9)              121.0587         estimate D2E/DX2                !
 ! A25   A(7,8,9)              119.5943         estimate D2E/DX2                !
 ! A26   A(8,9,10)             127.6813         estimate D2E/DX2                !
 ! A27   A(8,9,23)             115.9961         estimate D2E/DX2                !
 ! A28   A(10,9,23)            115.9419         estimate D2E/DX2                !
 ! A29   A(9,10,11)            121.6153         estimate D2E/DX2                !
 ! A30   A(9,10,15)            120.0269         estimate D2E/DX2                !
 ! A31   A(11,10,15)           118.3214         estimate D2E/DX2                !
 ! A32   A(10,11,12)           120.8614         estimate D2E/DX2                !
 ! A33   A(10,11,24)           118.6851         estimate D2E/DX2                !
 ! A34   A(12,11,24)           120.4458         estimate D2E/DX2                !
 ! A35   A(11,12,13)           120.062          estimate D2E/DX2                !
 ! A36   A(11,12,25)           119.9497         estimate D2E/DX2                !
 ! A37   A(13,12,25)           119.988          estimate D2E/DX2                !
 ! A38   A(12,13,14)           119.8871         estimate D2E/DX2                !
 ! A39   A(12,13,26)           120.0521         estimate D2E/DX2                !
 ! A40   A(14,13,26)           120.0607         estimate D2E/DX2                !
 ! A41   A(13,14,15)           120.1618         estimate D2E/DX2                !
 ! A42   A(13,14,27)           119.909          estimate D2E/DX2                !
 ! A43   A(15,14,27)           119.9291         estimate D2E/DX2                !
 ! A44   A(10,15,14)           120.7037         estimate D2E/DX2                !
 ! A45   A(10,15,28)           118.9685         estimate D2E/DX2                !
 ! A46   A(14,15,28)           120.3271         estimate D2E/DX2                !
 ! D1    D(16,1,2,3)           179.0215         estimate D2E/DX2                !
 ! D2    D(17,1,2,3)            60.0621         estimate D2E/DX2                !
 ! D3    D(18,1,2,3)           -61.997          estimate D2E/DX2                !
 ! D4    D(1,2,3,4)              1.2025         estimate D2E/DX2                !
 ! D5    D(1,2,3,8)           -178.0099         estimate D2E/DX2                !
 ! D6    D(2,3,4,5)           -178.2118         estimate D2E/DX2                !
 ! D7    D(2,3,4,19)             1.3588         estimate D2E/DX2                !
 ! D8    D(8,3,4,5)              0.9953         estimate D2E/DX2                !
 ! D9    D(8,3,4,19)          -179.4341         estimate D2E/DX2                !
 ! D10   D(2,3,8,7)            177.4114         estimate D2E/DX2                !
 ! D11   D(2,3,8,9)             -0.9617         estimate D2E/DX2                !
 ! D12   D(4,3,8,7)             -1.8461         estimate D2E/DX2                !
 ! D13   D(4,3,8,9)            179.7808         estimate D2E/DX2                !
 ! D14   D(3,4,5,6)              0.1758         estimate D2E/DX2                !
 ! D15   D(3,4,5,20)           179.8291         estimate D2E/DX2                !
 ! D16   D(19,4,5,6)          -179.397          estimate D2E/DX2                !
 ! D17   D(19,4,5,20)            0.2563         estimate D2E/DX2                !
 ! D18   D(4,5,6,7)             -0.4989         estimate D2E/DX2                !
 ! D19   D(4,5,6,21)           179.6208         estimate D2E/DX2                !
 ! D20   D(20,5,6,7)           179.8477         estimate D2E/DX2                !
 ! D21   D(20,5,6,21)           -0.0326         estimate D2E/DX2                !
 ! D22   D(5,6,7,8)             -0.3914         estimate D2E/DX2                !
 ! D23   D(5,6,7,22)          -179.5475         estimate D2E/DX2                !
 ! D24   D(21,6,7,8)           179.4889         estimate D2E/DX2                !
 ! D25   D(21,6,7,22)            0.3328         estimate D2E/DX2                !
 ! D26   D(6,7,8,3)              1.5707         estimate D2E/DX2                !
 ! D27   D(6,7,8,9)            179.968          estimate D2E/DX2                !
 ! D28   D(22,7,8,3)          -179.2604         estimate D2E/DX2                !
 ! D29   D(22,7,8,9)            -0.8632         estimate D2E/DX2                !
 ! D30   D(3,8,9,10)           -48.2437         estimate D2E/DX2                !
 ! D31   D(3,8,9,23)           139.181          estimate D2E/DX2                !
 ! D32   D(7,8,9,10)           133.3875         estimate D2E/DX2                !
 ! D33   D(7,8,9,23)           -39.1878         estimate D2E/DX2                !
 ! D34   D(8,9,10,11)           -7.5055         estimate D2E/DX2                !
 ! D35   D(8,9,10,15)          174.7257         estimate D2E/DX2                !
 ! D36   D(23,9,10,11)         165.0733         estimate D2E/DX2                !
 ! D37   D(23,9,10,15)         -12.6955         estimate D2E/DX2                !
 ! D38   D(9,10,11,12)        -178.4063         estimate D2E/DX2                !
 ! D39   D(9,10,11,24)           2.5932         estimate D2E/DX2                !
 ! D40   D(15,10,11,12)         -0.6007         estimate D2E/DX2                !
 ! D41   D(15,10,11,24)       -179.6012         estimate D2E/DX2                !
 ! D42   D(9,10,15,14)         178.3969         estimate D2E/DX2                !
 ! D43   D(9,10,15,28)          -1.9119         estimate D2E/DX2                !
 ! D44   D(11,10,15,14)          0.5552         estimate D2E/DX2                !
 ! D45   D(11,10,15,28)       -179.7535         estimate D2E/DX2                !
 ! D46   D(10,11,12,13)          0.3241         estimate D2E/DX2                !
 ! D47   D(10,11,12,25)       -179.4839         estimate D2E/DX2                !
 ! D48   D(24,11,12,13)        179.3071         estimate D2E/DX2                !
 ! D49   D(24,11,12,25)         -0.501          estimate D2E/DX2                !
 ! D50   D(11,12,13,14)          0.0119         estimate D2E/DX2                !
 ! D51   D(11,12,13,26)       -179.9158         estimate D2E/DX2                !
 ! D52   D(25,12,13,14)        179.8198         estimate D2E/DX2                !
 ! D53   D(25,12,13,26)         -0.1079         estimate D2E/DX2                !
 ! D54   D(12,13,14,15)         -0.0562         estimate D2E/DX2                !
 ! D55   D(12,13,14,27)        179.9817         estimate D2E/DX2                !
 ! D56   D(26,13,14,15)        179.8715         estimate D2E/DX2                !
 ! D57   D(26,13,14,27)         -0.0906         estimate D2E/DX2                !
 ! D58   D(13,14,15,10)         -0.2344         estimate D2E/DX2                !
 ! D59   D(13,14,15,28)       -179.9214         estimate D2E/DX2                !
 ! D60   D(27,14,15,10)        179.7277         estimate D2E/DX2                !
 ! D61   D(27,14,15,28)          0.0407         estimate D2E/DX2                !
 --------------------------------------------------------------------------------
 Trust Radius=3.00D-01 FncErr=1.00D-07 GrdErr=1.00D-06 EigMax=2.50D+02 EigMin=1.00D-04
 Number of steps in this run=    146 maximum allowed number of steps=    168.
 GradGradGradGradGradGradGradGradGradGradGradGradGradGradGradGradGradGrad

                          Input orientation:                          
 ---------------------------------------------------------------------
 Center     Atomic      Atomic             Coordinates (Angstroms)
 Number     Number       Type             X           Y           Z
 ---------------------------------------------------------------------
      1          6           0       -1.751810   -2.093000    1.395520
      2          8           0       -0.986380   -1.300880    0.518600
      3          6           0       -1.595080   -0.107040    0.110800
      4          6           0       -2.850600    0.310780    0.539630
      5          6           0       -3.411580    1.482130    0.071760
      6          6           0       -2.732290    2.261570   -0.838540
      7          6           0       -1.482460    1.875210   -1.276260
      8          6           0       -0.888950    0.712240   -0.807650
      9          7           0        0.399450    0.342520   -1.279530
     10          6           0        1.502450   -0.088390   -0.520010
     11          6           0        1.487230   -0.056830    0.873310
     12          6           0        2.586870   -0.451550    1.600370
     13          6           0        3.728370   -0.880190    0.950990
     14          6           0        3.764210   -0.911690   -0.429870
     15          6           0        2.665100   -0.518180   -1.159490
     16          1           0       -1.187070   -2.996440    1.627550
     17          1           0       -2.690080   -2.376390    0.917430
     18          1           0       -1.941390   -1.548250    2.320990
     19          1           0       -3.399870   -0.288940    1.242020
     20          1           0       -4.387060    1.785220    0.415660
     21          1           0       -3.175080    3.172430   -1.206850
     22          1           0       -0.943140    2.482980   -1.981690
     23          1           0        0.576790    0.507360   -2.268800
     24          1           0        0.591650    0.267380    1.372510
     25          1           0        2.556120   -0.429080    2.677400
     26          1           0        4.589000   -1.190570    1.520570
     27          1           0        4.654670   -1.245750   -0.936850
     28          1           0        2.689660   -0.542840   -2.234950
 ---------------------------------------------------------------------
                    Distance matrix (angstroms):
                    1          2          3          4          5
     1  C    0.000000
     2  O    1.407951   0.000000
     3  C    2.370466   1.400739   0.000000
     4  C    2.778137   2.464388   1.390971   0.000000
     5  C    4.157972   3.718388   2.413847   1.380457   0.000000
     6  C    4.991457   4.192980   2.793708   2.391429   1.377537
     7  C    4.791414   3.681734   2.421969   2.759838   2.386037
     8  C    3.669858   2.412692   1.418940   2.413380   2.780244
     9  N    4.208987   2.802599   2.472503   3.724671   4.201029
    10  C    4.275269   2.956876   3.161165   4.497913   5.192727
    11  C    3.861356   2.791456   3.175622   4.366148   5.197040
    12  C    4.643325   3.828799   4.452663   5.592173   6.485150
    13  C    5.630354   4.753189   5.444520   6.698543   7.571822
    14  C    5.929082   4.859956   5.446262   6.796328   7.581159
    15  C    5.340152   4.094131   4.464505   5.830706   6.514849
    16  H    1.090400   2.035920   3.288713   3.858576   5.237033
    17  H    1.090518   2.053870   2.645681   2.718342   4.015457
    18  H    1.090499   2.054713   2.661195   2.730549   4.050148
    19  H    2.448325   2.715197   2.137759   1.074576   2.122813
    20  H    4.790121   4.593390   3.386553   2.133085   1.077818
    21  H    6.043408   5.270492   3.871372   3.368163   2.132578
    22  H    5.744483   4.535517   3.392896   3.835872   3.363265
    23  H    5.060780   3.671897   3.279787   4.435417   4.726044
    24  H    3.326218   2.383019   2.552232   3.541844   4.381029
    25  H    4.792714   4.239075   4.891176   5.860894   6.786422
    26  H    6.405926   5.665772   6.434620   7.652708   8.558718
    27  H    6.870282   5.826047   6.438447   7.805886   8.574556
    28  H    5.942219   4.655097   4.904229   6.254714   6.829828
                    6          7          8          9         10
     6  C    0.000000
     7  C    1.379474   0.000000
     8  C    2.408169   1.387209   0.000000
     9  N    3.699327   2.427084   1.421034   0.000000
    10  C    4.853534   3.652030   2.538216   1.406827   0.000000
    11  C    5.109771   4.143970   3.010536   2.444886   1.393760
    12  C    6.450021   5.499842   4.385692   3.702591   2.409121
    13  C    7.403594   6.301240   5.191174   4.189504   2.783075
    14  C    7.241623   6.000894   4.942850   3.690064   2.408632
    15  C    6.079625   4.790011   3.777432   2.426599   1.394779
    16  H    6.009657   5.679114   4.446727   4.702852   4.505806
    17  H    4.959424   4.934240   3.969837   4.665222   4.987834
    18  H    5.012273   4.987074   4.000729   4.692365   4.697074
    19  H    3.358496   3.834285   3.392378   4.603454   5.213225
    20  H    2.130303   3.362647   3.858050   5.278800   6.250778
    21  H    1.077674   2.133673   3.382053   4.559708   5.743168
    22  H    2.134683   1.076049   2.125283   2.622431   3.837885
    23  H    4.009103   2.663956   2.079743   1.018468   2.066405
    24  H    4.462523   3.728677   2.672672   2.660057   2.130202
    25  H    6.897007   6.103385   5.031570   4.572077   3.383744
    26  H    8.431130   7.354175   6.248938   5.267187   3.860772
    27  H    8.177905   6.893472   5.880658   4.554880   3.383745
    28  H    6.261966   4.916568   4.052019   2.634720   2.134716
                   11         12         13         14         15
    11  C    0.000000
    12  C    1.376092   0.000000
    13  C    2.388863   1.381466   0.000000
    14  C    2.759294   2.391596   1.381684   0.000000
    15  C    2.394263   2.761772   2.390757   1.376677   0.000000
    16  H    4.045005   4.551904   5.394237   5.752767   5.361770
    17  H    4.778308   5.658411   6.590618   6.754141   6.036928
    18  H    4.009432   4.714571   5.871063   6.366028   5.864685
    19  H    4.906482   5.999659   7.158637   7.382891   6.527148
    20  H    6.173320   7.419055   8.558691   8.627366   7.584175
    21  H    6.040887   7.363001   8.290816   8.089344   6.908730
    22  H    4.528615   5.822679   6.460227   6.007585   4.764700
    23  H    3.319649   4.464348   4.714319   3.943984   2.577468
    24  H    1.075349   2.132999   3.366542   3.834569   3.365609
    25  H    2.129750   1.077703   2.134985   3.368608   3.839471
    26  H    3.365307   2.135660   1.077702   2.135947   3.366931
    27  H    3.837041   3.368091   2.134386   1.077749   2.130098
    28  H    3.367985   3.837783   3.367928   2.132844   1.076023
                   16         17         18         19         20
    16  H    0.000000
    17  H    1.774196   0.000000
    18  H    1.774010   1.793414   0.000000
    19  H    3.517908   2.228589   2.208439   0.000000
    20  H    5.879871   4.522224   4.552319   2.441220   0.000000
    21  H    7.073964   5.961308   6.021002   4.246007   2.454748
    22  H    6.565833   5.922008   5.979998   4.910333   4.253791
    23  H    5.528956   5.398196   5.624316   5.364119   5.786109
    24  H    3.725777   4.238675   3.257671   4.032214   5.292160
    25  H    4.658862   5.866185   4.648351   6.128113   7.630619
    26  H    6.052735   7.399659   6.588976   8.044412   9.520809
    27  H    6.615662   7.659116   7.362950   8.398725   9.631664
    28  H    5.997341   6.499308   6.573740   7.016848   7.907311
                   21         22         23         24         25
    21  H    0.000000
    22  H    2.461153   0.000000
    23  H    4.723014   2.509122   0.000000
    24  H    5.411161   4.302920   3.649240   0.000000
    25  H    7.804161   6.513988   5.409211   2.459052   0.000000
    26  H    9.314265   7.507687   5.774090   4.257505   2.459822
    27  H    8.994343   6.806658   4.634284   4.912315   4.258364
    28  H    7.018219   4.734656   2.359721   4.251102   4.915481
                   26         27         28
    26  H    0.000000
    27  H    2.458917   0.000000
    28  H    4.258049   2.457725   0.000000
 Stoichiometry    C13H13NO
 Framework group  C1[X(C13H13NO)]
 Deg. of freedom    78
 Full point group                 C1      NOp   1
 Largest Abelian subgroup         C1      NOp   1
 Largest concise Abelian subgroup C1      NOp   1
                         Standard orientation:                         
 ---------------------------------------------------------------------
 Center     Atomic      Atomic             Coordinates (Angstroms)
 Number     Number       Type             X           Y           Z
 ---------------------------------------------------------------------
      1          6           0        1.021271    2.789230   -0.669160
      2          8           0        0.554600    1.460961   -0.653558
      3          6           0        1.490019    0.506839   -0.233187
      4          6           0        2.785007    0.814060    0.171068
      5          6           0        3.671925   -0.177371    0.539990
      6          6           0        3.286389   -1.499518    0.510044
      7          6           0        2.006009   -1.833058    0.119754
      8          6           0        1.090123   -0.854575   -0.238115
      9          7           0       -0.220739   -1.232198   -0.636087
     10          6           0       -1.441647   -0.675490   -0.213451
     11          6           0       -1.498965    0.266511    0.812179
     12          6           0       -2.704842    0.776868    1.235293
     13          6           0       -3.880596    0.352150    0.647360
     14          6           0       -3.843775   -0.586199   -0.366147
     15          6           0       -2.638591   -1.097617   -0.791849
     16          1           0        0.217891    3.433804   -1.027039
     17          1           0        1.871800    2.876512   -1.346075
     18          1           0        1.299182    3.098806    0.338866
     19          1           0        3.107073    1.839031    0.191566
     20          1           0        4.671540    0.083459    0.847283
     21          1           0        3.982630   -2.272005    0.792701
     22          1           0        1.695878   -2.863277    0.101007
     23          1           0       -0.288520   -2.068771   -1.213000
     24          1           0       -0.579232    0.600922    1.257865
     25          1           0       -2.731453    1.510853    2.023964
     26          1           0       -4.824802    0.752952    0.977924
     27          1           0       -4.760846   -0.918011   -0.824869
     28          1           0       -2.606730   -1.827552   -1.581789
 ---------------------------------------------------------------------
 Rotational constants (GHZ):           1.2285124           0.3969785           0.3328417
 Standard basis: def2SVP (5D, 7F)
 There are   290 symmetry adapted cartesian basis functions of A   symmetry.
 There are   275 symmetry adapted basis functions of A   symmetry.
   275 basis functions,   466 primitive gaussians,   290 cartesian basis functions
    53 alpha electrons       53 beta electrons
       nuclear repulsion energy       935.0749790775 Hartrees.
 NAtoms=   28 NActive=   28 NUniq=   28 SFac= 1.00D+00 NAtFMM=   60 NAOKFM=F Big=F
 Integral buffers will be    131072 words long.
 Raffenetti 2 integral format.
 Two-electron integral symmetry is turned on.
 Nuclear repulsion after empirical dispersion term =      935.0576011247 Hartrees.
 One-electron integrals computed using PRISM.
   1 Symmetry operations used in ECPInt.
 ECPInt:  NShTT=    8385 NPrTT=   30369 LenC2=    7989 LenP2D=   21111.
 LDataN:  DoStor=T MaxTD1= 4 Len=   56
 NBasis=   275 RedAO= T EigKep=  2.00D-04  NBF=   275
 NBsUse=   275 1.00D-06 EigRej= -1.00D+00 NBFU=   275
 ExpMin= 1.22D-01 ExpMax= 2.27D+03 ExpMxC= 3.41D+02 IAcc=3 IRadAn=         5 AccDes= 0.00D+00
 Harris functional with IExCor= 4639 and IRadAn=       5 diagonalized for initial guess.
 HarFok:  IExCor= 4639 AccDes= 0.00D+00 IRadAn=         5 IDoV= 1 UseB2=F ITyADJ=14
 ICtDFT=  3500011 ScaDFX=  1.000000  1.000000  1.000000  1.000000
 FoFCou: FMM=F IPFlag=           0 FMFlag=      100000 FMFlg1=           0
         NFxFlg=           0 DoJE=T BraDBF=F KetDBF=T FulRan=T
         wScrn=  0.000000 ICntrl=       500 IOpCl=  0 I1Cent=   200000004 NGrid=           0
         NMat0=    1 NMatS0=      1 NMatT0=    0 NMatD0=    1 NMtDS0=    0 NMtDT0=    0
 Petite list used in FoFCou.
 Requested convergence on RMS density matrix=1.00D-08 within 128 cycles.
 Requested convergence on MAX density matrix=1.00D-06.
 Requested convergence on             energy=1.00D-06.
 No special actions if energy rises.
 Integral accuracy reduced to 1.0D-05 until final iterations.
 Initial convergence to 1.0D-05 achieved.  Increase integral accuracy.
 SCF Done:  E(RwB97XD) =  -632.504672626     A.U. after   16 cycles
            NFock= 16  Conv=0.50D-08     -V/T= 2.0103

 **********************************************************************

            Population analysis using the SCF Density.

 **********************************************************************

 Orbital symmetries:
       Occupied  (A) (A) (A) (A) (A) (A) (A) (A) (A) (A) (A) (A)
                 (A) (A) (A) (A) (A) (A) (A) (A) (A) (A) (A) (A)
                 (A) (A) (A) (A) (A) (A) (A) (A) (A) (A) (A) (A)
                 (A) (A) (A) (A) (A) (A) (A) (A) (A) (A) (A) (A)
                 (A) (A) (A) (A) (A)
       Virtual   (A) (A) (A) (A) (A) (A) (A) (A) (A) (A) (A) (A)
                 (A) (A) (A) (A) (A) (A) (A) (A) (A) (A) (A) (A)
                 (A) (A) (A) (A) (A) (A) (A) (A) (A) (A) (A) (A)
                 (A) (A) (A) (A) (A) (A) (A) (A) (A) (A) (A) (A)
                 (A) (A) (A) (A) (A) (A) (A) (A) (A) (A) (A) (A)
                 (A) (A) (A) (A) (A) (A) (A) (A) (A) (A) (A) (A)
                 (A) (A) (A) (A) (A) (A) (A) (A) (A) (A) (A) (A)
                 (A) (A) (A) (A) (A) (A) (A) (A) (A) (A) (A) (A)
                 (A) (A) (A) (A) (A) (A) (A) (A) (A) (A) (A) (A)
                 (A) (A) (A) (A) (A) (A) (A) (A) (A) (A) (A) (A)
                 (A) (A) (A) (A) (A) (A) (A) (A) (A) (A) (A) (A)
                 (A) (A) (A) (A) (A) (A) (A) (A) (A) (A) (A) (A)
                 (A) (A) (A) (A) (A) (A) (A) (A) (A) (A) (A) (A)
                 (A) (A) (A) (A) (A) (A) (A) (A) (A) (A) (A) (A)
                 (A) (A) (A) (A) (A) (A) (A) (A) (A) (A) (A) (A)
                 (A) (A) (A) (A) (A) (A) (A) (A) (A) (A) (A) (A)
                 (A) (A) (A) (A) (A) (A) (A) (A) (A) (A) (A) (A)
                 (A) (A) (A) (A) (A) (A) (A) (A) (A) (A) (A) (A)
                 (A) (A) (A) (A) (A) (A)
 The electronic state is 1-A.
 Alpha  occ. eigenvalues --  -19.28766 -14.46123 -10.36348 -10.35029 -10.34391
 Alpha  occ. eigenvalues --  -10.33284 -10.30202 -10.30086 -10.29913 -10.29639
 Alpha  occ. eigenvalues --  -10.28667 -10.28525 -10.28368 -10.27863 -10.27627
 Alpha  occ. eigenvalues --   -1.15215  -1.02980  -0.95538  -0.93046  -0.85209
 Alpha  occ. eigenvalues --   -0.84898  -0.83044  -0.81019  -0.78406  -0.71575
 Alpha  occ. eigenvalues --   -0.70008  -0.68762  -0.66919  -0.63217  -0.61616
 Alpha  occ. eigenvalues --   -0.59390  -0.57632  -0.56426  -0.55930  -0.54843
 Alpha  occ. eigenvalues --   -0.53338  -0.51402  -0.51235  -0.50699  -0.49795
 Alpha  occ. eigenvalues --   -0.48227  -0.46550  -0.46490  -0.44462  -0.43193
 Alpha  occ. eigenvalues --   -0.41747  -0.41411  -0.40419  -0.39722  -0.33608
 Alpha  occ. eigenvalues --   -0.32294  -0.30679  -0.26096
 Alpha virt. eigenvalues --    0.05474   0.07009   0.07839   0.09929   0.14089
 Alpha virt. eigenvalues --    0.14713   0.14935   0.16650   0.18462   0.19549
 Alpha virt. eigenvalues --    0.20339   0.20817   0.21151   0.22238   0.23238
 Alpha virt. eigenvalues --    0.24182   0.24729   0.25696   0.26032   0.26654
 Alpha virt. eigenvalues --    0.29328   0.32730   0.34956   0.36975   0.38327
 Alpha virt. eigenvalues --    0.38931   0.39018   0.39644   0.40494   0.40918
 Alpha virt. eigenvalues --    0.41835   0.44029   0.45868   0.47496   0.48803
 Alpha virt. eigenvalues --    0.49837   0.50524   0.51267   0.53214   0.54513
 Alpha virt. eigenvalues --    0.54894   0.55546   0.56299   0.57079   0.57878
 Alpha virt. eigenvalues --    0.58282   0.59313   0.59707   0.60295   0.62318
 Alpha virt. eigenvalues --    0.62461   0.63750   0.64312   0.65286   0.65847
 Alpha virt. eigenvalues --    0.66568   0.68566   0.70609   0.71286   0.72519
 Alpha virt. eigenvalues --    0.72744   0.73377   0.74070   0.74918   0.75054
 Alpha virt. eigenvalues --    0.75428   0.76389   0.76730   0.78029   0.79149
 Alpha virt. eigenvalues --    0.79965   0.80699   0.81338   0.81841   0.82199
 Alpha virt. eigenvalues --    0.82761   0.83634   0.84749   0.85778   0.86578
 Alpha virt. eigenvalues --    0.88075   0.89298   0.91307   0.92293   0.93494
 Alpha virt. eigenvalues --    0.94614   0.96964   1.00678   1.02028   1.04438
 Alpha virt. eigenvalues --    1.06665   1.07418   1.11334   1.14285   1.16357
 Alpha virt. eigenvalues --    1.18451   1.20379   1.23294   1.23634   1.28423
 Alpha virt. eigenvalues --    1.28901   1.30181   1.31646   1.33681   1.34575
 Alpha virt. eigenvalues --    1.34744   1.35990   1.36636   1.38389   1.39411
 Alpha virt. eigenvalues --    1.40642   1.41578   1.43284   1.45405   1.46562
 Alpha virt. eigenvalues --    1.55402   1.56415   1.59837   1.60182   1.60868
 Alpha virt. eigenvalues --    1.62177   1.72558   1.74399   1.76669   1.77132
 Alpha virt. eigenvalues --    1.78249   1.78418   1.78736   1.80399   1.81232
 Alpha virt. eigenvalues --    1.82884   1.83355   1.84769   1.84779   1.86202
 Alpha virt. eigenvalues --    1.86642   1.87090   1.87482   1.88263   1.88577
 Alpha virt. eigenvalues --    1.89368   1.90094   1.91017   1.93146   1.93442
 Alpha virt. eigenvalues --    1.95795   1.96963   1.99180   2.00169   2.00842
 Alpha virt. eigenvalues --    2.03549   2.04424   2.05334   2.05803   2.09629
 Alpha virt. eigenvalues --    2.09860   2.11598   2.12292   2.14715   2.17624
 Alpha virt. eigenvalues --    2.18631   2.21736   2.21824   2.23559   2.24887
 Alpha virt. eigenvalues --    2.25711   2.26043   2.27175   2.30300   2.30380
 Alpha virt. eigenvalues --    2.31431   2.34885   2.36159   2.37127   2.39008
 Alpha virt. eigenvalues --    2.40288   2.41320   2.41869   2.42392   2.45813
 Alpha virt. eigenvalues --    2.46766   2.48789   2.49367   2.53341   2.57070
 Alpha virt. eigenvalues --    2.60817   2.63084   2.69973   2.71173   2.71678
 Alpha virt. eigenvalues --    2.73324   2.74096   2.75395   2.77798   2.79483
 Alpha virt. eigenvalues --    2.83102   2.85019   2.85716   2.86316   2.87881
 Alpha virt. eigenvalues --    2.90060   2.93646   2.95346   2.97380   2.97973
 Alpha virt. eigenvalues --    3.00172   3.02374   3.04994   3.07877   3.13412
 Alpha virt. eigenvalues --    3.14407   3.17058   3.21239   3.24303   3.27356
 Alpha virt. eigenvalues --    3.31034   3.37981   3.50168   3.53863   3.58866
 Alpha virt. eigenvalues --    3.81623   3.82687
          Condensed to atoms (all electrons):
               1          2          3          4          5          6
     1  C    4.391705   0.299186  -0.056530  -0.001615   0.001118   0.000033
     2  O    0.299186   7.909587   0.398656  -0.077127   0.004389  -0.000167
     3  C   -0.056530   0.398656   5.164251   0.212138   0.112367  -0.159666
     4  C   -0.001615  -0.077127   0.212138   5.296796   0.241050   0.096327
     5  C    0.001118   0.004389   0.112367   0.241050   5.092003   0.270017
     6  C    0.000033  -0.000167  -0.159666   0.096327   0.270017   5.105567
     7  C   -0.000196   0.002540   0.073737  -0.138149   0.084049   0.260386
     8  C    0.007435  -0.088113   0.194281   0.069499  -0.149953   0.107716
     9  N   -0.000182  -0.000730  -0.071141   0.008135  -0.000284   0.008886
    10  C    0.000244   0.000530  -0.010578   0.000758   0.000011  -0.000369
    11  C    0.000159   0.005036  -0.004144  -0.000916   0.000001   0.000054
    12  C    0.000206  -0.002112   0.000011  -0.000053   0.000001   0.000002
    13  C   -0.000015  -0.000041  -0.000063  -0.000001   0.000000  -0.000000
    14  C    0.000002  -0.000015   0.000030  -0.000000  -0.000000   0.000000
    15  C    0.000013  -0.001035  -0.000833  -0.000027   0.000003  -0.000008
    16  H    0.398479  -0.021130   0.005527   0.000116  -0.000041   0.000004
    17  H    0.404124  -0.028132  -0.013000   0.008486   0.000849  -0.000092
    18  H    0.402134  -0.031389  -0.007933   0.005198   0.000641  -0.000067
    19  H    0.008450  -0.008752  -0.092026   0.467183  -0.064811   0.016054
    20  H   -0.000044  -0.000054   0.015363  -0.069026   0.455954  -0.072328
    21  H   -0.000000   0.000004  -0.002016   0.015514  -0.072545   0.452080
    22  H    0.000010  -0.000047   0.021134  -0.003538   0.016639  -0.070962
    23  H    0.000023   0.000073   0.007961  -0.000229   0.000001   0.000383
    24  H   -0.000145   0.000667  -0.003016  -0.001572   0.000178   0.000095
    25  H    0.000012  -0.000005   0.000040  -0.000001  -0.000000  -0.000000
    26  H   -0.000000   0.000000   0.000000   0.000000  -0.000000  -0.000000
    27  H   -0.000000   0.000000   0.000000   0.000000   0.000000   0.000000
    28  H   -0.000000   0.000004  -0.000027   0.000000   0.000000  -0.000001
               7          8          9         10         11         12
     1  C   -0.000196   0.007435  -0.000182   0.000244   0.000159   0.000206
     2  O    0.002540  -0.088113  -0.000730   0.000530   0.005036  -0.002112
     3  C    0.073737   0.194281  -0.071141  -0.010578  -0.004144   0.000011
     4  C   -0.138149   0.069499   0.008135   0.000758  -0.000916  -0.000053
     5  C    0.084049  -0.149953  -0.000284   0.000011   0.000001   0.000001
     6  C    0.260386   0.107716   0.008886  -0.000369   0.000054   0.000002
     7  C    5.082811   0.348207  -0.066523   0.004542   0.000631  -0.000014
     8  C    0.348207   5.211285   0.318599  -0.037890  -0.008686   0.000161
     9  N   -0.066523   0.318599   6.451101   0.376102  -0.084615   0.007928
    10  C    0.004542  -0.037890   0.376102   5.033782   0.263733   0.122227
    11  C    0.000631  -0.008686  -0.084615   0.263733   5.159276   0.297144
    12  C   -0.000014   0.000161   0.007928   0.122227   0.297144   5.031323
    13  C    0.000002   0.000102  -0.000417  -0.161013   0.077106   0.285937
    14  C   -0.000007  -0.000271   0.007155   0.115668  -0.144263   0.093533
    15  C    0.000104   0.010102  -0.092264   0.260128   0.050644  -0.147675
    16  H    0.000013   0.000041  -0.000009   0.000071  -0.000166   0.000241
    17  H   -0.000001  -0.000416  -0.000000  -0.000083   0.000191  -0.000012
    18  H   -0.000019  -0.000306  -0.000023   0.000204  -0.000123  -0.000048
    19  H   -0.002387   0.015053  -0.000077  -0.000015  -0.000002  -0.000001
    20  H    0.015205  -0.002266   0.000006   0.000001   0.000000  -0.000000
    21  H   -0.067557   0.016058  -0.000149   0.000004   0.000000  -0.000000
    22  H    0.462806  -0.084068  -0.008933  -0.000096  -0.000024   0.000002
    23  H   -0.011481  -0.025789   0.360038  -0.014300   0.009307  -0.000124
    24  H    0.000023   0.007086  -0.015494  -0.067649   0.450037  -0.066670
    25  H    0.000000  -0.000014  -0.000101   0.015527  -0.069300   0.453500
    26  H   -0.000000  -0.000001   0.000011  -0.001527   0.015147  -0.070586
    27  H   -0.000000   0.000005  -0.000109   0.015377  -0.001845   0.014189
    28  H    0.000016  -0.000059  -0.011883  -0.079440   0.017374  -0.002464
              13         14         15         16         17         18
     1  C   -0.000015   0.000002   0.000013   0.398479   0.404124   0.402134
     2  O   -0.000041  -0.000015  -0.001035  -0.021130  -0.028132  -0.031389
     3  C   -0.000063   0.000030  -0.000833   0.005527  -0.013000  -0.007933
     4  C   -0.000001  -0.000000  -0.000027   0.000116   0.008486   0.005198
     5  C    0.000000  -0.000000   0.000003  -0.000041   0.000849   0.000641
     6  C   -0.000000   0.000000  -0.000008   0.000004  -0.000092  -0.000067
     7  C    0.000002  -0.000007   0.000104   0.000013  -0.000001  -0.000019
     8  C    0.000102  -0.000271   0.010102   0.000041  -0.000416  -0.000306
     9  N   -0.000417   0.007155  -0.092264  -0.000009  -0.000000  -0.000023
    10  C   -0.161013   0.115668   0.260128   0.000071  -0.000083   0.000204
    11  C    0.077106  -0.144263   0.050644  -0.000166   0.000191  -0.000123
    12  C    0.285937   0.093533  -0.147675   0.000241  -0.000012  -0.000048
    13  C    5.108801   0.293525   0.079726  -0.000006   0.000000   0.000003
    14  C    0.293525   5.007461   0.306806   0.000001  -0.000000   0.000000
    15  C    0.079726   0.306806   5.210470   0.000004   0.000001  -0.000005
    16  H   -0.000006   0.000001   0.000004   0.604617  -0.023354  -0.023002
    17  H    0.000000  -0.000000   0.000001  -0.023354   0.658845  -0.043811
    18  H    0.000003   0.000000  -0.000005  -0.023002  -0.043811   0.663690
    19  H   -0.000000   0.000000  -0.000001  -0.000279   0.000064   0.000205
    20  H   -0.000000  -0.000000   0.000000  -0.000001   0.000030   0.000036
    21  H   -0.000000   0.000000   0.000000  -0.000000  -0.000000   0.000000
    22  H    0.000000  -0.000001  -0.000104  -0.000000   0.000000  -0.000000
    23  H   -0.000062   0.000411  -0.021165  -0.000001  -0.000005   0.000003
    24  H    0.015504  -0.002443   0.016638  -0.000050   0.000082  -0.000121
    25  H   -0.073424   0.014513  -0.001985   0.000006  -0.000000   0.000007
    26  H    0.451878  -0.071390   0.014844  -0.000000   0.000000  -0.000000
    27  H   -0.070231   0.451212  -0.069106  -0.000000   0.000000   0.000000
    28  H    0.015284  -0.062912   0.448494  -0.000000  -0.000000  -0.000000
              19         20         21         22         23         24
     1  C    0.008450  -0.000044  -0.000000   0.000010   0.000023  -0.000145
     2  O   -0.008752  -0.000054   0.000004  -0.000047   0.000073   0.000667
     3  C   -0.092026   0.015363  -0.002016   0.021134   0.007961  -0.003016
     4  C    0.467183  -0.069026   0.015514  -0.003538  -0.000229  -0.001572
     5  C   -0.064811   0.455954  -0.072545   0.016639   0.000001   0.000178
     6  C    0.016054  -0.072328   0.452080  -0.070962   0.000383   0.000095
     7  C   -0.002387   0.015205  -0.067557   0.462806  -0.011481   0.000023
     8  C    0.015053  -0.002266   0.016058  -0.084068  -0.025789   0.007086
     9  N   -0.000077   0.000006  -0.000149  -0.008933   0.360038  -0.015494
    10  C   -0.000015   0.000001   0.000004  -0.000096  -0.014300  -0.067649
    11  C   -0.000002   0.000000   0.000000  -0.000024   0.009307   0.450037
    12  C   -0.000001  -0.000000  -0.000000   0.000002  -0.000124  -0.066670
    13  C   -0.000000  -0.000000  -0.000000   0.000000  -0.000062   0.015504
    14  C    0.000000  -0.000000   0.000000  -0.000001   0.000411  -0.002443
    15  C   -0.000001   0.000000   0.000000  -0.000104  -0.021165   0.016638
    16  H   -0.000279  -0.000001  -0.000000  -0.000000  -0.000001  -0.000050
    17  H    0.000064   0.000030  -0.000000   0.000000  -0.000005   0.000082
    18  H    0.000205   0.000036   0.000000  -0.000000   0.000003  -0.000121
    19  H    0.678745  -0.013853  -0.000276   0.000006   0.000008  -0.000058
    20  H   -0.013853   0.672586  -0.012381  -0.000264  -0.000001  -0.000004
    21  H   -0.000276  -0.012381   0.674184  -0.013047  -0.000009  -0.000003
    22  H    0.000006  -0.000264  -0.013047   0.685227   0.004053  -0.000035
    23  H    0.000008  -0.000001  -0.000009   0.004053   0.548619  -0.000262
    24  H   -0.000058  -0.000004  -0.000003  -0.000035  -0.000262   0.687847
    25  H   -0.000000   0.000000   0.000000  -0.000000   0.000012  -0.013897
    26  H    0.000000   0.000000   0.000000   0.000000  -0.000001  -0.000262
    27  H   -0.000000   0.000000  -0.000000  -0.000000  -0.000018   0.000020
    28  H   -0.000000   0.000000   0.000000  -0.000014   0.006427  -0.000224
              25         26         27         28
     1  C    0.000012  -0.000000  -0.000000  -0.000000
     2  O   -0.000005   0.000000   0.000000   0.000004
     3  C    0.000040   0.000000   0.000000  -0.000027
     4  C   -0.000001   0.000000   0.000000   0.000000
     5  C   -0.000000  -0.000000   0.000000   0.000000
     6  C   -0.000000  -0.000000   0.000000  -0.000001
     7  C    0.000000  -0.000000  -0.000000   0.000016
     8  C   -0.000014  -0.000001   0.000005  -0.000059
     9  N   -0.000101   0.000011  -0.000109  -0.011883
    10  C    0.015527  -0.001527   0.015377  -0.079440
    11  C   -0.069300   0.015147  -0.001845   0.017374
    12  C    0.453500  -0.070586   0.014189  -0.002464
    13  C   -0.073424   0.451878  -0.070231   0.015284
    14  C    0.014513  -0.071390   0.451212  -0.062912
    15  C   -0.001985   0.014844  -0.069106   0.448494
    16  H    0.000006  -0.000000  -0.000000  -0.000000
    17  H   -0.000000   0.000000   0.000000  -0.000000
    18  H    0.000007  -0.000000   0.000000  -0.000000
    19  H   -0.000000   0.000000  -0.000000  -0.000000
    20  H    0.000000   0.000000   0.000000   0.000000
    21  H    0.000000   0.000000  -0.000000   0.000000
    22  H   -0.000000   0.000000  -0.000000  -0.000014
    23  H    0.000012  -0.000001  -0.000018   0.006427
    24  H   -0.013897  -0.000262   0.000020  -0.000224
    25  H    0.684961  -0.012643  -0.000275   0.000025
    26  H   -0.012643   0.687231  -0.012702  -0.000256
    27  H   -0.000275  -0.012702   0.681348  -0.013483
    28  H    0.000025  -0.000256  -0.013483   0.704219
 Mulliken charges:
               1
     1  C    0.145394
     2  O   -0.361823
     3  C    0.215476
     4  C   -0.128947
     5  C    0.008362
     6  C   -0.013945
     7  C   -0.048738
     8  C    0.092199
     9  N   -0.185026
    10  C    0.164052
    11  C   -0.031756
    12  C   -0.016646
    13  C   -0.022595
    14  C   -0.009016
    15  C   -0.063771
    16  H    0.058921
    17  H    0.036235
    18  H    0.034727
    19  H   -0.003230
    20  H    0.011041
    21  H    0.010138
    22  H   -0.008746
    23  H    0.136127
    24  H   -0.006273
    25  H    0.003042
    26  H    0.000257
    27  H    0.005617
    28  H   -0.021079
 Sum of Mulliken charges =  -0.00000
 Mulliken charges with hydrogens summed into heavy atoms:
               1
     1  C    0.275277
     2  O   -0.361823
     3  C    0.215476
     4  C   -0.132177
     5  C    0.019404
     6  C   -0.003806
     7  C   -0.057484
     8  C    0.092199
     9  N   -0.048898
    10  C    0.164052
    11  C   -0.038030
    12  C   -0.013603
    13  C   -0.022338
    14  C   -0.003399
    15  C   -0.084849
 Electronic spatial extent (au):  <R**2>=           3380.4671
 Charge=             -0.0000 electrons
 Dipole moment (field-independent basis, Debye):
    X=              1.7330    Y=              0.5234    Z=             -0.4620  Tot=              1.8684
 Quadrupole moment (field-independent basis, Debye-Ang):
   XX=            -83.6278   YY=            -75.5842   ZZ=            -89.1145
   XY=              2.1026   XZ=              2.2509   YZ=              3.8642
 Traceless Quadrupole moment (field-independent basis, Debye-Ang):
   XX=             -0.8523   YY=              7.1913   ZZ=             -6.3390
   XY=              2.1026   XZ=              2.2509   YZ=              3.8642
 Octapole moment (field-independent basis, Debye-Ang**2):
  XXX=             10.1770  YYY=             14.8218  ZZZ=             -8.3937  XYY=             16.7677
  XXY=              6.3813  XXZ=              4.1586  XZZ=             -3.8501  YZZ=              4.1610
  YYZ=            -11.3063  XYZ=            -13.2691
 Hexadecapole moment (field-independent basis, Debye-Ang**3):
 XXXX=          -3144.0801 YYYY=           -886.6122 ZZZZ=           -331.6449 XXXY=              2.1243
 XXXZ=             61.4114 YYYX=              8.2995 YYYZ=             -3.9904 ZZZX=             -5.4278
 ZZZY=             10.9731 XXYY=           -697.9968 XXZZ=           -629.8364 YYZZ=           -204.2759
 XXYZ=             19.0297 YYXZ=              7.4793 ZZXY=              3.3776
 N-N= 9.350576011247D+02 E-N=-3.337761050999D+03  KE= 6.260463153592D+02
   1 Symmetry operations used in ECPInt.
 ECPInt:  NShTT=    8385 NPrTT=   30369 LenC2=    7989 LenP2D=   21111.
 LDataN:  DoStor=T MaxTD1= 5 Len=  102
 Calling FoFJK, ICntrl=      2127 FMM=F ISym2X=0 I1Cent= 0 IOpClX= 0 NMat=1 NMatS=1 NMatT=0.
 ***** Axes restored to original set *****
 -------------------------------------------------------------------
 Center     Atomic                   Forces (Hartrees/Bohr)
 Number     Number              X              Y              Z
 -------------------------------------------------------------------
      1        6           0.009271828    0.004740022   -0.007599647
      2        8          -0.020816418    0.027617042   -0.010830909
      3        6           0.017302292   -0.021231546    0.001197810
      4        6           0.006583588   -0.007798413    0.003288626
      5        6          -0.002277629    0.003662077   -0.000816543
      6        6          -0.004219928    0.002557507   -0.002609866
      7        6           0.001800417   -0.003736967    0.002389192
      8        6           0.024330842   -0.018194921    0.001799859
      9        7          -0.002239146   -0.003205829    0.001705282
     10        6          -0.015653751    0.008120379   -0.007352773
     11        6          -0.006243329    0.003282600   -0.000979706
     12        6           0.001320886   -0.000913741   -0.001762398
     13        6           0.007258711   -0.003003492    0.003990336
     14        6           0.001547500    0.000047256    0.002199683
     15        6          -0.007589835    0.002109707   -0.003474423
     16        1           0.005069631   -0.002253995   -0.001145709
     17        1          -0.008669180   -0.003664542    0.000001606
     18        1          -0.004112219    0.001186369    0.008501971
     19        1          -0.006481811   -0.005332171    0.006754429
     20        1          -0.009054658    0.001930713    0.004031168
     21        1          -0.003778161    0.008661236   -0.003829322
     22        1           0.006928913    0.006511418   -0.006889467
     23        1          -0.001243916    0.000104019    0.007549731
     24        1          -0.005928277    0.004787273    0.006539939
     25        1          -0.000915862    0.000844559    0.010460954
     26        1           0.008491260   -0.003058523    0.005395504
     27        1           0.008340343   -0.003038790   -0.005632067
     28        1           0.000977909   -0.000729247   -0.012883259
 -------------------------------------------------------------------
 Cartesian Forces:  Max     0.027617042 RMS     0.007924049

 GradGradGradGradGradGradGradGradGradGradGradGradGradGradGradGradGradGrad
 Berny optimization.
 FormGI is forming the generalized inverse of G from B-inverse, IUseBI=4.
 Internal  Forces:  Max     0.035133294 RMS     0.006504240
 Search for a local minimum.
 Step number   1 out of a maximum of  146
 All quantities printed in internal units (Hartrees-Bohrs-Radians)
 Mixed Optimization -- RFO/linear search
 Second derivative matrix not updated -- first step.
 ITU=  0
     Eigenvalues ---    0.01414   0.01537   0.01587   0.01601   0.01682
     Eigenvalues ---    0.01860   0.01982   0.02001   0.02028   0.02192
     Eigenvalues ---    0.02270   0.02274   0.02289   0.02292   0.02308
     Eigenvalues ---    0.02332   0.02337   0.02352   0.02359   0.02364
     Eigenvalues ---    0.02368   0.02374   0.02374   0.10332   0.10572
     Eigenvalues ---    0.15942   0.15998   0.15998   0.16000   0.16000
     Eigenvalues ---    0.16000   0.16000   0.16000   0.16000   0.16000
     Eigenvalues ---    0.16000   0.16000   0.16000   0.22000   0.22000
     Eigenvalues ---    0.22000   0.22022   0.22481   0.23463   0.24458
     Eigenvalues ---    0.24980   0.24989   0.24998   0.25000   0.34753
     Eigenvalues ---    0.34755   0.34766   0.36259   0.36268   0.36273
     Eigenvalues ---    0.36273   0.36277   0.36476   0.36479   0.36562
     Eigenvalues ---    0.36658   0.40821   0.42305   0.43101   0.43502
     Eigenvalues ---    0.43810   0.44328   0.44508   0.44583   0.45498
     Eigenvalues ---    0.46292   0.47386   0.47915   0.48222   0.48456
     Eigenvalues ---    0.49055   0.49293   0.49771
 RFO step:  Lambda=-1.88220433D-02 EMin= 1.41353836D-02
 Linear search not attempted -- first point.
 Iteration  1 RMS(Cart)=  0.18713128 RMS(Int)=  0.00706142
 Iteration  2 RMS(Cart)=  0.01934402 RMS(Int)=  0.00021441
 Iteration  3 RMS(Cart)=  0.00021670 RMS(Int)=  0.00019833
 Iteration  4 RMS(Cart)=  0.00000006 RMS(Int)=  0.00019833
 Variable       Old X    -DE/DX   Delta X   Delta X   Delta X     New X
                                 (Linear)    (Quad)   (Total)
    R1        2.66064  -0.00100   0.00000  -0.00217  -0.00217   2.65847
    R2        2.06056   0.00425   0.00000   0.01160   0.01160   2.07215
    R3        2.06078   0.00841   0.00000   0.02296   0.02296   2.08374
    R4        2.06074   0.00852   0.00000   0.02326   0.02326   2.08400
    R5        2.64701  -0.03513   0.00000  -0.07415  -0.07415   2.57286
    R6        2.62855   0.00627   0.00000   0.01211   0.01214   2.64069
    R7        2.68141  -0.00251   0.00000  -0.00719  -0.00716   2.67424
    R8        2.60869   0.01431   0.00000   0.02880   0.02881   2.63749
    R9        2.03065   0.01070   0.00000   0.02778   0.02778   2.05843
   R10        2.60317   0.01195   0.00000   0.02458   0.02457   2.62773
   R11        2.03678   0.01002   0.00000   0.02628   0.02628   2.06306
   R12        2.60683   0.01426   0.00000   0.02859   0.02856   2.63538
   R13        2.03651   0.01018   0.00000   0.02668   0.02668   2.06319
   R14        2.62144   0.00925   0.00000   0.01793   0.01792   2.63936
   R15        2.03344   0.01167   0.00000   0.03041   0.03041   2.06385
   R16        2.68537  -0.01407   0.00000  -0.03184  -0.03184   2.65352
   R17        2.65852  -0.01106   0.00000  -0.02384  -0.02384   2.63467
   R18        1.92463  -0.00753   0.00000  -0.01621  -0.01621   1.90841
   R19        2.63383   0.01154   0.00000   0.02354   0.02355   2.65738
   R20        2.63575   0.00904   0.00000   0.01830   0.01829   2.65404
   R21        2.60044   0.01560   0.00000   0.03031   0.03033   2.63076
   R22        2.03212   0.00942   0.00000   0.02449   0.02449   2.05661
   R23        2.61059   0.01390   0.00000   0.02777   0.02778   2.63838
   R24        2.03656   0.01050   0.00000   0.02751   0.02751   2.06408
   R25        2.61100   0.01206   0.00000   0.02401   0.02400   2.63501
   R26        2.03656   0.01051   0.00000   0.02755   0.02755   2.06411
   R27        2.60154   0.01557   0.00000   0.03004   0.03002   2.63156
   R28        2.03665   0.01048   0.00000   0.02748   0.02748   2.06413
   R29        2.03339   0.01292   0.00000   0.03367   0.03367   2.06706
    A1        1.89348  -0.00809   0.00000  -0.04803  -0.04778   1.84570
    A2        1.91867   0.00634   0.00000   0.03704   0.03671   1.95538
    A3        1.91989   0.00630   0.00000   0.03650   0.03617   1.95606
    A4        1.90032  -0.00024   0.00000  -0.00385  -0.00359   1.89673
    A5        1.90005  -0.00053   0.00000  -0.00606  -0.00581   1.89424
    A6        1.93082  -0.00402   0.00000  -0.01717  -0.01795   1.91288
    A7        2.00930   0.01828   0.00000   0.06800   0.06800   2.07730
    A8        2.16337   0.00124   0.00000   0.00640   0.00624   2.16961
    A9        2.05363  -0.00865   0.00000  -0.03039  -0.03052   2.02312
   A10        2.06611   0.00739   0.00000   0.02365   0.02357   2.08967
   A11        2.11436  -0.00237   0.00000  -0.00971  -0.00976   2.10460
   A12        2.08892   0.00239   0.00000   0.01154   0.01145   2.10037
   A13        2.07988  -0.00003   0.00000  -0.00200  -0.00211   2.07778
   A14        2.09866  -0.00200   0.00000  -0.00380  -0.00383   2.09483
   A15        2.09238  -0.00023   0.00000  -0.00499  -0.00500   2.08738
   A16        2.09212   0.00222   0.00000   0.00873   0.00871   2.10083
   A17        2.09207  -0.00252   0.00000  -0.00600  -0.00607   2.08600
   A18        2.09609   0.00180   0.00000   0.00602   0.00602   2.10211
   A19        2.09502   0.00071   0.00000  -0.00005  -0.00005   2.09497
   A20        2.11210   0.00207   0.00000   0.00883   0.00878   2.12087
   A21        2.09894  -0.00014   0.00000   0.00060   0.00062   2.09955
   A22        2.07206  -0.00194   0.00000  -0.00949  -0.00947   2.06259
   A23        2.08265  -0.00261   0.00000  -0.01377  -0.01400   2.06865
   A24        2.11287   0.00619   0.00000   0.02461   0.02431   2.13718
   A25        2.08731  -0.00362   0.00000  -0.01187  -0.01211   2.07521
   A26        2.22846   0.00808   0.00000   0.03267   0.03235   2.26081
   A27        2.02451  -0.00395   0.00000  -0.01812  -0.01845   2.00607
   A28        2.02357  -0.00427   0.00000  -0.01993  -0.02025   2.00332
   A29        2.12259   0.00845   0.00000   0.03177   0.03165   2.15424
   A30        2.09487  -0.00940   0.00000  -0.03466  -0.03472   2.06014
   A31        2.06510   0.00092   0.00000   0.00208   0.00201   2.06710
   A32        2.10943  -0.00233   0.00000  -0.00978  -0.00982   2.09960
   A33        2.07145   0.00369   0.00000   0.01916   0.01904   2.09049
   A34        2.10218  -0.00134   0.00000  -0.00899  -0.00911   2.09307
   A35        2.09548   0.00353   0.00000   0.01595   0.01598   2.11146
   A36        2.09352  -0.00257   0.00000  -0.01249  -0.01253   2.08099
   A37        2.09419  -0.00095   0.00000  -0.00343  -0.00347   2.09072
   A38        2.09242  -0.00431   0.00000  -0.01671  -0.01671   2.07572
   A39        2.09530   0.00235   0.00000   0.00945   0.00942   2.10472
   A40        2.09546   0.00196   0.00000   0.00727   0.00725   2.10270
   A41        2.09722   0.00157   0.00000   0.00679   0.00677   2.10399
   A42        2.09281   0.00002   0.00000   0.00113   0.00114   2.09394
   A43        2.09316  -0.00159   0.00000  -0.00792  -0.00791   2.08525
   A44        2.10668   0.00062   0.00000   0.00154   0.00152   2.10820
   A45        2.07639   0.00049   0.00000   0.00371   0.00372   2.08011
   A46        2.10010  -0.00111   0.00000  -0.00527  -0.00527   2.09484
    D1        3.12451   0.00012   0.00000   0.00077   0.00076   3.12527
    D2        1.04828   0.00156   0.00000   0.01264   0.01344   1.06172
    D3       -1.08205  -0.00171   0.00000  -0.01416  -0.01495  -1.09700
    D4        0.02099  -0.00101   0.00000  -0.02810  -0.02783  -0.00685
    D5       -3.10686   0.00007   0.00000   0.00168   0.00142  -3.10544
    D6       -3.11038   0.00221   0.00000   0.05487   0.05534  -3.05505
    D7        0.02371   0.00120   0.00000   0.03015   0.03048   0.05420
    D8        0.01737   0.00100   0.00000   0.02450   0.02463   0.04200
    D9       -3.13172   0.00000   0.00000  -0.00023  -0.00022  -3.13194
   D10        3.09641  -0.00232   0.00000  -0.06073  -0.06054   3.03587
   D11       -0.01679  -0.00068   0.00000  -0.01819  -0.01778  -0.03457
   D12       -0.03222  -0.00127   0.00000  -0.03254  -0.03259  -0.06482
   D13        3.13777   0.00038   0.00000   0.01000   0.01016  -3.13526
   D14        0.00307   0.00012   0.00000   0.00208   0.00234   0.00541
   D15        3.13861  -0.00037   0.00000  -0.00990  -0.00967   3.12894
   D16       -3.13107   0.00110   0.00000   0.02663   0.02682  -3.10425
   D17        0.00447   0.00062   0.00000   0.01465   0.01481   0.01928
   D18       -0.00871  -0.00081   0.00000  -0.02024  -0.02016  -0.02887
   D19        3.13497  -0.00024   0.00000  -0.00673  -0.00669   3.12829
   D20        3.13893  -0.00032   0.00000  -0.00821  -0.00801   3.13093
   D21       -0.00057   0.00025   0.00000   0.00530   0.00547   0.00490
   D22       -0.00683   0.00053   0.00000   0.01149   0.01149   0.00466
   D23       -3.13370   0.00072   0.00000   0.01663   0.01667  -3.11702
   D24        3.13267  -0.00004   0.00000  -0.00201  -0.00192   3.13075
   D25        0.00581   0.00015   0.00000   0.00314   0.00326   0.00907
   D26        0.02741   0.00047   0.00000   0.01489   0.01463   0.04205
   D27        3.14103  -0.00099   0.00000  -0.02642  -0.02597   3.11506
   D28       -3.12869   0.00030   0.00000   0.00990   0.00963  -3.11905
   D29       -0.01507  -0.00116   0.00000  -0.03141  -0.03097  -0.04604
   D30       -0.84201  -0.00589   0.00000  -0.17501  -0.17513  -1.01714
   D31        2.42917  -0.00409   0.00000  -0.12090  -0.12103   2.30814
   D32        2.32805  -0.00426   0.00000  -0.13233  -0.13219   2.19586
   D33       -0.68396  -0.00245   0.00000  -0.07822  -0.07809  -0.76205
   D34       -0.13100  -0.00288   0.00000  -0.08010  -0.08014  -0.21113
   D35        3.04954  -0.00193   0.00000  -0.05537  -0.05538   2.99416
   D36        2.88107  -0.00467   0.00000  -0.13408  -0.13407   2.74700
   D37       -0.22158  -0.00372   0.00000  -0.10934  -0.10930  -0.33088
   D38       -3.11378   0.00056   0.00000   0.01044   0.01095  -3.10283
   D39        0.04526  -0.00051   0.00000  -0.01500  -0.01481   0.03045
   D40       -0.01048  -0.00059   0.00000  -0.01470  -0.01470  -0.02518
   D41       -3.13463  -0.00167   0.00000  -0.04014  -0.04045   3.10810
   D42        3.11361  -0.00019   0.00000  -0.00907  -0.00866   3.10495
   D43       -0.03337  -0.00040   0.00000  -0.01357  -0.01321  -0.04658
   D44        0.00969   0.00055   0.00000   0.01417   0.01413   0.02382
   D45       -3.13729   0.00034   0.00000   0.00967   0.00958  -3.12771
   D46        0.00566   0.00018   0.00000   0.00383   0.00388   0.00954
   D47       -3.13258  -0.00033   0.00000  -0.00741  -0.00736  -3.13995
   D48        3.12950   0.00132   0.00000   0.03000   0.02995  -3.12373
   D49       -0.00874   0.00082   0.00000   0.01877   0.01871   0.00996
   D50        0.00021   0.00030   0.00000   0.00795   0.00784   0.00805
   D51       -3.14012  -0.00015   0.00000  -0.00308  -0.00313   3.13993
   D52        3.13845   0.00080   0.00000   0.01917   0.01913  -3.12561
   D53       -0.00188   0.00035   0.00000   0.00814   0.00816   0.00627
   D54       -0.00098  -0.00037   0.00000  -0.00853  -0.00853  -0.00951
   D55        3.14127  -0.00032   0.00000  -0.00825  -0.00815   3.13313
   D56        3.13935   0.00008   0.00000   0.00250   0.00243  -3.14140
   D57       -0.00158   0.00013   0.00000   0.00278   0.00282   0.00123
   D58       -0.00409  -0.00006   0.00000  -0.00269  -0.00253  -0.00662
   D59       -3.14022   0.00015   0.00000   0.00185   0.00203  -3.13819
   D60        3.13684  -0.00011   0.00000  -0.00296  -0.00291   3.13393
   D61        0.00071   0.00010   0.00000   0.00157   0.00166   0.00237
         Item               Value     Threshold  Converged?
 Maximum Force            0.035133     0.000450     NO 
 RMS     Force            0.006504     0.000300     NO 
 Maximum Displacement     0.778381     0.001800     NO 
 RMS     Displacement     0.200067     0.001200     NO 
 Predicted change in Energy=-1.100469D-02
 GradGradGradGradGradGradGradGradGradGradGradGradGradGradGradGradGradGrad

                          Input orientation:                          
 ---------------------------------------------------------------------
 Center     Atomic      Atomic             Coordinates (Angstroms)
 Number     Number       Type             X           Y           Z
 ---------------------------------------------------------------------
      1          6           0       -1.933075   -2.237042    1.249363
      2          8           0       -1.173867   -1.364272    0.448758
      3          6           0       -1.690607   -0.146901    0.125234
      4          6           0       -2.948194    0.307925    0.530601
      5          6           0       -3.444530    1.528234    0.069647
      6          6           0       -2.689177    2.300521   -0.805915
      7          6           0       -1.422007    1.862823   -1.190063
      8          6           0       -0.891512    0.659481   -0.719656
      9          7           0        0.376723    0.255902   -1.167359
     10          6           0        1.507559   -0.094949   -0.431198
     11          6           0        1.634239    0.133954    0.950475
     12          6           0        2.811979   -0.201117    1.612825
     13          6           0        3.890883   -0.757661    0.923249
     14          6           0        3.777634   -0.966990   -0.450676
     15          6           0        2.603342   -0.637011   -1.122521
     16          1           0       -1.326900   -3.144290    1.358206
     17          1           0       -2.890590   -2.507118    0.773864
     18          1           0       -2.122848   -1.819859    2.252423
     19          1           0       -3.567792   -0.300633    1.188075
     20          1           0       -4.434092    1.862467    0.387326
     21          1           0       -3.076054    3.250279   -1.180479
     22          1           0       -0.808593    2.470355   -1.858947
     23          1           0        0.535928    0.373224   -2.157695
     24          1           0        0.809963    0.582259    1.501848
     25          1           0        2.890935   -0.017179    2.686589
     26          1           0        4.812593   -1.016764    1.448984
     27          1           0        4.614106   -1.394009   -1.008410
     28          1           0        2.522685   -0.807818   -2.199928
 ---------------------------------------------------------------------
                    Distance matrix (angstroms):
                    1          2          3          4          5
     1  C    0.000000
     2  O    1.406801   0.000000
     3  C    2.385612   1.361500   0.000000
     4  C    2.832656   2.439503   1.397395   0.000000
     5  C    4.225343   3.696786   2.425986   1.395701   0.000000
     6  C    5.038386   4.159456   2.802508   2.413256   1.390537
     7  C    4.798008   3.627872   2.416846   2.776264   2.406121
     8  C    3.654002   2.353825   1.415148   2.432422   2.809917
     9  N    4.170189   2.764259   2.471215   3.733744   4.213192
    10  C    4.387574   3.094438   3.246626   4.576144   5.235336
    11  C    4.293795   3.222089   3.437223   4.604915   5.339828
    12  C    5.176160   4.312186   4.742273   5.883020   6.672028
    13  C    6.017757   5.122968   5.671233   6.932720   7.730603
    14  C    6.092237   5.048185   5.559306   6.915567   7.658755
    15  C    5.363302   4.155133   4.498344   5.869009   6.533475
    16  H    1.096537   2.004739   3.261417   3.902731   5.289349
    17  H    1.102667   2.087804   2.726041   2.826121   4.133622
    18  H    1.102808   2.088380   2.740539   2.858904   4.209642
    19  H    2.534903   2.721910   2.162657   1.089274   2.147284
    20  H    4.878951   4.587449   3.410712   2.155232   1.091726
    21  H    6.109109   5.250411   3.894249   3.406110   2.159636
    22  H    5.752012   4.490357   3.400729   3.868325   3.399299
    23  H    4.951515   3.568738   3.231061   4.401170   4.705225
    24  H    3.941632   2.972131   2.946115   3.891313   4.587676
    25  H    5.501316   4.831683   5.250514   6.232928   7.026720
    26  H    6.858058   6.079384   6.693324   7.926413   8.749837
    27  H    6.976662   5.968656   6.526089   7.902753   8.639636
    28  H    5.813268   4.581449   4.857471   6.215399   6.798218
                    6          7          8          9         10
     6  C    0.000000
     7  C    1.394585   0.000000
     8  C    2.435581   1.396690   0.000000
     9  N    3.702817   2.412083   1.404184   0.000000
    10  C    4.846780   3.604318   2.531385   1.394209   0.000000
    11  C    5.144982   4.112363   3.073261   2.466057   1.406223
    12  C    6.509317   5.481120   4.460599   3.724079   2.427099
    13  C    7.459200   6.289661   5.251545   4.212751   2.820274
    14  C    7.254134   5.965803   4.951634   3.684467   2.431888
    15  C    6.061360   4.738899   3.749292   2.399403   1.404457
    16  H    6.015412   5.619066   4.356116   4.565317   4.531512
    17  H    5.064549   5.011001   4.031657   4.698719   5.158919
    18  H    5.162528   5.089602   4.061597   4.717155   4.832907
    19  H    3.393223   3.865292   3.423994   4.627851   5.331373
    20  H    2.158806   3.400120   3.901598   5.304907   6.309095
    21  H    1.091793   2.158934   3.420061   4.570354   5.723764
    22  H    2.162017   1.092144   2.141058   2.605201   3.739494
    23  H    3.992879   2.643620   2.046334   1.009889   2.035693
    24  H    4.530140   3.723966   2.799296   2.723760   2.163773
    25  H    6.979037   6.096254   5.134907   4.609636   3.411799
    26  H    8.506791   7.357094   6.328476   5.304891   3.912553
    27  H    8.187093   6.861094   5.883198   4.550042   3.416338
    28  H    6.226439   4.869574   4.000114   2.608228   2.160341
                   11         12         13         14         15
    11  C    0.000000
    12  C    1.392140   0.000000
    13  C    2.426553   1.396169   0.000000
    14  C    2.787372   2.403557   1.394387   0.000000
    15  C    2.414717   2.777706   2.420227   1.392561   0.000000
    16  H    4.436380   5.085019   5.754167   5.836862   5.280839
    17  H    5.242187   6.208123   7.005090   6.952460   6.105478
    18  H    4.430367   5.232774   6.249794   6.545977   5.926740
    19  H    5.225557   6.394670   7.477355   7.555450   6.598098
    20  H    6.334788   7.633203   8.743998   8.725854   7.619219
    21  H    6.036497   7.374525   8.308277   8.080285   6.882581
    22  H    4.395344   5.683178   6.343956   5.901869   4.673259
    23  H    3.305186   4.441520   4.693276   3.901121   2.523164
    24  H    1.088311   2.152688   3.409139   3.875512   3.404429
    25  H    2.148538   1.092262   2.158142   3.395704   3.869912
    26  H    3.416811   2.166697   1.092282   2.163868   3.411399
    27  H    3.879627   3.397281   2.158541   1.092290   2.151567
    28  H    3.406070   3.871545   3.410091   2.158730   1.093840
                   16         17         18         19         20
    16  H    0.000000
    17  H    1.786776   0.000000
    18  H    1.785293   1.802190   0.000000
    19  H    3.624489   2.344941   2.351329   0.000000
    20  H    5.972007   4.650278   4.730747   2.463875   0.000000
    21  H    7.098941   6.082883   6.196751   4.296607   2.495656
    22  H    6.491761   6.003470   6.085769   4.957409   4.308076
    23  H    5.310799   5.350834   5.597128   5.337488   5.778934
    24  H    4.298138   4.875274   3.864572   4.476907   5.511915
    25  H    5.416046   6.579083   5.345668   6.636343   7.904157
    26  H    6.498306   7.875021   7.027859   8.414973   9.742601
    27  H    6.630227   7.793328   7.496727   8.541866   9.717129
    28  H    5.739227   6.405826   6.513727   6.987826   7.888033
                   21         22         23         24         25
    21  H    0.000000
    22  H    2.491983   0.000000
    23  H    4.720043   2.508973   0.000000
    24  H    5.423498   4.180858   3.675737   0.000000
    25  H    7.825308   6.366807   5.400514   2.468477   0.000000
    26  H    9.346255   7.395954   5.764552   4.310535   2.494716
    27  H    8.985409   6.712852   4.590806   4.967749   4.303254
    28  H    6.989514   4.686161   2.311677   4.309162   4.963745
                   26         27         28
    26  H    0.000000
    27  H    2.494092   0.000000
    28  H    4.312992   2.477373   0.000000
 Stoichiometry    C13H13NO
 Framework group  C1[X(C13H13NO)]
 Deg. of freedom    78
 Full point group                 C1      NOp   1
 Largest Abelian subgroup         C1      NOp   1
 Largest concise Abelian subgroup C1      NOp   1
                         Standard orientation:                         
 ---------------------------------------------------------------------
 Center     Atomic      Atomic             Coordinates (Angstroms)
 Number     Number       Type             X           Y           Z
 ---------------------------------------------------------------------
      1          6           0        1.262529    2.868176   -0.555140
      2          8           0        0.777374    1.548233   -0.593417
      3          6           0        1.586964    0.534711   -0.179872
      4          6           0        2.894059    0.709348    0.282422
      5          6           0        3.691723   -0.393766    0.590406
      6          6           0        3.190121   -1.680992    0.432174
      7          6           0        1.876737   -1.858100   -0.002017
      8          6           0        1.049531   -0.769876   -0.288795
      9          7           0       -0.253401   -1.011672   -0.753162
     10          6           0       -1.472098   -0.550031   -0.257698
     11          6           0       -1.611940    0.078950    0.992218
     12          6           0       -2.868486    0.473609    1.443206
     13          6           0       -4.011949    0.245338    0.675304
     14          6           0       -3.880839   -0.396961   -0.555378
     15          6           0       -2.628362   -0.794204   -1.016600
     16          1           0        0.451745    3.494754   -0.945553
     17          1           0        2.150803    3.001148   -1.194799
     18          1           0        1.494305    3.194897    0.472342
     19          1           0        3.314648    1.709524    0.378705
     20          1           0        4.714640   -0.238992    0.939050
     21          1           0        3.812325   -2.548933    0.659227
     22          1           0        1.462491   -2.862993   -0.108645
     23          1           0       -0.328085   -1.733690   -1.455293
     24          1           0       -0.734080    0.250420    1.612201
     25          1           0       -2.956817    0.962110    2.416140
     26          1           0       -4.994967    0.556248    1.035985
     27          1           0       -4.765089   -0.591289   -1.166471
     28          1           0       -2.535045   -1.294588   -1.984791
 ---------------------------------------------------------------------
 Rotational constants (GHZ):           1.1923827           0.3766006           0.3253754
 Standard basis: def2SVP (5D, 7F)
 There are   290 symmetry adapted cartesian basis functions of A   symmetry.
 There are   275 symmetry adapted basis functions of A   symmetry.
   275 basis functions,   466 primitive gaussians,   290 cartesian basis functions
    53 alpha electrons       53 beta electrons
       nuclear repulsion energy       924.1763934878 Hartrees.
 NAtoms=   28 NActive=   28 NUniq=   28 SFac= 1.00D+00 NAtFMM=   60 NAOKFM=F Big=F
 Integral buffers will be    131072 words long.
 Raffenetti 2 integral format.
 Two-electron integral symmetry is turned on.
 Nuclear repulsion after empirical dispersion term =      924.1593674902 Hartrees.
 One-electron integrals computed using PRISM.
   1 Symmetry operations used in ECPInt.
 ECPInt:  NShTT=    8385 NPrTT=   30369 LenC2=    7949 LenP2D=   20917.
 LDataN:  DoStor=T MaxTD1= 4 Len=   56
 NBasis=   275 RedAO= T EigKep=  2.14D-04  NBF=   275
 NBsUse=   275 1.00D-06 EigRej= -1.00D+00 NBFU=   275
 Initial guess from the checkpoint file:  "prod_3f_4.chk"
 B after Tr=     0.000000    0.000000   -0.000000
         Rot=    0.998228   -0.057015    0.008167    0.014934 Ang=  -6.82 deg.
 ExpMin= 1.22D-01 ExpMax= 2.27D+03 ExpMxC= 3.41D+02 IAcc=3 IRadAn=         5 AccDes= 0.00D+00
 Harris functional with IExCor= 4639 and IRadAn=       5 diagonalized for initial guess.
 HarFok:  IExCor= 4639 AccDes= 0.00D+00 IRadAn=         5 IDoV= 1 UseB2=F ITyADJ=14
 ICtDFT=  3500011 ScaDFX=  1.000000  1.000000  1.000000  1.000000
 FoFCou: FMM=F IPFlag=           0 FMFlag=      100000 FMFlg1=           0
         NFxFlg=           0 DoJE=T BraDBF=F KetDBF=T FulRan=T
         wScrn=  0.000000 ICntrl=       500 IOpCl=  0 I1Cent=   200000004 NGrid=           0
         NMat0=    1 NMatS0=      1 NMatT0=    0 NMatD0=    1 NMtDS0=    0 NMtDT0=    0
 Petite list used in FoFCou.
 Requested convergence on RMS density matrix=1.00D-08 within 128 cycles.
 Requested convergence on MAX density matrix=1.00D-06.
 Requested convergence on             energy=1.00D-06.
 No special actions if energy rises.
 Integral accuracy reduced to 1.0D-05 until final iterations.
 Initial convergence to 1.0D-05 achieved.  Increase integral accuracy.
 SCF Done:  E(RwB97XD) =  -632.511522747     A.U. after   15 cycles
            NFock= 15  Conv=0.61D-08     -V/T= 2.0110
   1 Symmetry operations used in ECPInt.
 ECPInt:  NShTT=    8385 NPrTT=   30369 LenC2=    7949 LenP2D=   20917.
 LDataN:  DoStor=T MaxTD1= 5 Len=  102
 Calling FoFJK, ICntrl=      2127 FMM=F ISym2X=0 I1Cent= 0 IOpClX= 0 NMat=1 NMatS=1 NMatT=0.
 ***** Axes restored to original set *****
 -------------------------------------------------------------------
 Center     Atomic                   Forces (Hartrees/Bohr)
 Number     Number              X              Y              Z
 -------------------------------------------------------------------
      1        6           0.005838350    0.000945977   -0.002307057
      2        8          -0.005308148    0.009406301    0.001691380
      3        6           0.005353125   -0.010944548    0.000186777
      4        6           0.000309660   -0.000856625    0.000446322
      5        6           0.001481605    0.000683748   -0.001506370
      6        6          -0.001305307    0.000247888   -0.000501986
      7        6          -0.000962420    0.000865466    0.003270982
      8        6           0.002454064    0.003700880   -0.000164531
[...]
     8  C    0.002604  -0.108422   0.326125  -0.017511  -0.082352  -0.066897
     9  N   -0.000028  -0.005258  -0.011030  -0.001573   0.004099   0.013572
    10  C    0.000339   0.001186  -0.001785   0.004627  -0.001661  -0.000895
    11  C   -0.001088   0.020428  -0.007434  -0.004009   0.001541   0.001788
    12  C    0.000451   0.000781   0.002075  -0.000212   0.000127   0.000042
    13  C   -0.000044  -0.000242  -0.000285   0.000027  -0.000005   0.000002
    14  C    0.000016  -0.000306   0.000206  -0.000036   0.000007  -0.000004
    15  C   -0.000099  -0.000283   0.000656   0.000582  -0.000180  -0.000424
    16  H    0.403173  -0.033549   0.007606  -0.001358   0.000152  -0.000023
    17  H    0.414384  -0.034361  -0.017399   0.008218   0.001160  -0.000177
    18  H    0.414825  -0.042501  -0.012894   0.011857  -0.001312   0.000135
    19  H    0.006619  -0.003500  -0.058590   0.425387  -0.022228   0.004906
    20  H   -0.000083  -0.000108   0.010018  -0.050060   0.433404  -0.051868
    21  H   -0.000004   0.000013  -0.005120   0.015109  -0.066771   0.443913
    22  H    0.000032  -0.000101   0.013163  -0.003769   0.011326  -0.036861
    23  H    0.000047  -0.000563   0.007922  -0.000971   0.000325   0.001276
    24  H   -0.000678  -0.007215  -0.000430   0.002794  -0.000703   0.000111
    25  H    0.000027   0.000036   0.000060   0.000002  -0.000000   0.000000
    26  H   -0.000000  -0.000001  -0.000001  -0.000000   0.000000  -0.000000
    27  H    0.000000  -0.000000   0.000000  -0.000000   0.000000   0.000000
    28  H   -0.000002   0.000104  -0.000289   0.000027  -0.000007   0.000001
               7          8          9         10         11         12
     1  C   -0.000961   0.002604  -0.000028   0.000339  -0.001088   0.000451
     2  O    0.000678  -0.108422  -0.005258   0.001186   0.020428   0.000781
     3  C    0.017351   0.326125  -0.011030  -0.001785  -0.007434   0.002075
     4  C   -0.076317  -0.017511  -0.001573   0.004627  -0.004009  -0.000212
     5  C    0.002743  -0.082352   0.004099  -0.001661   0.001541   0.000127
     6  C    0.464920  -0.066897   0.013572  -0.000895   0.001788   0.000042
     7  C    5.050065   0.372416   0.004025  -0.000667   0.015330   0.000382
     8  C    0.372416   5.394509   0.143053  -0.066253  -0.059248  -0.012238
     9  N    0.004025   0.143053   6.562406   0.283957  -0.038362   0.004706
    10  C   -0.000667  -0.066253   0.283957   4.967664   0.394193   0.006249
    11  C    0.015330  -0.059248  -0.038362   0.394193   5.192232   0.427680
    12  C    0.000382  -0.012238   0.004706   0.006249   0.427680   4.945032
    13  C    0.000037   0.001993   0.001842  -0.090940   0.020936   0.448611
    14  C   -0.000013  -0.002781   0.004064  -0.004174  -0.080719   0.013893
    15  C   -0.011548   0.049718  -0.032496   0.276898  -0.002439  -0.095578
    16  H    0.000064   0.000521   0.000080  -0.000126  -0.000046   0.000261
    17  H    0.000068  -0.003419   0.000134  -0.000369   0.000909   0.000020
    18  H   -0.000165   0.000094  -0.000392   0.000838  -0.002190  -0.000115
    19  H    0.000117   0.005299  -0.000209   0.000013  -0.000179  -0.000009
    20  H    0.010744  -0.002532   0.000003   0.000011  -0.000008  -0.000000
    21  H   -0.058447   0.019064  -0.000569   0.000058  -0.000047  -0.000001
    22  H    0.440136  -0.080198   0.005617  -0.001231   0.000916   0.000047
    23  H    0.011766  -0.071862   0.397269  -0.054751   0.010790  -0.000161
    24  H   -0.000676   0.015327  -0.006829  -0.035236   0.413348  -0.037362
    25  H   -0.000007  -0.000004  -0.000208   0.012856  -0.057042   0.438021
    26  H    0.000000   0.000002   0.000018  -0.004173   0.013588  -0.060771
    27  H    0.000004  -0.000020  -0.000243   0.017640  -0.004038   0.011870
    28  H   -0.000493   0.002795   0.004916  -0.089151   0.005891  -0.002943
              13         14         15         16         17         18
     1  C   -0.000044   0.000016  -0.000099   0.403173   0.414384   0.414825
     2  O   -0.000242  -0.000306  -0.000283  -0.033549  -0.034361  -0.042501
     3  C   -0.000285   0.000206   0.000656   0.007606  -0.017399  -0.012894
     4  C    0.000027  -0.000036   0.000582  -0.001358   0.008218   0.011857
     5  C   -0.000005   0.000007  -0.000180   0.000152   0.001160  -0.001312
     6  C    0.000002  -0.000004  -0.000424  -0.000023  -0.000177   0.000135
     7  C    0.000037  -0.000013  -0.011548   0.000064   0.000068  -0.000165
     8  C    0.001993  -0.002781   0.049718   0.000521  -0.003419   0.000094
     9  N    0.001842   0.004064  -0.032496   0.000080   0.000134  -0.000392
    10  C   -0.090940  -0.004174   0.276898  -0.000126  -0.000369   0.000838
    11  C    0.020936  -0.080719  -0.002439  -0.000046   0.000909  -0.002190
    12  C    0.448611   0.013893  -0.095578   0.000261   0.000020  -0.000115
    13  C    4.967977   0.451082   0.028546  -0.000003  -0.000006   0.000049
    14  C    0.451082   4.865312   0.461516   0.000010   0.000005  -0.000025
    15  C    0.028546   0.461516   5.264344  -0.000000  -0.000058   0.000076
    16  H   -0.000003   0.000010  -0.000000   0.515494  -0.019668  -0.019179
    17  H   -0.000006   0.000005  -0.000058  -0.019668   0.584052  -0.054211
    18  H    0.000049  -0.000025   0.000076  -0.019179  -0.054211   0.580690
    19  H    0.000001  -0.000000   0.000007   0.000051  -0.002911   0.000101
    20  H    0.000000  -0.000000   0.000000   0.000000  -0.000005  -0.000011
    21  H    0.000000  -0.000000   0.000011  -0.000000  -0.000001   0.000002
    22  H   -0.000001   0.000009  -0.000754  -0.000000  -0.000000   0.000001
    23  H    0.000027   0.000939  -0.009146   0.000004  -0.000010   0.000007
    24  H    0.006148  -0.001422   0.007218  -0.000068  -0.000123   0.001033
    25  H   -0.055422   0.009835  -0.002412   0.000002  -0.000000   0.000002
    26  H    0.446512  -0.059386   0.012719   0.000000  -0.000000   0.000000
    27  H   -0.060977   0.444418  -0.062915  -0.000000   0.000000  -0.000000
    28  H    0.009693  -0.028382   0.445116  -0.000002  -0.000001   0.000001
              19         20         21         22         23         24
     1  C    0.006619  -0.000083  -0.000004   0.000032   0.000047  -0.000678
     2  O   -0.003500  -0.000108   0.000013  -0.000101  -0.000563  -0.007215
     3  C   -0.058590   0.010018  -0.005120   0.013163   0.007922  -0.000430
     4  C    0.425387  -0.050060   0.015109  -0.003769  -0.000971   0.002794
     5  C   -0.022228   0.433404  -0.066771   0.011326   0.000325  -0.000703
     6  C    0.004906  -0.051868   0.443913  -0.036861   0.001276   0.000111
     7  C    0.000117   0.010744  -0.058447   0.440136   0.011766  -0.000676
     8  C    0.005299  -0.002532   0.019064  -0.080198  -0.071862   0.015327
     9  N   -0.000209   0.000003  -0.000569   0.005617   0.397269  -0.006829
    10  C    0.000013   0.000011   0.000058  -0.001231  -0.054751  -0.035236
    11  C   -0.000179  -0.000008  -0.000047   0.000916   0.010790   0.413348
    12  C   -0.000009  -0.000000  -0.000001   0.000047  -0.000161  -0.037362
    13  C    0.000001   0.000000   0.000000  -0.000001   0.000027   0.006148
    14  C   -0.000000  -0.000000  -0.000000   0.000009   0.000939  -0.001422
    15  C    0.000007   0.000000   0.000011  -0.000754  -0.009146   0.007218
    16  H    0.000051   0.000000  -0.000000  -0.000000   0.000004  -0.000068
    17  H   -0.002911  -0.000005  -0.000001  -0.000000  -0.000010  -0.000123
    18  H    0.000101  -0.000011   0.000002   0.000001   0.000007   0.001033
    19  H    0.513501  -0.005396  -0.000139   0.000017   0.000008   0.000027
    20  H   -0.005396   0.543983  -0.006858  -0.000155  -0.000002  -0.000001
    21  H   -0.000139  -0.006858   0.551965  -0.007994  -0.000039   0.000006
    22  H    0.000017  -0.000155  -0.007994   0.538361   0.003731  -0.000083
    23  H    0.000008  -0.000002  -0.000039   0.003731   0.471899  -0.000303
    24  H    0.000027  -0.000001   0.000006  -0.000083  -0.000303   0.519968
    25  H   -0.000000   0.000000   0.000000  -0.000000   0.000017  -0.006513
    26  H    0.000000   0.000000  -0.000000   0.000000  -0.000002  -0.000107
    27  H   -0.000000   0.000000  -0.000000   0.000000  -0.000033   0.000026
    28  H    0.000000   0.000000   0.000000  -0.000037   0.003401  -0.000170
              25         26         27         28
     1  C    0.000027  -0.000000   0.000000  -0.000002
     2  O    0.000036  -0.000001  -0.000000   0.000104
     3  C    0.000060  -0.000001   0.000000  -0.000289
     4  C    0.000002  -0.000000  -0.000000   0.000027
     5  C   -0.000000   0.000000   0.000000  -0.000007
     6  C    0.000000  -0.000000   0.000000   0.000001
     7  C   -0.000007   0.000000   0.000004  -0.000493
     8  C   -0.000004   0.000002  -0.000020   0.002795
     9  N   -0.000208   0.000018  -0.000243   0.004916
    10  C    0.012856  -0.004173   0.017640  -0.089151
    11  C   -0.057042   0.013588  -0.004038   0.005891
    12  C    0.438021  -0.060771   0.011870  -0.002943
    13  C   -0.055422   0.446512  -0.060977   0.009693
    14  C    0.009835  -0.059386   0.444418  -0.028382
    15  C   -0.002412   0.012719  -0.062915   0.445116
    16  H    0.000002   0.000000  -0.000000  -0.000002
    17  H   -0.000000  -0.000000   0.000000  -0.000001
    18  H    0.000002   0.000000  -0.000000   0.000001
    19  H   -0.000000   0.000000  -0.000000   0.000000
    20  H    0.000000   0.000000   0.000000   0.000000
    21  H    0.000000  -0.000000  -0.000000   0.000000
    22  H   -0.000000   0.000000   0.000000  -0.000037
    23  H    0.000017  -0.000002  -0.000033   0.003401
    24  H   -0.006513  -0.000107   0.000026  -0.000170
    25  H    0.554734  -0.007112  -0.000185   0.000046
    26  H   -0.007112   0.554115  -0.007068  -0.000127
    27  H   -0.000185  -0.007068   0.556880  -0.008761
    28  H    0.000046  -0.000127  -0.008761   0.551421
 Mulliken charges:
               1
     1  C   -0.227743
     2  O   -0.273473
     3  C    0.190767
     4  C   -0.224854
     5  C   -0.154710
     6  C   -0.117811
     7  C   -0.241551
     8  C    0.240219
     9  N   -0.332561
    10  C    0.384886
    11  C   -0.262722
    12  C   -0.090858
    13  C   -0.175556
    14  C   -0.074062
    15  C   -0.329075
    16  H    0.146603
    17  H    0.123770
    18  H    0.123284
    19  H    0.137109
    20  H    0.118922
    21  H    0.115849
    22  H    0.117828
    23  H    0.228414
    24  H    0.131913
    25  H    0.113268
    26  H    0.111793
    27  H    0.113401
    28  H    0.106951
 Sum of Mulliken charges =  -0.00000
 Mulliken charges with hydrogens summed into heavy atoms:
               1
     1  C    0.165915
     2  O   -0.273473
     3  C    0.190767
     4  C   -0.087745
     5  C   -0.035788
     6  C   -0.001963
     7  C   -0.123723
     8  C    0.240219
     9  N   -0.104148
    10  C    0.384886
    11  C   -0.130809
    12  C    0.022409
    13  C   -0.063763
    14  C    0.039340
    15  C   -0.222124
 Electronic spatial extent (au):  <R**2>=           3380.8213
 Charge=             -0.0000 electrons
 Dipole moment (field-independent basis, Debye):
    X=              1.2608    Y=              0.5797    Z=             -0.3404  Tot=              1.4288
 Quadrupole moment (field-independent basis, Debye-Ang):
   XX=            -84.5310   YY=            -77.3534   ZZ=            -88.8525
   XY=              2.0189   XZ=              2.7022   YZ=              4.1570
 Traceless Quadrupole moment (field-independent basis, Debye-Ang):
   XX=             -0.9520   YY=              6.2256   ZZ=             -5.2736
   XY=              2.0189   XZ=              2.7022   YZ=              4.1570
 Octapole moment (field-independent basis, Debye-Ang**2):
  XXX=              5.1587  YYY=             14.3148  ZZZ=             -8.2354  XYY=             19.4367
  XXY=              8.5959  XXZ=              5.0563  XZZ=             -7.5721  YZZ=              3.7004
  YYZ=            -11.1668  XYZ=            -13.5704
 Hexadecapole moment (field-independent basis, Debye-Ang**3):
 XXXX=          -3139.7393 YYYY=           -877.3968 ZZZZ=           -386.1495 XXXY=              0.8456
 XXXZ=             68.7440 YYYX=              6.4942 YYYZ=             -6.6942 ZZZX=             -7.7784
 ZZZY=             18.6746 XXYY=           -708.7091 XXZZ=           -631.6702 YYZZ=           -213.2793
 XXYZ=             19.8956 YYXZ=             10.6684 ZZXY=              3.4681
 N-N= 9.330221799179D+02 E-N=-3.338721356692D+03  KE= 6.297637504629D+02
 Breneman (CHELPG) radii used.
 Read replacement radii for each type of atom:
 Atom Element Radius
    1     6    1.50
    2     8    1.70
    3     6    1.50
    4     6    1.50
    5     6    1.50
    6     6    1.50
    7     6    1.50
    8     6    1.50
    9     7    1.70
   10     6    1.50
   11     6    1.50
   12     6    1.50
   13     6    1.50
   14     6    1.50
   15     6    1.50
   16     1    1.45
   17     1    1.45
   18     1    1.45
   19     1    1.45
   20     1    1.45
   21     1    1.45
   22     1    1.45
   23     1    1.45
   24     1    1.45
   25     1    1.45
   26     1    1.45
   27     1    1.45
   28     1    1.45
 Generate Potential Derived Charges using the Breneman model, NDens= 1.
 Grid spacing= 0.300 Box extension= 2.800
 NStep X,Y,Z=   52     41     34   Total possible points=       72488
 Number of Points to Fit=   17671

 **********************************************************************

            Electrostatic Properties Using The SCF Density.

 **********************************************************************

       Atomic Center    1 is at   0.983870  2.811499 -0.598862
       Atomic Center    2 is at   0.654244  1.455163 -0.702240
       Atomic Center    3 is at   1.523033  0.525455 -0.262624
       Atomic Center    4 is at   2.810548  0.805176  0.200123
       Atomic Center    5 is at   3.664621 -0.231328  0.585290
       Atomic Center    6 is at   3.236367 -1.551316  0.522602
       Atomic Center    7 is at   1.936930 -1.830764  0.097119
       Atomic Center    8 is at   1.065398 -0.814588 -0.295049
       Atomic Center    9 is at  -0.217956 -1.114603 -0.772022
       Atomic Center   10 is at  -1.417788 -0.630443 -0.258938
       Atomic Center   11 is at  -1.480169  0.147496  0.907565
       Atomic Center   12 is at  -2.707040  0.602306  1.382205
       Atomic Center   13 is at  -3.895188  0.286841  0.724209
       Atomic Center   14 is at  -3.837959 -0.498975 -0.426767
       Atomic Center   15 is at  -2.616990 -0.948752 -0.917713
       Atomic Center   16 is at   0.115384  3.372384 -0.964216
       Atomic Center   17 is at   1.862017  3.069318 -1.216620
       Atomic Center   18 is at   1.184936  3.104230  0.446599
       Atomic Center   19 is at   3.168134  1.834319  0.238331
       Atomic Center   20 is at   4.672329  0.006832  0.931728
       Atomic Center   21 is at   3.899768 -2.365395  0.819913
       Atomic Center   22 is at   1.575568 -2.861822  0.072806
       Atomic Center   23 is at  -0.291649 -1.959355 -1.321980
       Atomic Center   24 is at  -0.564388  0.384944  1.450735
       Atomic Center   25 is at  -2.731963  1.206884  2.292192
       Atomic Center   26 is at  -4.853320  0.644767  1.105327
       Atomic Center   27 is at  -4.756223 -0.761677 -0.957421
       Atomic Center   28 is at  -2.582644 -1.550157 -1.830281
   17671 points will be used for fitting atomic charges
 Fitting point charges to electrostatic potential
 Charges from ESP fit, RMS=   0.00400 RRMS=   0.31482:
 ESP charges:
               1
     1  C    0.062540
     2  O   -0.255770
     3  C    0.251973
     4  C   -0.220475
     5  C   -0.118232
     6  C   -0.166959
     7  C   -0.150057
     8  C    0.230902
     9  N   -0.708220
    10  C    0.416035
    11  C   -0.197373
    12  C   -0.065088
    13  C   -0.165643
    14  C   -0.057873
    15  C   -0.265436
    16  H    0.051768
    17  H    0.023974
    18  H    0.041139
    19  H    0.120898
    20  H    0.111380
    21  H    0.115720
    22  H    0.106762
    23  H    0.360917
    24  H    0.084244
    25  H    0.091721
    26  H    0.092590
    27  H    0.092226
    28  H    0.116337
 Sum of ESP charges =   0.00000
 ESP charges with hydrogens summed into heavy atoms:
               1
     1  C    0.179421
     2  O   -0.255770
     3  C    0.251973
     4  C   -0.099577
     5  C   -0.006852
     6  C   -0.051239
     7  C   -0.043295
     8  C    0.230902
     9  N   -0.347303
    10  C    0.416035
    11  C   -0.113129
    12  C    0.026634
    13  C   -0.073053
    14  C    0.034353
    15  C   -0.149099
 Charge=   0.00000 Dipole=     1.2742     0.4213    -0.2788 Tot=     1.3707
 -----------------------------------------------------------------

              Electrostatic Properties (Atomic Units)

 -----------------------------------------------------------------
    Center     Electric         -------- Electric Field --------
               Potential          X             Y             Z
 -----------------------------------------------------------------
    1 Atom    -14.712406
    2 Atom    -22.323899
    3 Atom    -14.705576
    4 Atom    -14.767777
    5 Atom    -14.768551
    6 Atom    -14.772802
    7 Atom    -14.767814
    8 Atom    -14.727869
    9 Atom    -18.366972
   10 Atom    -14.730759
   11 Atom    -14.782932
   12 Atom    -14.777786
   13 Atom    -14.786174
   14 Atom    -14.776942
   15 Atom    -14.780123
   16 Atom     -1.104410
   17 Atom     -1.105169
   18 Atom     -1.104393
   19 Atom     -1.097181
   20 Atom     -1.107065
   21 Atom     -1.108587
   22 Atom     -1.100970
   23 Atom     -1.030412
   24 Atom     -1.116179
   25 Atom     -1.117159
   26 Atom     -1.120026
   27 Atom     -1.115679
   28 Atom     -1.109841
 -----------------------------------------------------------------
 Unable to Open any file for archive entry.
 1\1\GINC-NOTCH206\SP\RwB97XD\def2TZVP\C13H13N1O1\U1366379\17-Feb-2026\
 0\\#N Guess=Read Geom=Check Integral(Ultrafine) Density Pop=(ChelpG,Re
 adRadii) NMR wB97XD def2TZVP\\prod_3f_4\\0,1\C,0,-1.732866009,-2.16291
 24948,1.3133508316\O,0,-1.0996222416,-1.3372374509,0.3772676767\C,0,-1
 .6493214133,-0.1499725406,0.0600173483\C,0,-2.8927666446,0.2910501899,
 0.5176372472\C,0,-3.4095672671,1.5169601018,0.090793295\C,0,-2.6850068
 994,2.315436728,-0.7850755214\C,0,-1.4252135278,1.8946527513,-1.213473
 0154\C,0,-0.8876212858,0.6742567606,-0.8040744147\N,0,0.3548754279,0.2
 400016789,-1.2858778943\C,0,1.4579564947,-0.1097466841,-0.5124748877\C
 ,0,1.4837205108,0.0517595656,0.8814622512\C,0,2.6148075808,-0.30852152
 22,1.6082261654\C,0,3.7455018979,-0.8207593153,0.9731541787\C,0,3.7286
 737428,-0.9681037238,-0.4137609405\C,0,2.599859892,-0.6234205986,-1.14
 93323475\H,0,-1.0837455315,-3.0362227669,1.4486838096\H,0,-2.721542627
 3,-2.503472322,0.9587052464\H,0,-1.8581413077,-1.6559506727,2.28618306
 85\H,0,-3.4818608804,-0.3318381444,1.1910176533\H,0,-4.3895620669,1.83
 82332465,0.4494138727\H,0,-3.0844939764,3.2729660022,-1.1238483091\H,0
 ,-0.8301760891,2.5267267583,-1.8773000243\H,0,0.5581926182,0.481519708
 9,-2.2459930631\H,0,0.6184050853,0.4735690524,1.3946642259\H,0,2.61265
 62802,-0.1744331671,2.6927666961\H,0,4.6295552096,-1.0974687572,1.5504
 415944\H,0,4.6041913511,-1.3643752898,-0.9336189581\H,0,2.5918416769,-
 0.758887094,-2.234335785\\Version=ES64L-G16RevC.01\State=1-A\HF=-633.1
 859043\RMSD=2.125e-09\Dipole=-0.5499246,-0.1153821,0.01656\Quadrupole=
 -0.460143,-1.9495034,2.4096464,-0.3174327,-3.8669341,-3.811347\PG=C01 
 [X(C13H13N1O1)]\\@
 The archive entry for this job was punched.


 ASKING DUMB QUESTIONS IS EASIER THAN CORECTING DUMB MISTAKES.
 Job cpu time:       0 days  1 hours  5 minutes 29.0 seconds.
 Elapsed time:       0 days  0 hours  8 minutes 26.9 seconds.
 File lengths (MBytes):  RWF=    183 Int=      0 D2E=      0 Chk=     28 Scr=      2
 Normal termination of Gaussian 16 at Tue Feb 17 16:28:48 2026.
