 Entering Gaussian System, Link 0=g16
 Input=prod_5l_7.com
 Output=prod_5l_7.log
 Initial command:
 /uufs/chpc.utah.edu/sys/installdir/gaussian16/C01/AVX/g16/l1.exe "/scratch/general/vast/u1366379/GAUSSSCRDIR/11028725-notchpeak.peaks/Gau-708159.inp" -scrdir="/scratch/general/vast/u1366379/GAUSSSCRDIR/11028725-notchpeak.peaks/"
 Entering Link 1 = /uufs/chpc.utah.edu/sys/installdir/gaussian16/C01/AVX/g16/l1.exe PID=    708161.
  
 Copyright (c) 1988-2019, Gaussian, Inc.  All Rights Reserved.
  
 This is part of the Gaussian(R) 16 program.  It is based on
 the Gaussian(R) 09 system (copyright 2009, Gaussian, Inc.),
 the Gaussian(R) 03 system (copyright 2003, Gaussian, Inc.),
 the Gaussian(R) 98 system (copyright 1998, Gaussian, Inc.),
 the Gaussian(R) 94 system (copyright 1995, Gaussian, Inc.),
 the Gaussian 92(TM) system (copyright 1992, Gaussian, Inc.),
 the Gaussian 90(TM) system (copyright 1990, Gaussian, Inc.),
 the Gaussian 88(TM) system (copyright 1988, Gaussian, Inc.),
 the Gaussian 86(TM) system (copyright 1986, Carnegie Mellon
 University), and the Gaussian 82(TM) system (copyright 1983,
 Carnegie Mellon University). Gaussian is a federally registered
 trademark of Gaussian, Inc.
  
 This software contains proprietary and confidential information,
 including trade secrets, belonging to Gaussian, Inc.
  
 This software is provided under written license and may be
 used, copied, transmitted, or stored only in accord with that
 written license.
  
 The following legend is applicable only to US Government
 contracts under FAR:
  
                    RESTRICTED RIGHTS LEGEND
  
 Use, reproduction and disclosure by the US Government is
 subject to restrictions as set forth in subparagraphs (a)
 and (c) of the Commercial Computer Software - Restricted
 Rights clause in FAR 52.227-19.
  
 Gaussian, Inc.
 340 Quinnipiac St., Bldg. 40, Wallingford CT 06492
  
  
 ---------------------------------------------------------------
 Warning -- This program may not be used in any manner that
 competes with the business of Gaussian, Inc. or will provide
 assistance to any competitor of Gaussian, Inc.  The licensee
 of this program is prohibited from giving any competitor of
 Gaussian, Inc. access to this program.  By using this program,
 the user acknowledges that Gaussian, Inc. is engaged in the
 business of creating and licensing software in the field of
 computational chemistry and represents and warrants to the
 licensee that it is not a competitor of Gaussian, Inc. and that
 it will not use this program in any manner prohibited above.
 ---------------------------------------------------------------
  

 Cite this work as:
 Gaussian 16, Revision C.01,
 M. J. Frisch, G. W. Trucks, H. B. Schlegel, G. E. Scuseria, 
 M. A. Robb, J. R. Cheeseman, G. Scalmani, V. Barone, 
 G. A. Petersson, H. Nakatsuji, X. Li, M. Caricato, A. V. Marenich, 
 J. Bloino, B. G. Janesko, R. Gomperts, B. Mennucci, H. P. Hratchian, 
 J. V. Ortiz, A. F. Izmaylov, J. L. Sonnenberg, D. Williams-Young, 
 F. Ding, F. Lipparini, F. Egidi, J. Goings, B. Peng, A. Petrone, 
 T. Henderson, D. Ranasinghe, V. G. Zakrzewski, J. Gao, N. Rega, 
 G. Zheng, W. Liang, M. Hada, M. Ehara, K. Toyota, R. Fukuda, 
 J. Hasegawa, M. Ishida, T. Nakajima, Y. Honda, O. Kitao, H. Nakai, 
 T. Vreven, K. Throssell, J. A. Montgomery, Jr., J. E. Peralta, 
 F. Ogliaro, M. J. Bearpark, J. J. Heyd, E. N. Brothers, K. N. Kudin, 
 V. N. Staroverov, T. A. Keith, R. Kobayashi, J. Normand, 
 K. Raghavachari, A. P. Rendell, J. C. Burant, S. S. Iyengar, 
 J. Tomasi, M. Cossi, J. M. Millam, M. Klene, C. Adamo, R. Cammi, 
 J. W. Ochterski, R. L. Martin, K. Morokuma, O. Farkas, 
 J. B. Foresman, and D. J. Fox, Gaussian, Inc., Wallingford CT, 2019.
 
 ******************************************
 Gaussian 16:  ES64L-G16RevC.01  3-Jul-2019
                17-Feb-2026 
 ******************************************
 %NProcShared=8
 Will use up to    8 processors via shared memory.
 %Mem=8GB
 %chk=prod_5l_7.chk
 ------------------------------------------------------
 #N OPT FREQ=NORAMAN Integral(Ultrafine) wB97XD def2SVP
 ------------------------------------------------------
 1/18=20,19=15,26=4,38=1/1,3;
 2/9=110,12=2,17=6,18=5,40=1/2;
 3/5=43,7=101,11=2,25=1,30=1,71=1,74=-58,75=-5/1,2,3;
 4//1;
 5/5=2,38=5/2;
 6/7=2,8=2,9=2,10=2,28=1/1;
 7//1,2,3,16;
 1/18=20,19=15,26=4/3(2);
 2/9=110/2;
 99//99;
 2/9=110/2;
 3/5=43,7=101,11=2,25=1,30=1,71=1,74=-58,75=-5/1,2,3;
 4/5=5,16=3,69=1/1;
 5/5=2,38=5/2;
 7//1,2,3,16;
 1/18=20,19=15,26=4/3(-5);
 2/9=110/2;
 6/7=2,8=2,9=2,10=2,19=2,28=1/1;
 99/9=1/99;
 ---------
 prod_5l_7
 ---------
 Symbolic Z-matrix:
 Charge =  0 Multiplicity = 1
 O                    -0.10606   2.41363   0.97259 
 S                     0.03017   1.27941  -0.00188 
 N                     0.89975   0.05951   0.82055 
 C                     2.17293  -0.32062   0.39272 
 C                     2.69935   0.0108   -0.86137 
 C                     3.95455  -0.40114  -1.23902 
 C                     4.7233   -1.15844  -0.37845 
 C                     4.22788  -1.50232   0.86343 
 C                     2.97216  -1.09208   1.24527 
 C                    -1.53616   0.40128  -0.0304 
 C                    -2.60144   0.87812   0.69448 
 C                    -3.80559   0.20409   0.67328 
 C                    -3.95377  -0.95098  -0.08105 
 C                    -5.24415  -1.6917   -0.08683 
 C                    -2.86431  -1.42179  -0.80004 
 C                    -1.66145  -0.74537  -0.77664 
 O                     0.40259   1.50115  -1.43845 
 H                     0.84233   0.36195   1.7706 
 H                     2.10499   0.60556  -1.52938 
 H                     4.34012  -0.12997  -2.20815 
 H                     5.70807  -1.47986  -0.67507 
 H                     4.82713  -2.09436   1.53543 
 H                     2.58156  -1.36361   2.21015 
 H                    -2.4796    1.7796    1.27256 
 H                    -4.64068   0.57254   1.24366 
 H                    -5.38617  -2.22682  -1.02617 
 H                    -5.27577  -2.41979   0.72414 
 H                    -6.08777  -1.01211   0.037 
 H                    -2.96521  -2.32288  -1.37998 
 H                    -0.81516  -1.10282  -1.33973 
 

 GradGradGradGradGradGradGradGradGradGradGradGradGradGradGradGradGradGrad
 Berny optimization.
 Initialization pass.
                           ----------------------------
                           !    Initial Parameters    !
                           ! (Angstroms and Degrees)  !
 --------------------------                            --------------------------
 ! Name  Definition              Value          Derivative Info.                !
 --------------------------------------------------------------------------------
 ! R1    R(1,2)                  1.5015         estimate D2E/DX2                !
 ! R2    R(2,3)                  1.709          estimate D2E/DX2                !
 ! R3    R(2,10)                 1.7959         estimate D2E/DX2                !
 ! R4    R(2,17)                 1.5005         estimate D2E/DX2                !
 ! R5    R(3,4)                  1.3959         estimate D2E/DX2                !
 ! R6    R(3,18)                 0.9987         estimate D2E/DX2                !
 ! R7    R(4,5)                  1.3999         estimate D2E/DX2                !
 ! R8    R(4,9)                  1.4003         estimate D2E/DX2                !
 ! R9    R(5,6)                  1.374          estimate D2E/DX2                !
 ! R10   R(5,19)                 1.0739         estimate D2E/DX2                !
 ! R11   R(6,7)                  1.3802         estimate D2E/DX2                !
 ! R12   R(6,20)                 1.0777         estimate D2E/DX2                !
 ! R13   R(7,8)                  1.3806         estimate D2E/DX2                !
 ! R14   R(7,21)                 1.0775         estimate D2E/DX2                !
 ! R15   R(8,9)                  1.3751         estimate D2E/DX2                !
 ! R16   R(8,22)                 1.0776         estimate D2E/DX2                !
 ! R17   R(9,23)                 1.0758         estimate D2E/DX2                !
 ! R18   R(10,11)                1.3739         estimate D2E/DX2                !
 ! R19   R(10,16)                1.3738         estimate D2E/DX2                !
 ! R20   R(11,12)                1.3801         estimate D2E/DX2                !
 ! R21   R(11,24)                1.0778         estimate D2E/DX2                !
 ! R22   R(12,13)                1.3875         estimate D2E/DX2                !
 ! R23   R(12,25)                1.0763         estimate D2E/DX2                !
 ! R24   R(13,14)                1.4879         estimate D2E/DX2                !
 ! R25   R(13,15)                1.3876         estimate D2E/DX2                !
 ! R26   R(14,26)                1.0904         estimate D2E/DX2                !
 ! R27   R(14,27)                1.0903         estimate D2E/DX2                !
 ! R28   R(14,28)                1.0904         estimate D2E/DX2                !
 ! R29   R(15,16)                1.3802         estimate D2E/DX2                !
 ! R30   R(15,29)                1.0763         estimate D2E/DX2                !
 ! R31   R(16,30)                1.0775         estimate D2E/DX2                !
 ! A1    A(1,2,3)              105.8454         estimate D2E/DX2                !
 ! A2    A(1,2,10)             107.4891         estimate D2E/DX2                !
 ! A3    A(1,2,17)             122.155          estimate D2E/DX2                !
 ! A4    A(3,2,10)              95.8771         estimate D2E/DX2                !
 ! A5    A(3,2,17)             116.0985         estimate D2E/DX2                !
 ! A6    A(10,2,17)            105.8736         estimate D2E/DX2                !
 ! A7    A(2,3,4)              120.7291         estimate D2E/DX2                !
 ! A8    A(2,3,18)             102.2616         estimate D2E/DX2                !
 ! A9    A(4,3,18)             115.2442         estimate D2E/DX2                !
 ! A10   A(3,4,5)              123.5788         estimate D2E/DX2                !
 ! A11   A(3,4,9)              118.948          estimate D2E/DX2                !
 ! A12   A(5,4,9)              117.4666         estimate D2E/DX2                !
 ! A13   A(4,5,6)              121.2506         estimate D2E/DX2                !
 ! A14   A(4,5,19)             118.7018         estimate D2E/DX2                !
 ! A15   A(6,5,19)             120.0456         estimate D2E/DX2                !
 ! A16   A(5,6,7)              120.1287         estimate D2E/DX2                !
 ! A17   A(5,6,20)             119.9057         estimate D2E/DX2                !
 ! A18   A(7,6,20)             119.9654         estimate D2E/DX2                !
 ! A19   A(6,7,8)              119.8451         estimate D2E/DX2                !
 ! A20   A(6,7,21)             120.0698         estimate D2E/DX2                !
 ! A21   A(8,7,21)             120.0851         estimate D2E/DX2                !
 ! A22   A(7,8,9)              120.21           estimate D2E/DX2                !
 ! A23   A(7,8,22)             119.885          estimate D2E/DX2                !
 ! A24   A(9,8,22)             119.905          estimate D2E/DX2                !
 ! A25   A(4,9,8)              121.0984         estimate D2E/DX2                !
 ! A26   A(4,9,23)             118.5486         estimate D2E/DX2                !
 ! A27   A(8,9,23)             120.3525         estimate D2E/DX2                !
 ! A28   A(2,10,11)            119.8783         estimate D2E/DX2                !
 ! A29   A(2,10,16)            119.7537         estimate D2E/DX2                !
 ! A30   A(11,10,16)           120.3679         estimate D2E/DX2                !
 ! A31   A(10,11,12)           119.9266         estimate D2E/DX2                !
 ! A32   A(10,11,24)           119.0525         estimate D2E/DX2                !
 ! A33   A(12,11,24)           121.0208         estimate D2E/DX2                !
 ! A34   A(11,12,13)           120.5374         estimate D2E/DX2                !
 ! A35   A(11,12,25)           120.1073         estimate D2E/DX2                !
 ! A36   A(13,12,25)           119.3553         estimate D2E/DX2                !
 ! A37   A(12,13,14)           120.6087         estimate D2E/DX2                !
 ! A38   A(12,13,15)           118.7048         estimate D2E/DX2                !
 ! A39   A(14,13,15)           120.6626         estimate D2E/DX2                !
 ! A40   A(13,14,26)           111.1391         estimate D2E/DX2                !
 ! A41   A(13,14,27)           110.7755         estimate D2E/DX2                !
 ! A42   A(13,14,28)           111.1175         estimate D2E/DX2                !
 ! A43   A(26,14,27)           108.0152         estimate D2E/DX2                !
 ! A44   A(26,14,28)           107.6348         estimate D2E/DX2                !
 ! A45   A(27,14,28)           108.0171         estimate D2E/DX2                !
 ! A46   A(13,15,16)           120.6088         estimate D2E/DX2                !
 ! A47   A(13,15,29)           119.3163         estimate D2E/DX2                !
 ! A48   A(16,15,29)           120.0749         estimate D2E/DX2                !
 ! A49   A(10,16,15)           119.8504         estimate D2E/DX2                !
 ! A50   A(10,16,30)           119.2822         estimate D2E/DX2                !
 ! A51   A(15,16,30)           120.8672         estimate D2E/DX2                !
 ! D1    D(1,2,3,4)           -114.8752         estimate D2E/DX2                !
 ! D2    D(1,2,3,18)            14.6868         estimate D2E/DX2                !
 ! D3    D(10,2,3,4)           135.049          estimate D2E/DX2                !
 ! D4    D(10,2,3,18)          -95.389          estimate D2E/DX2                !
 ! D5    D(17,2,3,4)            24.1573         estimate D2E/DX2                !
 ! D6    D(17,2,3,18)          153.7193         estimate D2E/DX2                !
 ! D7    D(1,2,10,11)            4.3476         estimate D2E/DX2                !
 ! D8    D(1,2,10,16)         -175.579          estimate D2E/DX2                !
 ! D9    D(3,2,10,11)          113.024          estimate D2E/DX2                !
 ! D10   D(3,2,10,16)          -66.9027         estimate D2E/DX2                !
 ! D11   D(17,2,10,11)        -127.6983         estimate D2E/DX2                !
 ! D12   D(17,2,10,16)          52.375          estimate D2E/DX2                !
 ! D13   D(2,3,4,5)            -15.1141         estimate D2E/DX2                !
 ! D14   D(2,3,4,9)            165.844          estimate D2E/DX2                !
 ! D15   D(18,3,4,5)          -138.7171         estimate D2E/DX2                !
 ! D16   D(18,3,4,9)            42.241          estimate D2E/DX2                !
 ! D17   D(3,4,5,6)           -179.2949         estimate D2E/DX2                !
 ! D18   D(3,4,5,19)             1.2155         estimate D2E/DX2                !
 ! D19   D(9,4,5,6)             -0.2399         estimate D2E/DX2                !
 ! D20   D(9,4,5,19)          -179.7295         estimate D2E/DX2                !
 ! D21   D(3,4,9,8)            179.34           estimate D2E/DX2                !
 ! D22   D(3,4,9,23)            -0.4073         estimate D2E/DX2                !
 ! D23   D(5,4,9,8)              0.2396         estimate D2E/DX2                !
 ! D24   D(5,4,9,23)          -179.5076         estimate D2E/DX2                !
 ! D25   D(4,5,6,7)              0.104          estimate D2E/DX2                !
 ! D26   D(4,5,6,20)          -179.7359         estimate D2E/DX2                !
 ! D27   D(19,5,6,7)           179.5868         estimate D2E/DX2                !
 ! D28   D(19,5,6,20)           -0.2531         estimate D2E/DX2                !
 ! D29   D(5,6,7,8)              0.0407         estimate D2E/DX2                !
 ! D30   D(5,6,7,21)          -179.9171         estimate D2E/DX2                !
 ! D31   D(20,6,7,8)           179.8806         estimate D2E/DX2                !
 ! D32   D(20,6,7,21)           -0.0773         estimate D2E/DX2                !
 ! D33   D(6,7,8,9)             -0.0407         estimate D2E/DX2                !
 ! D34   D(6,7,8,22)           179.94           estimate D2E/DX2                !
 ! D35   D(21,7,8,9)           179.9172         estimate D2E/DX2                !
 ! D36   D(21,7,8,22)           -0.1021         estimate D2E/DX2                !
 ! D37   D(7,8,9,4)             -0.104          estimate D2E/DX2                !
 ! D38   D(7,8,9,23)           179.6387         estimate D2E/DX2                !
 ! D39   D(22,8,9,4)           179.9153         estimate D2E/DX2                !
 ! D40   D(22,8,9,23)           -0.342          estimate D2E/DX2                !
 ! D41   D(2,10,11,12)         179.9999         estimate D2E/DX2                !
 ! D42   D(2,10,11,24)           0.0711         estimate D2E/DX2                !
 ! D43   D(16,10,11,12)         -0.0739         estimate D2E/DX2                !
 ! D44   D(16,10,11,24)        179.9973         estimate D2E/DX2                !
 ! D45   D(2,10,16,15)        -179.9972         estimate D2E/DX2                !
 ! D46   D(2,10,16,30)          -0.1694         estimate D2E/DX2                !
 ! D47   D(11,10,16,15)          0.0764         estimate D2E/DX2                !
 ! D48   D(11,10,16,30)        179.9043         estimate D2E/DX2                !
 ! D49   D(10,11,12,13)         -0.3313         estimate D2E/DX2                !
 ! D50   D(10,11,12,25)        179.7172         estimate D2E/DX2                !
 ! D51   D(24,11,12,13)        179.5961         estimate D2E/DX2                !
 ! D52   D(24,11,12,25)         -0.3554         estimate D2E/DX2                !
 ! D53   D(11,12,13,14)        178.9544         estimate D2E/DX2                !
 ! D54   D(11,12,13,15)          0.7194         estimate D2E/DX2                !
 ! D55   D(25,12,13,14)         -1.0938         estimate D2E/DX2                !
 ! D56   D(25,12,13,15)       -179.3288         estimate D2E/DX2                !
 ! D57   D(12,13,14,26)        151.7613         estimate D2E/DX2                !
 ! D58   D(12,13,14,27)        -88.1508         estimate D2E/DX2                !
 ! D59   D(12,13,14,28)         31.9251         estimate D2E/DX2                !
 ! D60   D(15,13,14,26)        -30.0384         estimate D2E/DX2                !
 ! D61   D(15,13,14,27)         90.0495         estimate D2E/DX2                !
 ! D62   D(15,13,14,28)       -149.8746         estimate D2E/DX2                !
 ! D63   D(12,13,15,16)         -0.7173         estimate D2E/DX2                !
 ! D64   D(12,13,15,29)        179.338          estimate D2E/DX2                !
 ! D65   D(14,13,15,16)       -178.9513         estimate D2E/DX2                !
 ! D66   D(14,13,15,29)          1.104          estimate D2E/DX2                !
 ! D67   D(13,15,16,10)          0.3263         estimate D2E/DX2                !
 ! D68   D(13,15,16,30)       -179.4988         estimate D2E/DX2                !
 ! D69   D(29,15,16,10)       -179.7294         estimate D2E/DX2                !
 ! D70   D(29,15,16,30)          0.4455         estimate D2E/DX2                !
 --------------------------------------------------------------------------------
 Trust Radius=3.00D-01 FncErr=1.00D-07 GrdErr=1.00D-06 EigMax=2.50D+02 EigMin=1.00D-04
 Number of steps in this run=    162 maximum allowed number of steps=    180.
 GradGradGradGradGradGradGradGradGradGradGradGradGradGradGradGradGradGrad

                          Input orientation:                          
 ---------------------------------------------------------------------
 Center     Atomic      Atomic             Coordinates (Angstroms)
 Number     Number       Type             X           Y           Z
 ---------------------------------------------------------------------
      1          8           0       -0.106060    2.413630    0.972590
      2         16           0        0.030170    1.279410   -0.001880
      3          7           0        0.899750    0.059510    0.820550
      4          6           0        2.172930   -0.320620    0.392720
      5          6           0        2.699350    0.010800   -0.861370
      6          6           0        3.954550   -0.401140   -1.239020
      7          6           0        4.723300   -1.158440   -0.378450
      8          6           0        4.227880   -1.502320    0.863430
      9          6           0        2.972160   -1.092080    1.245270
     10          6           0       -1.536160    0.401280   -0.030400
     11          6           0       -2.601440    0.878120    0.694480
     12          6           0       -3.805590    0.204090    0.673280
     13          6           0       -3.953770   -0.950980   -0.081050
     14          6           0       -5.244150   -1.691700   -0.086830
     15          6           0       -2.864310   -1.421790   -0.800040
     16          6           0       -1.661450   -0.745370   -0.776640
     17          8           0        0.402590    1.501150   -1.438450
     18          1           0        0.842330    0.361950    1.770600
     19          1           0        2.104990    0.605560   -1.529380
     20          1           0        4.340120   -0.129970   -2.208150
     21          1           0        5.708070   -1.479860   -0.675070
     22          1           0        4.827130   -2.094360    1.535430
     23          1           0        2.581560   -1.363610    2.210150
     24          1           0       -2.479600    1.779600    1.272560
     25          1           0       -4.640680    0.572540    1.243660
     26          1           0       -5.386170   -2.226820   -1.026170
     27          1           0       -5.275770   -2.419790    0.724140
     28          1           0       -6.087770   -1.012110    0.037000
     29          1           0       -2.965210   -2.322880   -1.379980
     30          1           0       -0.815160   -1.102820   -1.339730
 ---------------------------------------------------------------------
                    Distance matrix (angstroms):
                    1          2          3          4          5
     1  O    0.000000
     2  S    1.501534   0.000000
     3  N    2.564498   1.709010   0.000000
     4  C    3.606406   2.703188   1.395896   0.000000
     5  C    4.123994   3.077762   2.463694   1.399892   0.000000
     6  C    5.413197   4.444718   3.712927   2.417277   1.373987
     7  C    6.156924   5.301923   4.188143   2.793033   2.386778
     8  C    5.842056   5.109555   3.676629   2.416775   2.756968
     9  C    4.673307   3.979278   2.408616   1.400272   2.393471
    10  C    2.664719   1.795916   2.602802   3.802304   4.333882
    11  C    2.943137   2.751604   3.597825   4.931799   5.592074
    12  C    4.319511   4.040447   4.709864   6.008056   6.686311
    13  C    5.218777   4.566474   5.038911   6.177238   6.767416
    14  C    6.661537   6.054186   6.452719   7.557970   8.160736
    15  C    5.045850   4.038757   4.357604   5.292357   5.745467
    16  C    3.931708   2.749830   3.123875   4.031164   4.426686
    17  O    2.627634   1.500533   2.725541   3.131475   2.798083
    18  H    2.397009   2.154767   0.998680   2.033458   3.240231
    19  H    3.797066   2.663120   2.696840   2.134688   1.073890
    20  H    6.029554   5.042782   4.587491   3.390809   2.127383
    21  H    7.188752   6.348646   5.265594   3.870559   3.362911
    22  H    6.706350   6.062712   4.535915   3.390681   3.834553
    23  H    4.798166   4.288149   2.604754   2.134914   3.367063
    24  H    2.475009   2.858904   3.818773   5.179872   5.873996
    25  H    4.901619   4.885476   5.580196   6.924386   7.656549
    26  H    7.308104   6.532959   6.939054   7.923815   8.391051
    27  H    7.081637   6.508778   6.655319   7.745933   8.486704
    28  H    6.956427   6.533128   7.112507   8.297220   8.891957
    29  H    6.011976   4.883437   5.045397   5.792408   6.148354
    30  H    4.267911   2.859973   2.993115   3.541455   3.717628
                    6          7          8          9         10
     6  C    0.000000
     7  C    1.380239   0.000000
     8  C    2.389059   1.380565   0.000000
     9  C    2.759381   2.389008   1.375111   0.000000
    10  C    5.679132   6.460240   6.135697   4.917561   0.000000
    11  C    6.953843   7.677928   7.234269   5.937177   1.373917
    12  C    8.015171   8.700838   8.214903   6.924242   2.384190
    13  C    8.011538   8.684643   8.254418   7.053194   2.770561
    14  C    9.359977   9.985964   9.521461   8.345165   4.258279
    15  C    6.908783   7.603875   7.285106   6.193253   2.383257
    16  C    5.645507   6.410477   6.160115   5.067413   1.373819
    17  O    4.034216   5.183199   5.380737   4.530992   2.636488
    18  H    4.396138   4.689555   3.969938   2.631796   2.983683
    19  H    2.125706   3.360340   3.830843   3.366400   3.942923
    20  H    1.077688   2.133631   3.366088   3.837067   6.289315
    21  H    2.134598   1.077528   2.135052   3.365009   7.512200
    22  H    3.365407   2.132994   1.077588   2.128303   7.012239
    23  H    3.835130   3.366006   2.131494   1.075774   5.009044
    24  H    7.243062   7.952338   7.478548   6.161897   2.118384
    25  H    8.999430   9.659796   9.115974   7.792708   3.360149
    26  H    9.519846  10.186381   9.824736   8.735488   4.766660
    27  H    9.650272  10.138447   9.548849   8.370349   4.744729
    28  H   10.141484  10.820039  10.360305   9.140495   4.766484
    29  H    7.183038   7.840419   7.579363   6.607509   3.359256
    30  H    4.822098   5.621538   5.517768   4.585426   2.120496
                   11         12         13         14         15
    11  C    0.000000
    12  C    1.380124   0.000000
    13  C    2.403300   1.387501   0.000000
    14  C    3.768068   2.498248   1.487878   0.000000
    15  C    2.755409   2.387502   1.387635   2.499031   0.000000
    16  C    2.384008   2.757005   2.404340   3.769233   1.380204
    17  O    3.736543   4.883702   5.180092   6.626224   4.429874
    18  H    3.644725   4.778304   5.306126   6.686760   4.850680
    19  H    5.212516   6.320431   6.420985   7.833787   5.416274
    20  H    7.591229   8.646781   8.601583   9.939680   7.453548
    21  H    8.745496   9.755176   9.694520  10.970051   8.573488
    22  H    8.045277   8.974967   9.001363  10.209042   8.066289
    23  H    5.846888   6.753913   6.937608   8.162444   6.222711
    24  H    1.077816   2.144672   3.385484   4.641185   3.833089
    25  H    2.133888   1.076320   2.132561   2.694654   3.362968
    26  H    4.511764   3.360906   2.138408   1.090359   2.656875
    27  H    4.246072   3.008116   2.133874   1.090315   3.022295
    28  H    4.019919   2.663145   2.138137   1.090354   3.355468
    29  H    3.831725   3.362691   2.132271   2.695217   1.076324
    30  H    3.354539   3.834435   3.384997   4.640311   2.142901
                   16         17         18         19         20
    16  C    0.000000
    17  O    3.121715   0.000000
    18  H    3.739452   3.433533   0.000000
    19  H    4.071572   1.925751   3.541684   0.000000
    20  H    6.200547   4.330951   5.320430   2.448987   0.000000
    21  H    7.406728   6.133293   5.748825   4.249824   2.458419
    22  H    7.019054   6.430257   4.686939   4.908429   4.255631
    23  H    5.225540   5.125138   2.489113   4.253097   4.912818
    24  H    3.353217   3.966627   3.645956   5.499791   7.891158
    25  H    3.833316   5.787107   5.512296   7.293484   9.646931
    26  H    4.016279   6.897643   7.301908   8.024530  10.019709
    27  H    4.256681   7.231482   6.801787   8.288951  10.310526
    28  H    4.508378   7.114647   7.274592   8.496571  10.703259
    29  H    2.133623   5.095949   5.624218   5.857048   7.672194
    30  H    1.077519   2.876338   3.816671   3.388481   5.317659
                   21         22         23         24         25
    21  H    0.000000
    22  H    2.457636   0.000000
    23  H    4.255946   2.455978   0.000000
    24  H    9.025258   8.274356   6.031101   0.000000
    25  H   10.723362   9.840575   7.539465   2.475499   0.000000
    26  H   11.124899  10.530472   8.643126   5.457445   3.680258
    27  H   11.112425  10.140645   8.066063   5.074860   3.102786
    28  H   11.826566  11.070303   8.944463   4.726430   2.461953
    29  H    8.742618   8.323004   6.676518   4.909392   4.251370
    30  H    6.567835   6.409769   4.920098   4.231166   4.910737
                   26         27         28         29         30
    26  H    0.000000
    27  H    1.764373   0.000000
    28  H    1.760140   1.764389   0.000000
    29  H    2.448562   3.126564   3.671012   0.000000
    30  H    4.717608   5.088321   5.450140   2.472424   0.000000
 Stoichiometry    C13H13NO2S
 Framework group  C1[X(C13H13NO2S)]
 Deg. of freedom    84
 Full point group                 C1      NOp   1
 Largest Abelian subgroup         C1      NOp   1
 Largest concise Abelian subgroup C1      NOp   1
                         Standard orientation:                         
 ---------------------------------------------------------------------
 Center     Atomic      Atomic             Coordinates (Angstroms)
 Number     Number       Type             X           Y           Z
 ---------------------------------------------------------------------
      1          8           0        0.097812    2.536756   -0.727553
      2         16           0       -0.052002    1.314389    0.131505
      3          7           0       -0.919701    0.184280   -0.812247
      4          6           0       -2.198265   -0.228728   -0.433798
      5          6           0       -2.734226   -0.017315    0.842035
      6          6           0       -3.994510   -0.457228    1.167615
      7          6           0       -4.759002   -1.123753    0.231476
      8          6           0       -4.254202   -1.348586   -1.033668
      9          6           0       -2.993369   -0.909962   -1.363578
     10          6           0        1.510117    0.429397    0.088022
     11          6           0        2.583831    0.968465   -0.578455
     12          6           0        3.784755    0.289225   -0.612503
     13          6           0        3.921181   -0.934110    0.027807
     14          6           0        5.208171   -1.678689   -0.027320
     15          6           0        2.823366   -1.466480    0.688802
     16          6           0        1.623763   -0.784655    0.720903
     17          8           0       -0.436061    1.398191    1.579633
     18          1           0       -0.852588    0.576826   -1.728088
     19          1           0       -2.143140    0.506962    1.569353
     20          1           0       -4.387387   -0.278979    2.155180
     21          1           0       -5.747756   -1.467160    0.487413
     22          1           0       -4.850131   -1.869744   -1.764735
     23          1           0       -2.595501   -1.089007   -2.346906
     24          1           0        2.471071    1.922227   -1.067649
     25          1           0        4.626452    0.706688   -1.137607
     26          1           0        5.339553   -2.302836    0.857023
     27          1           0        5.243703   -2.325141   -0.904603
     28          1           0        6.055846   -0.994754   -0.077825
     29          1           0        2.915173   -2.419924    1.179711
     30          1           0        0.770979   -1.190407    1.239722
 ---------------------------------------------------------------------
 Rotational constants (GHZ):           0.9534748           0.2242293           0.2063976
 Standard basis: def2SVP (5D, 7F)
 There are   324 symmetry adapted cartesian basis functions of A   symmetry.
 There are   307 symmetry adapted basis functions of A   symmetry.
   307 basis functions,   528 primitive gaussians,   324 cartesian basis functions
    65 alpha electrons       65 beta electrons
       nuclear repulsion energy      1296.2432289259 Hartrees.
 NAtoms=   30 NActive=   30 NUniq=   30 SFac= 1.00D+00 NAtFMM=   60 NAOKFM=F Big=F
 Integral buffers will be    131072 words long.
 Raffenetti 2 integral format.
 Two-electron integral symmetry is turned on.
 Nuclear repulsion after empirical dispersion term =     1296.2249813917 Hartrees.
 One-electron integrals computed using PRISM.
   1 Symmetry operations used in ECPInt.
 ECPInt:  NShTT=   10296 NPrTT=   38220 LenC2=    9259 LenP2D=   24259.
 LDataN:  DoStor=T MaxTD1= 4 Len=   56
 NBasis=   307 RedAO= T EigKep=  2.44D-04  NBF=   307
 NBsUse=   307 1.00D-06 EigRej= -1.00D+00 NBFU=   307
 ExpMin= 1.22D-01 ExpMax= 9.18D+03 ExpMxC= 1.38D+03 IAcc=3 IRadAn=         5 AccDes= 0.00D+00
 Harris functional with IExCor= 4639 and IRadAn=       5 diagonalized for initial guess.
 HarFok:  IExCor= 4639 AccDes= 0.00D+00 IRadAn=         5 IDoV= 1 UseB2=F ITyADJ=14
 ICtDFT=  3500011 ScaDFX=  1.000000  1.000000  1.000000  1.000000
 FoFCou: FMM=F IPFlag=           0 FMFlag=      100000 FMFlg1=           0
         NFxFlg=           0 DoJE=T BraDBF=F KetDBF=T FulRan=T
         wScrn=  0.000000 ICntrl=       500 IOpCl=  0 I1Cent=   200000004 NGrid=           0
         NMat0=    1 NMatS0=      1 NMatT0=    0 NMatD0=    1 NMtDS0=    0 NMtDT0=    0
 Petite list used in FoFCou.
 Requested convergence on RMS density matrix=1.00D-08 within 128 cycles.
 Requested convergence on MAX density matrix=1.00D-06.
 Requested convergence on             energy=1.00D-06.
 No special actions if energy rises.
 Integral accuracy reduced to 1.0D-05 until final iterations.
 Initial convergence to 1.0D-05 achieved.  Increase integral accuracy.
 SCF Done:  E(RwB97XD) =  -1105.63896591     A.U. after   15 cycles
            NFock= 15  Conv=0.84D-08     -V/T= 2.0070

 **********************************************************************

            Population analysis using the SCF Density.

 **********************************************************************

 Orbital symmetries:
       Occupied  (A) (A) (A) (A) (A) (A) (A) (A) (A) (A) (A) (A)
                 (A) (A) (A) (A) (A) (A) (A) (A) (A) (A) (A) (A)
                 (A) (A) (A) (A) (A) (A) (A) (A) (A) (A) (A) (A)
                 (A) (A) (A) (A) (A) (A) (A) (A) (A) (A) (A) (A)
                 (A) (A) (A) (A) (A) (A) (A) (A) (A) (A) (A) (A)
                 (A) (A) (A) (A) (A)
       Virtual   (A) (A) (A) (A) (A) (A) (A) (A) (A) (A) (A) (A)
                 (A) (A) (A) (A) (A) (A) (A) (A) (A) (A) (A) (A)
                 (A) (A) (A) (A) (A) (A) (A) (A) (A) (A) (A) (A)
                 (A) (A) (A) (A) (A) (A) (A) (A) (A) (A) (A) (A)
                 (A) (A) (A) (A) (A) (A) (A) (A) (A) (A) (A) (A)
                 (A) (A) (A) (A) (A) (A) (A) (A) (A) (A) (A) (A)
                 (A) (A) (A) (A) (A) (A) (A) (A) (A) (A) (A) (A)
                 (A) (A) (A) (A) (A) (A) (A) (A) (A) (A) (A) (A)
                 (A) (A) (A) (A) (A) (A) (A) (A) (A) (A) (A) (A)
                 (A) (A) (A) (A) (A) (A) (A) (A) (A) (A) (A) (A)
                 (A) (A) (A) (A) (A) (A) (A) (A) (A) (A) (A) (A)
                 (A) (A) (A) (A) (A) (A) (A) (A) (A) (A) (A) (A)
                 (A) (A) (A) (A) (A) (A) (A) (A) (A) (A) (A) (A)
                 (A) (A) (A) (A) (A) (A) (A) (A) (A) (A) (A) (A)
                 (A) (A) (A) (A) (A) (A) (A) (A) (A) (A) (A) (A)
                 (A) (A) (A) (A) (A) (A) (A) (A) (A) (A) (A) (A)
                 (A) (A) (A) (A) (A) (A) (A) (A) (A) (A) (A) (A)
                 (A) (A) (A) (A) (A) (A) (A) (A) (A) (A) (A) (A)
                 (A) (A) (A) (A) (A) (A) (A) (A) (A) (A) (A) (A)
                 (A) (A) (A) (A) (A) (A) (A) (A) (A) (A) (A) (A)
                 (A) (A)
 The electronic state is 1-A.
 Alpha  occ. eigenvalues --  -89.25900 -19.26713 -19.25905 -14.49890 -10.35445
 Alpha  occ. eigenvalues --  -10.33386 -10.32571 -10.32325 -10.32114 -10.31488
 Alpha  occ. eigenvalues --  -10.31378 -10.30763 -10.30378 -10.30257 -10.29893
 Alpha  occ. eigenvalues --  -10.29413 -10.29089  -8.27701  -6.23127  -6.23039
 Alpha  occ. eigenvalues --   -6.22886  -1.20636  -1.09320  -1.05474  -0.98653
 Alpha  occ. eigenvalues --   -0.95274  -0.90274  -0.86390  -0.85055  -0.84638
 Alpha  occ. eigenvalues --   -0.81223  -0.75871  -0.72591  -0.71570  -0.70556
 Alpha  occ. eigenvalues --   -0.68130  -0.64214  -0.63982  -0.60484  -0.58944
 Alpha  occ. eigenvalues --   -0.58127  -0.56502  -0.54817  -0.53892  -0.53614
 Alpha  occ. eigenvalues --   -0.52942  -0.52843  -0.52761  -0.51199  -0.49643
 Alpha  occ. eigenvalues --   -0.48549  -0.47516  -0.46383  -0.45961  -0.44244
 Alpha  occ. eigenvalues --   -0.44034  -0.43882  -0.41249  -0.40570  -0.39701
 Alpha  occ. eigenvalues --   -0.38301  -0.35368  -0.34560  -0.33801  -0.30426
 Alpha virt. eigenvalues --    0.02879   0.04411   0.05940   0.06542   0.09996
 Alpha virt. eigenvalues --    0.12881   0.13929   0.14697   0.15357   0.15796
 Alpha virt. eigenvalues --    0.16959   0.17278   0.18718   0.19321   0.20116
 Alpha virt. eigenvalues --    0.21059   0.21403   0.22982   0.23744   0.24217
 Alpha virt. eigenvalues --    0.24520   0.25680   0.29295   0.29686   0.33189
 Alpha virt. eigenvalues --    0.35162   0.36386   0.36782   0.37561   0.37720
 Alpha virt. eigenvalues --    0.38180   0.39596   0.40117   0.40939   0.43682
 Alpha virt. eigenvalues --    0.46461   0.47522   0.47758   0.48350   0.49138
 Alpha virt. eigenvalues --    0.49297   0.51310   0.51819   0.52456   0.54339
 Alpha virt. eigenvalues --    0.54568   0.54884   0.55676   0.56729   0.57058
 Alpha virt. eigenvalues --    0.58209   0.58692   0.59601   0.60097   0.61885
 Alpha virt. eigenvalues --    0.63040   0.63812   0.64180   0.64468   0.65902
 Alpha virt. eigenvalues --    0.67165   0.69338   0.70010   0.71039   0.71205
 Alpha virt. eigenvalues --    0.72415   0.72879   0.73294   0.73428   0.74090
 Alpha virt. eigenvalues --    0.74803   0.75300   0.75747   0.76692   0.77317
 Alpha virt. eigenvalues --    0.77474   0.78161   0.78529   0.79002   0.80048
 Alpha virt. eigenvalues --    0.81271   0.82063   0.82915   0.83059   0.83340
 Alpha virt. eigenvalues --    0.84574   0.85171   0.86396   0.88183   0.89942
 Alpha virt. eigenvalues --    0.90794   0.92224   0.92995   0.95706   0.97406
 Alpha virt. eigenvalues --    0.98459   0.99527   1.00312   1.02864   1.06937
 Alpha virt. eigenvalues --    1.09438   1.10165   1.10989   1.12340   1.13578
 Alpha virt. eigenvalues --    1.15224   1.15298   1.20309   1.21170   1.22953
 Alpha virt. eigenvalues --    1.24480   1.26298   1.26990   1.28326   1.29546
 Alpha virt. eigenvalues --    1.30674   1.31282   1.32298   1.32603   1.33302
 Alpha virt. eigenvalues --    1.34290   1.34842   1.36899   1.37339   1.38089
 Alpha virt. eigenvalues --    1.38463   1.40501   1.42147   1.44914   1.52459
 Alpha virt. eigenvalues --    1.55122   1.56786   1.57695   1.60191   1.61217
 Alpha virt. eigenvalues --    1.62598   1.64116   1.69591   1.75173   1.76030
 Alpha virt. eigenvalues --    1.76697   1.78020   1.78385   1.80225   1.81335
 Alpha virt. eigenvalues --    1.81900   1.82610   1.83481   1.84067   1.84447
 Alpha virt. eigenvalues --    1.84963   1.86283   1.86554   1.87462   1.87784
 Alpha virt. eigenvalues --    1.88056   1.88590   1.90621   1.92169   1.93087
 Alpha virt. eigenvalues --    1.93976   1.95969   1.98163   1.99187   2.02999
 Alpha virt. eigenvalues --    2.04197   2.04572   2.05077   2.06156   2.08145
 Alpha virt. eigenvalues --    2.10410   2.11034   2.13458   2.14093   2.17151
 Alpha virt. eigenvalues --    2.17641   2.19912   2.20973   2.21166   2.23106
 Alpha virt. eigenvalues --    2.24540   2.25642   2.29441   2.30349   2.31743
 Alpha virt. eigenvalues --    2.33276   2.35096   2.35897   2.38241   2.38901
 Alpha virt. eigenvalues --    2.40702   2.42955   2.43651   2.44850   2.45272
 Alpha virt. eigenvalues --    2.45484   2.51375   2.55222   2.56470   2.57334
 Alpha virt. eigenvalues --    2.59794   2.61295   2.68613   2.69134   2.71454
 Alpha virt. eigenvalues --    2.71727   2.72746   2.72917   2.73804   2.73977
 Alpha virt. eigenvalues --    2.74800   2.75667   2.76008   2.78480   2.81038
 Alpha virt. eigenvalues --    2.83033   2.83194   2.84396   2.85195   2.86317
 Alpha virt. eigenvalues --    2.91676   2.94419   2.95282   2.96834   2.99409
 Alpha virt. eigenvalues --    3.00679   3.00852   3.02043   3.03097   3.04820
 Alpha virt. eigenvalues --    3.07016   3.08711   3.22739   3.23764   3.25798
 Alpha virt. eigenvalues --    3.32097   3.33786   3.34210   3.45891   3.46819
 Alpha virt. eigenvalues --    3.69742   3.78795
          Condensed to atoms (all electrons):
               1          2          3          4          5          6
     1  O    8.153992   0.431458  -0.052992   0.002618  -0.000152  -0.000018
     2  S    0.431458  13.938553   0.205352  -0.037551   0.001228  -0.000711
     3  N   -0.052992   0.205352   6.845651   0.269278  -0.084150   0.007218
     4  C    0.002618  -0.037551   0.269278   5.189780   0.254108   0.107702
     5  C   -0.000152   0.001228  -0.084150   0.254108   5.218456   0.267434
     6  C   -0.000018  -0.000711   0.007218   0.107702   0.267434   5.051336
     7  C   -0.000000   0.000002  -0.000447  -0.162815   0.087625   0.271362
     8  C   -0.000000  -0.000129   0.006554   0.108990  -0.144798   0.095199
     9  C   -0.000163  -0.000541  -0.070545   0.261457   0.076521  -0.145317
    10  C   -0.070300   0.232579  -0.097401   0.008219  -0.001353  -0.000080
    11  C    0.005251  -0.022497  -0.004145  -0.000258  -0.000049   0.000000
    12  C    0.001539   0.002713  -0.000127  -0.000016   0.000001   0.000000
    13  C   -0.000037   0.000950  -0.000012   0.000005  -0.000001  -0.000000
    14  C    0.000000   0.000007  -0.000000  -0.000000  -0.000000   0.000000
    15  C    0.000020  -0.001626  -0.000326   0.000009   0.000009   0.000001
    16  C    0.004417  -0.042085   0.005577  -0.000063  -0.000015   0.000017
    17  O   -0.026749   0.389553  -0.033496  -0.004757  -0.022362   0.002037
    18  H    0.013827  -0.006830   0.324488  -0.004093   0.003870  -0.000158
    19  H    0.000342  -0.009554  -0.013371  -0.069809   0.452410  -0.053327
    20  H    0.000000   0.000001  -0.000108   0.015295  -0.067587   0.457938
    21  H    0.000000   0.000000   0.000011  -0.001417   0.014681  -0.067794
    22  H   -0.000000   0.000003  -0.000112   0.015542  -0.001909   0.013820
    23  H   -0.000026  -0.000124  -0.009496  -0.081288   0.016849  -0.002207
    24  H    0.018218  -0.012673   0.000673  -0.000071   0.000002   0.000000
    25  H   -0.000009  -0.000158   0.000004  -0.000000   0.000000  -0.000000
    26  H    0.000000  -0.000000   0.000000  -0.000000  -0.000000   0.000000
    27  H   -0.000000   0.000000  -0.000000   0.000000   0.000000  -0.000000
    28  H    0.000000  -0.000000   0.000000  -0.000000  -0.000000   0.000000
    29  H    0.000000  -0.000157   0.000002  -0.000002   0.000000  -0.000000
    30  H    0.000185  -0.005715   0.000911   0.000487   0.000322   0.000052
               7          8          9         10         11         12
     1  O   -0.000000  -0.000000  -0.000163  -0.070300   0.005251   0.001539
     2  S    0.000002  -0.000129  -0.000541   0.232579  -0.022497   0.002713
     3  N   -0.000447   0.006554  -0.070545  -0.097401  -0.004145  -0.000127
     4  C   -0.162815   0.108990   0.261457   0.008219  -0.000258  -0.000016
     5  C    0.087625  -0.144798   0.076521  -0.001353  -0.000049   0.000001
     6  C    0.271362   0.095199  -0.145317  -0.000080   0.000000   0.000000
     7  C    5.107233   0.286925   0.084739   0.000001  -0.000000  -0.000000
     8  C    0.286925   5.004693   0.312773  -0.000001   0.000000  -0.000000
     9  C    0.084739   0.312773   5.137402  -0.000764  -0.000007   0.000001
    10  C    0.000001  -0.000001  -0.000764   5.745808   0.283448   0.087676
    11  C   -0.000000   0.000000  -0.000007   0.283448   5.052047   0.264700
    12  C   -0.000000  -0.000000   0.000001   0.087676   0.264700   5.116816
    13  C   -0.000000  -0.000000  -0.000000  -0.183759   0.099023   0.282484
    14  C   -0.000000   0.000000   0.000000   0.000569   0.009528  -0.077089
    15  C   -0.000000   0.000000  -0.000002   0.087485  -0.122388   0.052261
    16  C    0.000001   0.000000   0.000069   0.169055   0.045925  -0.122419
    17  O   -0.000034   0.000002   0.000005  -0.059763  -0.001233  -0.000042
    18  H   -0.000011   0.000262  -0.012608   0.003697   0.001426  -0.000048
    19  H    0.013778  -0.002262   0.013449   0.000968  -0.000075  -0.000002
    20  H   -0.074509   0.014156  -0.001964  -0.000000   0.000000  -0.000000
    21  H    0.451573  -0.070448   0.014410   0.000000   0.000000   0.000000
    22  H   -0.069206   0.453971  -0.069489  -0.000000   0.000000   0.000000
    23  H    0.014850  -0.059363   0.450919  -0.000005  -0.000006  -0.000000
    24  H   -0.000000   0.000000   0.000002  -0.068055   0.446428  -0.052891
    25  H    0.000000   0.000000   0.000000   0.016768  -0.066512   0.460959
    26  H   -0.000000  -0.000000   0.000000   0.000006  -0.000544   0.007532
    27  H    0.000000  -0.000000  -0.000000   0.000122  -0.000225  -0.003648
    28  H   -0.000000  -0.000000   0.000000   0.000000   0.000776  -0.008630
    29  H    0.000000   0.000000   0.000000   0.016245  -0.002052   0.014642
    30  H   -0.000007  -0.000002  -0.000020  -0.081147   0.012036  -0.001409
              13         14         15         16         17         18
     1  O   -0.000037   0.000000   0.000020   0.004417  -0.026749   0.013827
     2  S    0.000950   0.000007  -0.001626  -0.042085   0.389553  -0.006830
     3  N   -0.000012  -0.000000  -0.000326   0.005577  -0.033496   0.324488
     4  C    0.000005  -0.000000   0.000009  -0.000063  -0.004757  -0.004093
     5  C   -0.000001  -0.000000   0.000009  -0.000015  -0.022362   0.003870
     6  C   -0.000000   0.000000   0.000001   0.000017   0.002037  -0.000158
     7  C   -0.000000  -0.000000  -0.000000   0.000001  -0.000034  -0.000011
     8  C   -0.000000   0.000000   0.000000   0.000000   0.000002   0.000262
     9  C   -0.000000   0.000000  -0.000002   0.000069   0.000005  -0.012608
    10  C   -0.183759   0.000569   0.087485   0.169055  -0.059763   0.003697
    11  C    0.099023   0.009528  -0.122388   0.045925  -0.001233   0.001426
    12  C    0.282484  -0.077089   0.052261  -0.122419  -0.000042  -0.000048
    13  C    5.260756   0.407681   0.297158   0.086636  -0.000026   0.000009
    14  C    0.407681   4.549620  -0.077286   0.010348  -0.000000  -0.000000
    15  C    0.297158  -0.077286   5.034732   0.340207   0.000718  -0.000021
    16  C    0.086636   0.010348   0.340207   5.057745   0.007572  -0.001285
    17  O   -0.000026  -0.000000   0.000718   0.007572   8.158717   0.002330
    18  H    0.000009  -0.000000  -0.000021  -0.001285   0.002330   0.507606
    19  H    0.000001   0.000000   0.000013   0.000010   0.035591  -0.000642
    20  H    0.000000   0.000000   0.000000   0.000000   0.000023   0.000012
    21  H    0.000000   0.000000   0.000000   0.000000   0.000000  -0.000001
    22  H   -0.000000  -0.000000   0.000000  -0.000000  -0.000000  -0.000024
    23  H    0.000000   0.000000   0.000001   0.000020   0.000005   0.003093
    24  H    0.013699  -0.000209  -0.001878   0.013708   0.000198   0.000021
    25  H   -0.077288  -0.013608   0.014492  -0.001999   0.000001  -0.000001
    26  H   -0.018680   0.392215  -0.008967   0.000840   0.000000  -0.000000
    27  H   -0.012175   0.389533  -0.002938  -0.000377   0.000000   0.000000
    28  H   -0.018651   0.392349   0.007162  -0.000505  -0.000000  -0.000000
    29  H   -0.075452  -0.013739   0.460073  -0.066376  -0.000005  -0.000000
    30  H    0.014112  -0.000247  -0.046820   0.449381   0.005740   0.000032
              19         20         21         22         23         24
     1  O    0.000342   0.000000   0.000000  -0.000000  -0.000026   0.018218
     2  S   -0.009554   0.000001   0.000000   0.000003  -0.000124  -0.012673
     3  N   -0.013371  -0.000108   0.000011  -0.000112  -0.009496   0.000673
     4  C   -0.069809   0.015295  -0.001417   0.015542  -0.081288  -0.000071
     5  C    0.452410  -0.067587   0.014681  -0.001909   0.016849   0.000002
     6  C   -0.053327   0.457938  -0.067794   0.013820  -0.002207   0.000000
     7  C    0.013778  -0.074509   0.451573  -0.069206   0.014850  -0.000000
     8  C   -0.002262   0.014156  -0.070448   0.453971  -0.059363   0.000000
     9  C    0.013449  -0.001964   0.014410  -0.069489   0.450919   0.000002
    10  C    0.000968  -0.000000   0.000000  -0.000000  -0.000005  -0.068055
    11  C   -0.000075   0.000000   0.000000   0.000000  -0.000006   0.446428
    12  C   -0.000002  -0.000000   0.000000   0.000000  -0.000000  -0.052891
    13  C    0.000001   0.000000   0.000000  -0.000000   0.000000   0.013699
    14  C    0.000000   0.000000   0.000000  -0.000000   0.000000  -0.000209
    15  C    0.000013   0.000000   0.000000   0.000000   0.000001  -0.001878
    16  C    0.000010   0.000000   0.000000  -0.000000   0.000020   0.013708
    17  O    0.035591   0.000023   0.000000  -0.000000   0.000005   0.000198
    18  H   -0.000642   0.000012  -0.000001  -0.000024   0.003093   0.000021
    19  H    0.604940  -0.012753  -0.000190   0.000011  -0.000087  -0.000009
    20  H   -0.012753   0.665778  -0.012017  -0.000258   0.000023  -0.000000
    21  H   -0.000190  -0.012017   0.673483  -0.012388  -0.000233  -0.000000
    22  H    0.000011  -0.000258  -0.012388   0.668591  -0.013172   0.000000
    23  H   -0.000087   0.000023  -0.000233  -0.013172   0.687407  -0.000001
    24  H   -0.000009  -0.000000  -0.000000   0.000000  -0.000001   0.620258
    25  H   -0.000000  -0.000000  -0.000000   0.000000   0.000000  -0.011222
    26  H    0.000000   0.000000   0.000000   0.000000   0.000000   0.000007
    27  H   -0.000000  -0.000000  -0.000000  -0.000000  -0.000000   0.000003
    28  H   -0.000000   0.000000   0.000000   0.000000   0.000000  -0.000002
    29  H   -0.000001  -0.000000  -0.000000   0.000000  -0.000000   0.000021
    30  H   -0.000201   0.000001  -0.000000  -0.000000  -0.000008  -0.000224
              25         26         27         28         29         30
     1  O   -0.000009   0.000000  -0.000000   0.000000   0.000000   0.000185
     2  S   -0.000158  -0.000000   0.000000  -0.000000  -0.000157  -0.005715
     3  N    0.000004   0.000000  -0.000000   0.000000   0.000002   0.000911
     4  C   -0.000000  -0.000000   0.000000  -0.000000  -0.000002   0.000487
     5  C    0.000000  -0.000000   0.000000  -0.000000   0.000000   0.000322
     6  C   -0.000000   0.000000  -0.000000   0.000000  -0.000000   0.000052
     7  C    0.000000  -0.000000   0.000000  -0.000000   0.000000  -0.000007
     8  C    0.000000  -0.000000  -0.000000  -0.000000   0.000000  -0.000002
     9  C    0.000000   0.000000  -0.000000   0.000000   0.000000  -0.000020
    10  C    0.016768   0.000006   0.000122   0.000000   0.016245  -0.081147
    11  C   -0.066512  -0.000544  -0.000225   0.000776  -0.002052   0.012036
    12  C    0.460959   0.007532  -0.003648  -0.008630   0.014642  -0.001409
    13  C   -0.077288  -0.018680  -0.012175  -0.018651  -0.075452   0.014112
    14  C   -0.013608   0.392215   0.389533   0.392349  -0.013739  -0.000247
    15  C    0.014492  -0.008967  -0.002938   0.007162   0.460073  -0.046820
    16  C   -0.001999   0.000840  -0.000377  -0.000505  -0.066376   0.449381
    17  O    0.000001   0.000000   0.000000  -0.000000  -0.000005   0.005740
    18  H   -0.000001  -0.000000   0.000000  -0.000000  -0.000000   0.000032
    19  H   -0.000000   0.000000  -0.000000  -0.000000  -0.000001  -0.000201
    20  H   -0.000000   0.000000  -0.000000   0.000000  -0.000000   0.000001
    21  H   -0.000000   0.000000  -0.000000   0.000000  -0.000000  -0.000000
    22  H    0.000000   0.000000  -0.000000   0.000000   0.000000  -0.000000
    23  H    0.000000   0.000000  -0.000000   0.000000  -0.000000  -0.000008
    24  H   -0.011222   0.000007   0.000003  -0.000002   0.000021  -0.000224
    25  H    0.666364   0.000162   0.000756   0.004398  -0.000224   0.000024
    26  H    0.000162   0.619870  -0.017315  -0.022159   0.004543  -0.000001
    27  H    0.000756  -0.017315   0.599385  -0.017201   0.000712   0.000005
    28  H    0.004398  -0.022159  -0.017201   0.618601   0.000154   0.000008
    29  H   -0.000224   0.004543   0.000712   0.000154   0.665513  -0.011877
    30  H    0.000024  -0.000001   0.000005   0.000008  -0.011877   0.640988
 Mulliken charges:
               1
     1  O   -0.481422
     2  S    0.937951
     3  N   -0.298991
     4  C    0.128648
     5  C   -0.071142
     6  C   -0.004505
     7  C   -0.011059
     8  C   -0.006522
     9  C   -0.050327
    10  C   -0.090019
    11  C   -0.000597
    12  C   -0.024999
    13  C   -0.076433
    14  C    0.030326
    15  C   -0.032089
    16  C    0.043598
    17  O   -0.454026
    18  H    0.165052
    19  H    0.040769
    20  H    0.015969
    21  H    0.010330
    22  H    0.014620
    23  H   -0.007152
    24  H    0.033997
    25  H    0.007094
    26  H    0.042491
    27  H    0.063365
    28  H    0.043701
    29  H    0.007979
    30  H    0.023393
 Sum of Mulliken charges =  -0.00000
 Mulliken charges with hydrogens summed into heavy atoms:
               1
     1  O   -0.481422
     2  S    0.937951
     3  N   -0.133940
     4  C    0.128648
     5  C   -0.030373
     6  C    0.011464
     7  C   -0.000729
     8  C    0.008098
     9  C   -0.057480
    10  C   -0.090019
    11  C    0.033400
    12  C   -0.017905
    13  C   -0.076433
    14  C    0.179883
    15  C   -0.024110
    16  C    0.066991
    17  O   -0.454026
 Electronic spatial extent (au):  <R**2>=           5383.2459
 Charge=             -0.0000 electrons
 Dipole moment (field-independent basis, Debye):
    X=              2.0981    Y=             -3.4740    Z=             -1.7848  Tot=              4.4335
 Quadrupole moment (field-independent basis, Debye-Ang):
   XX=            -87.1818   YY=           -112.7318   ZZ=           -103.7274
   XY=             -0.5907   XZ=             -0.6479   YZ=             -1.9957
 Traceless Quadrupole moment (field-independent basis, Debye-Ang):
   XX=             14.0319   YY=            -11.5182   ZZ=             -2.5137
   XY=             -0.5907   XZ=             -0.6479   YZ=             -1.9957
 Octapole moment (field-independent basis, Debye-Ang**2):
  XXX=             41.7026  YYY=             -8.8529  ZZZ=            -11.5953  XYY=             16.5086
  XXY=            -24.0679  XXZ=             -4.2692  XZZ=            -12.2719  YZZ=             -3.1797
  YYZ=              4.1084  XYZ=            -11.3039
 Hexadecapole moment (field-independent basis, Debye-Ang**3):
 XXXX=          -5275.3677 YYYY=          -1072.7193 ZZZZ=           -531.6883 XXXY=             40.6779
 XXXZ=            -89.9059 YYYX=            -37.9635 YYYZ=             10.6322 ZZZX=             -1.6787
 ZZZY=             -4.3697 XXYY=          -1084.2943 XXZZ=          -1014.0228 YYZZ=           -261.1544
 XXYZ=              1.9240 YYXZ=             17.2658 ZZXY=              7.2574
 N-N= 1.296224981392D+03 E-N=-5.181195327877D+03  KE= 1.097909965707D+03
   1 Symmetry operations used in ECPInt.
 ECPInt:  NShTT=   10296 NPrTT=   38220 LenC2=    9259 LenP2D=   24259.
 LDataN:  DoStor=T MaxTD1= 5 Len=  102
 Calling FoFJK, ICntrl=      2127 FMM=F ISym2X=0 I1Cent= 0 IOpClX= 0 NMat=1 NMatS=1 NMatT=0.
 ***** Axes restored to original set *****
 -------------------------------------------------------------------
 Center     Atomic                   Forces (Hartrees/Bohr)
 Number     Number              X              Y              Z
 -------------------------------------------------------------------
      1        8           0.010174926   -0.036044437   -0.036187431
      2       16          -0.032810383    0.032278052   -0.005794025
      3        7          -0.001258732    0.017153031   -0.029942448
      4        6           0.028158125   -0.009740822   -0.004889197
      5        6          -0.012566406    0.002512679    0.002362875
      6        6           0.004944719   -0.005042312    0.003386919
      7        6           0.007424419   -0.002229090   -0.002785843
      8        6           0.003266961   -0.000766446   -0.001060457
      9        6          -0.014366526    0.006529768    0.000575977
     10        6           0.008270164    0.013022682    0.001382806
     11        6          -0.001061761    0.009891739    0.007003227
     12        6           0.001112009   -0.002219555   -0.002392991
     13        6          -0.004207142   -0.001500828    0.002509997
     14        6          -0.004145309    0.000287264   -0.003364255
     15        6           0.003140113    0.002588687    0.000322873
     16        6           0.004926221   -0.007381262   -0.008553899
     17        8          -0.007990425   -0.005990320    0.055076859
     18        1           0.001057289   -0.000150518    0.020951135
     19        1          -0.000383770    0.003533438   -0.007090868
     20        1           0.002498144    0.003245919   -0.009340934
     21        1           0.009776946   -0.003313081   -0.002569395
     22        1           0.005026369   -0.005670257    0.007195403
     23        1          -0.003819409   -0.003856891    0.011933421
     24        1           0.000744556    0.008703039    0.005779054
     25        1          -0.008522695    0.005260319    0.006193570
     26        1          -0.001052140   -0.004147034   -0.004497397
     27        1          -0.000844993   -0.005321683    0.005499322
     28        1          -0.005138672    0.003009041    0.001777155
     29        1           0.000055436   -0.009413981   -0.007036462
     30        1           0.007591964   -0.005227141   -0.006444991
 -------------------------------------------------------------------
 Cartesian Forces:  Max     0.055076859 RMS     0.011988940

 GradGradGradGradGradGradGradGradGradGradGradGradGradGradGradGradGradGrad
 Berny optimization.
 FormGI is forming the generalized inverse of G from B-inverse, IUseBI=4.
 Internal  Forces:  Max     0.057277148 RMS     0.010695188
 Search for a local minimum.
 Step number   1 out of a maximum of  162
 All quantities printed in internal units (Hartrees-Bohrs-Radians)
 Mixed Optimization -- RFO/linear search
 Second derivative matrix not updated -- first step.
 ITU=  0
     Eigenvalues ---    0.00424   0.00926   0.01177   0.01609   0.01744
     Eigenvalues ---    0.01746   0.01993   0.02132   0.02240   0.02268
     Eigenvalues ---    0.02270   0.02300   0.02308   0.02339   0.02348
     Eigenvalues ---    0.02348   0.02370   0.02385   0.02387   0.02394
     Eigenvalues ---    0.02396   0.02423   0.02974   0.07316   0.07338
     Eigenvalues ---    0.09975   0.11558   0.12152   0.12977   0.15999
     Eigenvalues ---    0.16000   0.16000   0.16000   0.16000   0.16000
     Eigenvalues ---    0.16000   0.16000   0.16000   0.16000   0.16000
     Eigenvalues ---    0.16000   0.17260   0.21999   0.22000   0.22000
     Eigenvalues ---    0.22977   0.23186   0.23458   0.23997   0.24987
     Eigenvalues ---    0.24996   0.25000   0.25000   0.26441   0.33683
     Eigenvalues ---    0.34771   0.34772   0.34776   0.34827   0.36259
     Eigenvalues ---    0.36275   0.36287   0.36295   0.36296   0.36442
     Eigenvalues ---    0.36443   0.36510   0.36743   0.42549   0.43424
     Eigenvalues ---    0.44023   0.44267   0.46308   0.47065   0.47804
     Eigenvalues ---    0.47921   0.48055   0.49072   0.49253   0.49300
     Eigenvalues ---    0.50060   0.50118   0.76171   0.76500
 RFO step:  Lambda=-4.33343487D-02 EMin= 4.24321016D-03
 Linear search not attempted -- first point.
 Maximum step size (   0.300) exceeded in Quadratic search.
    -- Step size scaled by   0.885
 Iteration  1 RMS(Cart)=  0.17468828 RMS(Int)=  0.00575272
 Iteration  2 RMS(Cart)=  0.01708144 RMS(Int)=  0.00062257
 Iteration  3 RMS(Cart)=  0.00020505 RMS(Int)=  0.00061937
 Iteration  4 RMS(Cart)=  0.00000019 RMS(Int)=  0.00061937
 Variable       Old X    -DE/DX   Delta X   Delta X   Delta X     New X
                                 (Linear)    (Quad)   (Total)
    R1        2.83749  -0.05163   0.00000  -0.05675  -0.05675   2.78074
    R2        3.22956   0.00814   0.00000   0.01839   0.01839   3.24795
    R3        3.39379  -0.00442   0.00000  -0.01270  -0.01270   3.38109
    R4        2.83560  -0.05560   0.00000  -0.06085  -0.06085   2.77474
    R5        2.63786   0.03205   0.00000   0.05600   0.05600   2.69386
    R6        1.88723   0.01982   0.00000   0.03357   0.03357   1.92080
    R7        2.64541   0.00755   0.00000   0.01310   0.01310   2.65851
    R8        2.64613   0.00505   0.00000   0.00829   0.00829   2.65442
    R9        2.59646   0.01994   0.00000   0.03269   0.03270   2.62916
   R10        2.02936   0.00658   0.00000   0.01417   0.01417   2.04353
   R11        2.60827   0.01223   0.00000   0.02088   0.02089   2.62916
   R12        2.03653   0.01011   0.00000   0.02203   0.02203   2.05856
   R13        2.60889   0.01085   0.00000   0.01826   0.01826   2.62715
   R14        2.03623   0.01063   0.00000   0.02315   0.02315   2.05938
   R15        2.59858   0.01569   0.00000   0.02521   0.02520   2.62378
   R16        2.03635   0.01040   0.00000   0.02265   0.02265   2.05899
   R17        2.03292   0.01306   0.00000   0.02830   0.02830   2.06122
   R18        2.59633   0.01643   0.00000   0.02711   0.02711   2.62344
   R19        2.59614   0.01951   0.00000   0.03206   0.03206   2.62820
   R20        2.60806   0.01297   0.00000   0.02151   0.02151   2.62957
   R21        2.03678   0.01046   0.00000   0.02280   0.02280   2.05958
   R22        2.62200   0.01385   0.00000   0.02308   0.02307   2.64507
   R23        2.03395   0.01170   0.00000   0.02538   0.02538   2.05933
   R24        2.81168   0.01277   0.00000   0.02973   0.02973   2.84141
   R25        2.62225   0.01611   0.00000   0.02689   0.02689   2.64914
   R26        2.06048   0.00605   0.00000   0.01368   0.01368   2.07416
   R27        2.06040   0.00767   0.00000   0.01735   0.01735   2.07774
   R28        2.06047   0.00605   0.00000   0.01369   0.01369   2.07416
   R29        2.60821   0.00974   0.00000   0.01611   0.01611   2.62432
   R30        2.03396   0.01167   0.00000   0.02532   0.02532   2.05928
   R31        2.03622   0.01107   0.00000   0.02410   0.02410   2.06031
    A1        1.84735  -0.00419   0.00000  -0.01735  -0.01925   1.82810
    A2        1.87604  -0.00038   0.00000   0.01285   0.01297   1.88901
    A3        2.13201  -0.00166   0.00000  -0.02781  -0.02938   2.10263
    A4        1.67337   0.02161   0.00000   0.08181   0.08153   1.75490
    A5        2.02630  -0.00854   0.00000  -0.03453  -0.03665   1.98965
    A6        1.84784  -0.00017   0.00000   0.01827   0.01902   1.86686
    A7        2.10712   0.05728   0.00000   0.19019   0.18885   2.29597
    A8        1.78480  -0.01424   0.00000  -0.02171  -0.02270   1.76210
    A9        2.01139  -0.02074   0.00000  -0.06502  -0.06868   1.94272
   A10        2.15686   0.02400   0.00000   0.07315   0.07310   2.22995
   A11        2.07603  -0.02560   0.00000  -0.07647  -0.07648   1.99955
   A12        2.05018   0.00158   0.00000   0.00312   0.00308   2.05326
   A13        2.11622  -0.00441   0.00000  -0.01456  -0.01455   2.10168
   A14        2.07174   0.00670   0.00000   0.02684   0.02683   2.09856
   A15        2.09519  -0.00229   0.00000  -0.01225  -0.01226   2.08293
   A16        2.09664   0.00495   0.00000   0.01867   0.01869   2.11533
   A17        2.09275  -0.00384   0.00000  -0.01529  -0.01530   2.07745
   A18        2.09379  -0.00111   0.00000  -0.00338  -0.00339   2.09040
   A19        2.09169  -0.00542   0.00000  -0.01632  -0.01631   2.07538
   A20        2.09561   0.00310   0.00000   0.00987   0.00987   2.10548
   A21        2.09588   0.00231   0.00000   0.00645   0.00644   2.10232
   A22        2.09806   0.00047   0.00000   0.00149   0.00148   2.09954
   A23        2.09239   0.00082   0.00000   0.00386   0.00386   2.09625
   A24        2.09274  -0.00129   0.00000  -0.00534  -0.00534   2.08739
   A25        2.11357   0.00282   0.00000   0.00759   0.00758   2.12114
   A26        2.06906  -0.00029   0.00000   0.00108   0.00109   2.07015
   A27        2.10055  -0.00253   0.00000  -0.00867  -0.00866   2.09189
   A28        2.09227  -0.00220   0.00000  -0.00755  -0.00756   2.08471
   A29        2.09010  -0.00162   0.00000  -0.00580  -0.00582   2.08428
   A30        2.10082   0.00381   0.00000   0.01336   0.01336   2.11417
   A31        2.09311  -0.00413   0.00000  -0.01263  -0.01262   2.08049
   A32        2.07786   0.00254   0.00000   0.00840   0.00840   2.08626
   A33        2.11221   0.00158   0.00000   0.00423   0.00423   2.11644
   A34        2.10377   0.00232   0.00000   0.00717   0.00716   2.11094
   A35        2.09627  -0.00245   0.00000  -0.00918  -0.00918   2.08709
   A36        2.08314   0.00012   0.00000   0.00201   0.00201   2.08516
   A37        2.10502   0.00040   0.00000   0.00200   0.00201   2.10703
   A38        2.07179  -0.00045   0.00000  -0.00283  -0.00284   2.06895
   A39        2.10596   0.00005   0.00000   0.00093   0.00094   2.10690
   A40        1.93974   0.00112   0.00000   0.00558   0.00556   1.94530
   A41        1.93340   0.00017   0.00000  -0.00064  -0.00064   1.93276
   A42        1.93937   0.00104   0.00000   0.00518   0.00516   1.94453
   A43        1.88522  -0.00118   0.00000  -0.00642  -0.00642   1.87880
   A44        1.87858  -0.00011   0.00000   0.00215   0.00211   1.88069
   A45        1.88525  -0.00116   0.00000  -0.00640  -0.00640   1.87885
   A46        2.10502   0.00233   0.00000   0.00700   0.00699   2.11201
   A47        2.08246   0.00020   0.00000   0.00245   0.00245   2.08491
   A48        2.09570  -0.00253   0.00000  -0.00944  -0.00944   2.08626
   A49        2.09178  -0.00388   0.00000  -0.01200  -0.01200   2.07978
   A50        2.08187   0.00400   0.00000   0.01494   0.01493   2.09680
   A51        2.10953  -0.00011   0.00000  -0.00293  -0.00293   2.10660
    D1       -2.00495   0.00750   0.00000   0.04573   0.04340  -1.96155
    D2        0.25633   0.00927   0.00000   0.08130   0.08209   0.33842
    D3        2.35705   0.00146   0.00000   0.00800   0.00606   2.36311
    D4       -1.66485   0.00323   0.00000   0.04356   0.04475  -1.62010
    D5        0.42162  -0.00799   0.00000  -0.04890  -0.04931   0.37231
    D6        2.68291  -0.00622   0.00000  -0.01334  -0.01062   2.67228
    D7        0.07588  -0.00203   0.00000  -0.01210  -0.01259   0.06329
    D8       -3.06443  -0.00256   0.00000  -0.01997  -0.02041  -3.08484
    D9        1.97264   0.00134   0.00000   0.00215   0.00185   1.97449
   D10       -1.16767   0.00081   0.00000  -0.00571  -0.00597  -1.17364
   D11       -2.22876   0.00040   0.00000   0.00146   0.00218  -2.22658
   D12        0.91412  -0.00013   0.00000  -0.00641  -0.00564   0.90847
   D13       -0.26379   0.00388   0.00000   0.00910   0.00758  -0.25621
   D14        2.89452   0.00496   0.00000   0.02435   0.02286   2.91738
   D15       -2.42107  -0.00838   0.00000  -0.07416  -0.07266  -2.49373
   D16        0.73725  -0.00730   0.00000  -0.05891  -0.05739   0.67986
   D17       -3.12929   0.00117   0.00000   0.01384   0.01442  -3.11487
   D18        0.02121   0.00091   0.00000   0.01062   0.01104   0.03225
   D19       -0.00419  -0.00014   0.00000  -0.00193  -0.00194  -0.00613
   D20       -3.13687  -0.00040   0.00000  -0.00515  -0.00532   3.14099
   D21        3.13007  -0.00041   0.00000  -0.00836  -0.00772   3.12235
   D22       -0.00711  -0.00050   0.00000  -0.00915  -0.00861  -0.01572
   D23        0.00418   0.00037   0.00000   0.00523   0.00513   0.00931
   D24       -3.13300   0.00028   0.00000   0.00444   0.00424  -3.12876
   D25        0.00182  -0.00013   0.00000  -0.00208  -0.00199  -0.00017
   D26       -3.13698  -0.00005   0.00000  -0.00047  -0.00048  -3.13747
   D27        3.13438   0.00018   0.00000   0.00139   0.00156   3.13594
   D28       -0.00442   0.00026   0.00000   0.00299   0.00306  -0.00135
   D29        0.00071   0.00020   0.00000   0.00292   0.00285   0.00356
   D30       -3.14015   0.00011   0.00000   0.00168   0.00163  -3.13852
   D31        3.13951   0.00011   0.00000   0.00129   0.00131   3.14082
   D32       -0.00135   0.00002   0.00000   0.00006   0.00010  -0.00125
   D33       -0.00071   0.00001   0.00000   0.00031   0.00027  -0.00044
   D34        3.14055  -0.00013   0.00000  -0.00209  -0.00202   3.13852
   D35        3.14015   0.00010   0.00000   0.00155   0.00148  -3.14155
   D36       -0.00178  -0.00005   0.00000  -0.00086  -0.00081  -0.00259
   D37       -0.00182  -0.00029   0.00000  -0.00446  -0.00432  -0.00614
   D38        3.13529  -0.00020   0.00000  -0.00363  -0.00340   3.13189
   D39        3.14011  -0.00015   0.00000  -0.00206  -0.00205   3.13807
   D40       -0.00597  -0.00005   0.00000  -0.00123  -0.00112  -0.00709
   D41        3.14159  -0.00019   0.00000  -0.00301  -0.00303   3.13856
   D42        0.00124  -0.00019   0.00000  -0.00304  -0.00305  -0.00181
   D43       -0.00129   0.00034   0.00000   0.00489   0.00492   0.00363
   D44        3.14155   0.00033   0.00000   0.00486   0.00489  -3.13675
   D45       -3.14154   0.00015   0.00000   0.00248   0.00250  -3.13904
   D46       -0.00296   0.00019   0.00000   0.00309   0.00311   0.00015
   D47        0.00133  -0.00038   0.00000  -0.00542  -0.00544  -0.00411
   D48        3.13992  -0.00033   0.00000  -0.00481  -0.00484   3.13509
   D49       -0.00578   0.00006   0.00000   0.00080   0.00082  -0.00496
   D50        3.13666   0.00012   0.00000   0.00163   0.00164   3.13829
   D51        3.13454   0.00006   0.00000   0.00083   0.00085   3.13539
   D52       -0.00620   0.00012   0.00000   0.00166   0.00166  -0.00454
   D53        3.12334  -0.00014   0.00000  -0.00176  -0.00176   3.12158
   D54        0.01256  -0.00042   0.00000  -0.00587  -0.00586   0.00669
   D55       -0.01909  -0.00021   0.00000  -0.00258  -0.00258  -0.02167
   D56       -3.12988  -0.00049   0.00000  -0.00670  -0.00668  -3.13656
   D57        2.64873   0.00049   0.00000   0.00255   0.00257   2.65130
   D58       -1.53852  -0.00015   0.00000  -0.00228  -0.00228  -1.54080
   D59        0.55720  -0.00081   0.00000  -0.00734  -0.00736   0.54984
   D60       -0.52427   0.00077   0.00000   0.00668   0.00670  -0.51757
   D61        1.57166   0.00013   0.00000   0.00185   0.00185   1.57351
   D62       -2.61581  -0.00054   0.00000  -0.00321  -0.00323  -2.61903
   D63       -0.01252   0.00038   0.00000   0.00534   0.00533  -0.00719
   D64        3.13004   0.00046   0.00000   0.00635   0.00634   3.13638
   D65       -3.12329   0.00010   0.00000   0.00121   0.00120  -3.12208
   D66        0.01927   0.00017   0.00000   0.00222   0.00222   0.02149
   D67        0.00569   0.00001   0.00000   0.00026   0.00024   0.00593
   D68       -3.13285  -0.00003   0.00000  -0.00039  -0.00040  -3.13325
   D69       -3.13687  -0.00006   0.00000  -0.00076  -0.00077  -3.13764
   D70        0.00778  -0.00011   0.00000  -0.00141  -0.00141   0.00637
         Item               Value     Threshold  Converged?
 Maximum Force            0.057277     0.000450     NO 
 RMS     Force            0.010695     0.000300     NO 
 Maximum Displacement     0.720284     0.001800     NO 
 RMS     Displacement     0.185724     0.001200     NO 
 Predicted change in Energy=-2.382212D-02
 GradGradGradGradGradGradGradGradGradGradGradGradGradGradGradGradGradGrad

                          Input orientation:                          
 ---------------------------------------------------------------------
 Center     Atomic      Atomic             Coordinates (Angstroms)
 Number     Number       Type             X           Y           Z
 ---------------------------------------------------------------------
      1          8           0       -0.174954    2.401094    0.974975
      2         16           0       -0.093006    1.349886   -0.051461
      3          7           0        0.972657    0.174796    0.610055
      4          6           0        2.282893   -0.235697    0.226763
      5          6           0        2.948907    0.028459   -0.983939
      6          6           0        4.224881   -0.477561   -1.210931
      7          6           0        4.873402   -1.252759   -0.254801
      8          6           0        4.223686   -1.523998    0.943964
      9          6           0        2.948776   -1.026322    1.177853
     10          6           0       -1.632287    0.437878   -0.042851
     11          6           0       -2.660989    0.843179    0.796663
     12          6           0       -3.857281    0.132421    0.796639
     13          6           0       -4.036030   -0.975922   -0.039311
     14          6           0       -5.321404   -1.755757   -0.016774
     15          6           0       -2.978496   -1.362519   -0.874409
     16          6           0       -1.780388   -0.660361   -0.883222
     17          8           0        0.192551    1.695170   -1.449756
     18          1           0        0.934286    0.413148    1.597411
     19          1           0        2.474898    0.631988   -1.745827
     20          1           0        4.721278   -0.255797   -2.154902
     21          1           0        5.874063   -1.642088   -0.441123
     22          1           0        4.712317   -2.131412    1.705184
     23          1           0        2.441999   -1.251105    2.117206
     24          1           0       -2.518306    1.710350    1.441258
     25          1           0       -4.667761    0.443316    1.455440
     26          1           0       -5.520628   -2.229573   -0.986585
     27          1           0       -5.280801   -2.551487    0.740890
     28          1           0       -6.176946   -1.111314    0.222950
     29          1           0       -3.099759   -2.226217   -1.527719
     30          1           0       -0.963965   -0.960815   -1.540390
 ---------------------------------------------------------------------
                    Distance matrix (angstroms):
                    1          2          3          4          5
     1  O    0.000000
     2  S    1.471505   0.000000
     3  N    2.531123   1.718743   0.000000
     4  C    3.681508   2.869909   1.425530   0.000000
     5  C    4.384661   3.445130   2.543186   1.406824   0.000000
     6  C    5.694154   4.829915   3.783982   2.428328   1.391291
     7  C    6.352077   5.610732   4.242840   2.824368   2.424219
     8  C    5.895367   5.280522   3.683285   2.437371   2.784240
     9  C    4.641770   4.050927   2.381202   1.404656   2.405391
    10  C    2.648397   1.789195   2.698376   3.981838   4.694743
    11  C    2.939262   2.751472   3.699316   5.092222   5.941822
    12  C    4.328766   4.046141   4.833726   6.177541   7.036012
    13  C    5.228855   4.577878   5.180036   6.367694   7.119723
    14  C    6.689464   6.081313   6.613256   7.758559   8.515685
    15  C    5.044289   4.044804   4.492057   5.492224   6.089411
    16  C    3.924643   2.753211   3.241391   4.233516   4.780256
    17  O    2.552002   1.468330   2.676364   3.302801   3.254598
    18  H    2.360036   2.156753   1.016443   2.029388   3.296976
    19  H    4.189776   3.159175   2.831243   2.163529   1.081391
    20  H    6.389703   5.493634   4.677880   3.408586   2.143188
    21  H    7.412373   6.686529   5.331963   3.914143   3.412025
    22  H    6.705389   6.188406   4.528019   3.417831   3.873763
    23  H    4.635913   4.230191   2.542374   2.151776   3.392836
    24  H    2.487136   2.870579   3.903287   5.321053   6.212951
    25  H    4.924333   4.901122   5.709737   7.091001   8.008515
    26  H    7.339416   6.568567   7.105843   8.145103   8.765372
    27  H    7.117059   6.539246   6.823157   7.926959   8.795411
    28  H    6.994744   6.568647   7.274664   8.505033   9.275605
    29  H    6.019134   4.899838   5.188402   6.001111   6.478089
    30  H    4.272240   2.883543   3.108783   3.767057   4.074172
                    6          7          8          9         10
     6  C    0.000000
     7  C    1.391293   0.000000
     8  C    2.395539   1.390230   0.000000
     9  C    2.763308   2.409970   1.388446   0.000000
    10  C    6.042256   6.725114   6.254214   4.961868   0.000000
    11  C    7.293147   7.890854   7.281757   5.925352   1.388266
    12  C    8.350075   8.902195   8.250301   6.914508   2.397634
    13  C    8.358451   8.916336   8.336074   7.090243   2.788696
    14  C    9.705223  10.209982   9.596118   8.387794   4.292121
    15  C    7.265331   7.877072   7.429939   6.281509   2.396914
    16  C    6.016981   6.709602   6.335091   5.171744   1.390786
    17  O    4.586663   5.659378   5.687090   4.680558   2.624918
    18  H    4.416804   4.660748   3.872943   2.511229   3.046041
    19  H    2.140012   3.395327   3.865426   3.394475   4.450481
    20  H    1.089344   2.151152   3.385100   3.852626   6.731251
    21  H    2.160679   1.089779   2.157812   3.399641   7.799370
    22  H    3.387705   2.153955   1.089572   2.146947   7.064763
    23  H    3.854028   3.396784   2.150669   1.090749   4.911040
    24  H    7.569123   8.142111   7.494183   6.119456   2.146345
    25  H    9.329342   9.840497   9.120843   7.761992   3.385116
    26  H    9.904283  10.465445   9.958741   8.824025   4.808859
    27  H    9.923143  10.285229   9.562021   8.381109   4.781444
    28  H   10.519299  11.061574  10.433758   9.175939   4.808801
    29  H    7.537142   8.132603   7.761133   6.733843   3.384628
    30  H    5.221705   5.984382   5.779353   4.764733   2.155370
                   11         12         13         14         15
    11  C    0.000000
    12  C    1.391507   0.000000
    13  C    2.428729   1.399711   0.000000
    14  C    3.807094   2.523988   1.503608   0.000000
    15  C    2.785390   2.408218   1.401864   2.525746   0.000000
    16  C    2.420352   2.786382   2.428927   3.806497   1.388729
    17  O    3.730278   4.887700   5.196632   6.660783   4.442525
    18  H    3.708385   4.866123   5.414094   6.814939   4.957091
    19  H    5.734649   6.841798   6.920243   8.335064   5.871707
    20  H    8.026042   9.080418   9.037962  10.376750   7.883592
    21  H    8.975288   9.968952   9.940583  11.204083   8.867565
    22  H    8.002452   8.910017   8.995110  10.187336   8.148258
    23  H    5.671891   6.583234   6.833092   8.067154   6.192248
    24  H    1.089884   2.167544   3.422226   4.690109   3.875128
    25  H    2.149654   1.089748   2.155830   2.725910   3.397477
    26  H    4.560628   3.394942   2.161712   1.097600   2.688271
    27  H    4.288390   3.038566   2.154199   1.099495   3.053431
    28  H    4.063390   2.693852   2.161164   1.097600   3.390778
    29  H    3.875109   3.397007   2.157591   2.727635   1.089722
    30  H    3.405305   3.876616   3.419218   4.684081   2.159452
                   16         17         18         19         20
    16  C    0.000000
    17  O    3.124415   0.000000
    18  H    3.830850   3.388064   0.000000
    19  H    4.530090   2.535177   3.687630   0.000000
    20  H    6.637206   4.981252   5.372956   2.449842   0.000000
    21  H    7.729803   6.665900   5.725471   4.292785   2.487520
    22  H    7.142762   6.710042   4.556306   4.954988   4.291652
    23  H    5.213453   5.144295   2.305022   4.297691   4.943345
    24  H    3.401177   3.963198   3.691545   6.021002   8.319236
    25  H    3.876128   5.799132   5.603926   7.829514  10.083520
    26  H    4.057402   6.946837   7.438207   8.526044  10.495590
    27  H    4.297324   7.265714   6.939019   8.744664  10.662898
    28  H    4.555952   7.158546   7.401536   9.042654  11.187375
    29  H    2.146631   5.120806   5.745103   6.268470   8.089780
[...]
     7  C    4.962403   0.440632   0.034441  -0.000210  -0.000078   0.000025
     8  C    0.440632   4.930601   0.410782  -0.001698  -0.000556  -0.000107
     9  C    0.034441   0.410782   5.112774  -0.000575  -0.002144   0.000971
    10  C   -0.000210  -0.001698  -0.000575   5.294881   0.364863   0.019578
    11  C   -0.000078  -0.000556  -0.002144   0.364863   5.106866   0.402386
    12  C    0.000025  -0.000107   0.000971   0.019578   0.402386   5.066313
    13  C    0.000068   0.000046  -0.000484  -0.092262   0.018825   0.426742
    14  C   -0.000000  -0.000011  -0.000014  -0.004902   0.013734  -0.073850
    15  C   -0.000204   0.001966  -0.000821   0.050176  -0.051242  -0.006229
    16  C   -0.000466   0.000798  -0.012641   0.317839  -0.064081  -0.055919
    17  O    0.000117   0.000101   0.001074  -0.079197   0.006580  -0.000209
    18  H    0.000135   0.001088   0.008811  -0.000753   0.000175  -0.000173
    19  H    0.010164  -0.004414   0.011248   0.001820  -0.000179   0.000008
    20  H   -0.058285   0.010530  -0.003477  -0.000017   0.000001  -0.000000
    21  H    0.443851  -0.056023   0.012171   0.000003  -0.000001   0.000000
    22  H   -0.057017   0.438845  -0.054043   0.000009  -0.000000  -0.000002
    23  H    0.010298  -0.031252   0.439448   0.000797   0.000290   0.000340
    24  H   -0.000003   0.000007  -0.000128  -0.045177   0.432038  -0.048555
    25  H   -0.000000   0.000003   0.000001   0.011401  -0.049347   0.443408
    26  H    0.000000   0.000001   0.000000  -0.000039  -0.000463   0.006874
    27  H   -0.000000  -0.000005   0.000012   0.000491  -0.001232  -0.004334
    28  H   -0.000000   0.000000  -0.000000  -0.000063   0.002187  -0.005889
    29  H   -0.000002   0.000075  -0.000072   0.010712  -0.003699   0.012832
    30  H    0.000156   0.000086  -0.001412  -0.045591   0.008346  -0.002567
              13         14         15         16         17         18
     1  O    0.000148   0.000001  -0.000550   0.008365  -0.043890   0.004389
     2  S   -0.000767  -0.000002   0.005205  -0.018024   0.565363  -0.016628
     3  N    0.000522   0.000005  -0.000441   0.008664  -0.049969   0.365762
     4  C   -0.001081  -0.000013   0.002778  -0.005693  -0.007650  -0.051679
     5  C    0.000205   0.000005  -0.002400   0.001213  -0.003637   0.004594
     6  C   -0.000040  -0.000000   0.000428  -0.001531  -0.001011  -0.000709
     7  C    0.000068  -0.000000  -0.000204  -0.000466   0.000117   0.000135
     8  C    0.000046  -0.000011   0.001966   0.000798   0.000101   0.001088
     9  C   -0.000484  -0.000014  -0.000821  -0.012641   0.001074   0.008811
    10  C   -0.092262  -0.004902   0.050176   0.317839  -0.079197  -0.000753
    11  C    0.018825   0.013734  -0.051242  -0.064081   0.006580   0.000175
    12  C    0.426742  -0.073850  -0.006229  -0.055919  -0.000209  -0.000173
    13  C    4.973201   0.299493   0.412714   0.032370  -0.000144   0.000079
    14  C    0.299493   4.956811  -0.075115   0.014790  -0.000001   0.000001
    15  C    0.412714  -0.075115   5.092475   0.363225   0.002946  -0.000067
    16  C    0.032370   0.014790   0.363225   5.135725   0.018900   0.000753
    17  O   -0.000144  -0.000001   0.002946   0.018900   8.031402   0.002669
    18  H    0.000079   0.000001  -0.000067   0.000753   0.002669   0.429319
    19  H    0.000016   0.000000  -0.000162  -0.000430   0.008877  -0.000062
    20  H   -0.000000  -0.000000   0.000008  -0.000009  -0.000036   0.000013
    21  H   -0.000001   0.000000  -0.000001  -0.000016   0.000001  -0.000002
    22  H   -0.000009  -0.000000   0.000026   0.000019  -0.000000  -0.000040
    23  H   -0.000005   0.000002  -0.000304  -0.000122  -0.000016   0.003598
    24  H    0.008555   0.000010  -0.002675   0.008577   0.000530   0.000352
    25  H   -0.061834  -0.006834   0.013008  -0.003965   0.000004  -0.000009
    26  H   -0.053897   0.428517  -0.006398   0.001975   0.000000  -0.000000
    27  H   -0.018130   0.389359  -0.003788  -0.001181   0.000000  -0.000000
    28  H   -0.054538   0.427453   0.007223  -0.000492  -0.000000  -0.000000
    29  H   -0.062844  -0.006901   0.443838  -0.047973  -0.000010  -0.000000
    30  H    0.008992  -0.000017  -0.049110   0.435083   0.008460  -0.000097
              19         20         21         22         23         24
     1  O   -0.000131  -0.000000   0.000000  -0.000000  -0.000175   0.013569
     2  S   -0.002959  -0.000003   0.000003  -0.000007  -0.000111  -0.004508
     3  N   -0.001415  -0.000118   0.000008  -0.000357   0.002817   0.000302
     4  C   -0.044446   0.013911  -0.003952   0.015178  -0.080081  -0.000187
     5  C    0.434335  -0.057676   0.011295  -0.003855   0.011973  -0.000017
     6  C   -0.048860   0.446225  -0.056222   0.010704  -0.003853   0.000008
     7  C    0.010164  -0.058285   0.443851  -0.057017   0.010298  -0.000003
     8  C   -0.004414   0.010530  -0.056023   0.438845  -0.031252   0.000007
     9  C    0.011248  -0.003477   0.012171  -0.054043   0.439448  -0.000128
    10  C    0.001820  -0.000017   0.000003   0.000009   0.000797  -0.045177
    11  C   -0.000179   0.000001  -0.000001  -0.000000   0.000290   0.432038
    12  C    0.000008  -0.000000   0.000000  -0.000002   0.000340  -0.048555
    13  C    0.000016  -0.000000  -0.000001  -0.000009  -0.000005   0.008555
    14  C    0.000000  -0.000000   0.000000  -0.000000   0.000002   0.000010
    15  C   -0.000162   0.000008  -0.000001   0.000026  -0.000304  -0.002675
    16  C   -0.000430  -0.000009  -0.000016   0.000019  -0.000122   0.008577
    17  O    0.008877  -0.000036   0.000001  -0.000000  -0.000016   0.000530
    18  H   -0.000062   0.000013  -0.000002  -0.000040   0.003598   0.000352
    19  H    0.475382  -0.006471  -0.000016   0.000015   0.000011  -0.000005
    20  H   -0.006471   0.534771  -0.006843  -0.000126   0.000029   0.000000
    21  H   -0.000016  -0.006843   0.538792  -0.006647  -0.000100  -0.000000
    22  H    0.000015  -0.000126  -0.006647   0.541808  -0.007503   0.000000
    23  H    0.000011   0.000029  -0.000100  -0.007503   0.538871  -0.000070
    24  H   -0.000005   0.000000  -0.000000   0.000000  -0.000070   0.477153
    25  H   -0.000000   0.000000   0.000000   0.000000  -0.000003  -0.005596
    26  H   -0.000000   0.000000  -0.000000  -0.000000   0.000000   0.000004
    27  H   -0.000000  -0.000000   0.000000   0.000000   0.000001  -0.000001
    28  H   -0.000000  -0.000000  -0.000000   0.000000  -0.000000  -0.000019
    29  H   -0.000007   0.000001  -0.000000   0.000000  -0.000003   0.000030
    30  H   -0.000075  -0.000019  -0.000004   0.000003  -0.000045  -0.000067
              25         26         27         28         29         30
     1  O   -0.000027  -0.000000  -0.000000   0.000000   0.000003   0.000384
     2  S   -0.000113  -0.000001   0.000001  -0.000001  -0.000089  -0.004309
     3  N    0.000014   0.000000  -0.000001   0.000000   0.000024   0.000451
     4  C   -0.000007  -0.000002   0.000005   0.000000   0.000051  -0.000212
     5  C   -0.000002  -0.000000   0.000001  -0.000000  -0.000104   0.000370
     6  C    0.000000   0.000000  -0.000000   0.000000   0.000054   0.000252
     7  C   -0.000000   0.000000  -0.000000  -0.000000  -0.000002   0.000156
     8  C    0.000003   0.000001  -0.000005   0.000000   0.000075   0.000086
     9  C    0.000001   0.000000   0.000012  -0.000000  -0.000072  -0.001412
    10  C    0.011401  -0.000039   0.000491  -0.000063   0.010712  -0.045591
    11  C   -0.049347  -0.000463  -0.001232   0.002187  -0.003699   0.008346
    12  C    0.443408   0.006874  -0.004334  -0.005889   0.012832  -0.002567
    13  C   -0.061834  -0.053897  -0.018130  -0.054538  -0.062844   0.008992
    14  C   -0.006834   0.428517   0.389359   0.427453  -0.006901  -0.000017
    15  C    0.013008  -0.006398  -0.003788   0.007223   0.443838  -0.049110
    16  C   -0.003965   0.001975  -0.001181  -0.000492  -0.047973   0.435083
    17  O    0.000004   0.000000   0.000000  -0.000000  -0.000010   0.008460
    18  H   -0.000009  -0.000000  -0.000000  -0.000000  -0.000000  -0.000097
    19  H   -0.000000  -0.000000  -0.000000  -0.000000  -0.000007  -0.000075
    20  H    0.000000   0.000000  -0.000000  -0.000000   0.000001  -0.000019
    21  H    0.000000  -0.000000   0.000000  -0.000000  -0.000000  -0.000004
    22  H    0.000000  -0.000000   0.000000   0.000000   0.000000   0.000003
    23  H   -0.000003   0.000000   0.000001  -0.000000  -0.000003  -0.000045
    24  H   -0.005596   0.000004  -0.000001  -0.000019   0.000030  -0.000067
    25  H    0.533330   0.000042   0.000318   0.001079  -0.000048   0.000025
    26  H    0.000042   0.538671  -0.024164  -0.022985   0.000838  -0.000020
    27  H    0.000318  -0.024164   0.549726  -0.024218   0.000287  -0.000002
    28  H    0.001079  -0.022985  -0.024218   0.539835   0.000080   0.000005
    29  H   -0.000048   0.000838   0.000287   0.000080   0.533527  -0.005634
    30  H    0.000025  -0.000020  -0.000002   0.000005  -0.005634   0.481213
 Mulliken charges:
               1
     1  O   -0.474607
     2  S    0.857441
     3  N   -0.316642
     4  C    0.202451
     5  C   -0.273337
     6  C   -0.071553
     7  C   -0.138438
     8  C   -0.095842
     9  C   -0.219122
    10  C   -0.001874
    11  C   -0.172962
    12  C   -0.188886
    13  C    0.164060
    14  C   -0.362520
    15  C   -0.196512
    16  C   -0.135752
    17  O   -0.461256
    18  H    0.248480
    19  H    0.167755
    20  H    0.127590
    21  H    0.123702
    22  H    0.122999
    23  H    0.115169
    24  H    0.165869
    25  H    0.125153
    26  H    0.131048
    27  H    0.136857
    28  H    0.130341
    29  H    0.125035
    30  H    0.165355
 Sum of Mulliken charges =  -0.00000
 Mulliken charges with hydrogens summed into heavy atoms:
               1
     1  O   -0.474607
     2  S    0.857441
     3  N   -0.068162
     4  C    0.202451
     5  C   -0.105582
     6  C    0.056037
     7  C   -0.014736
     8  C    0.027156
     9  C   -0.103953
    10  C   -0.001874
    11  C   -0.007093
    12  C   -0.063733
    13  C    0.164060
    14  C    0.035726
    15  C   -0.071477
    16  C    0.029603
    17  O   -0.461256
 Electronic spatial extent (au):  <R**2>=           4363.3951
 Charge=              0.0000 electrons
 Dipole moment (field-independent basis, Debye):
    X=              1.7804    Y=             -5.4283    Z=             -1.8021  Tot=              5.9903
 Quadrupole moment (field-independent basis, Debye-Ang):
   XX=            -97.2639   YY=           -113.9192   ZZ=           -100.9882
   XY=             -0.3748   XZ=             -2.8603   YZ=             -4.4132
 Traceless Quadrupole moment (field-independent basis, Debye-Ang):
   XX=              6.7932   YY=             -9.8621   ZZ=              3.0689
   XY=             -0.3748   XZ=             -2.8603   YZ=             -4.4132
 Octapole moment (field-independent basis, Debye-Ang**2):
  XXX=             40.3271  YYY=            -42.5082  ZZZ=            -10.6574  XYY=             -2.8185
  XXY=            -16.2324  XXZ=              5.8827  XZZ=             -3.5665  YZZ=             -1.1494
  YYZ=             -1.4719  XYZ=              0.6343
 Hexadecapole moment (field-independent basis, Debye-Ang**3):
 XXXX=          -3335.7786 YYYY=          -1987.9319 ZZZZ=           -579.7949 XXXY=            -50.7954
 XXXZ=           -123.2716 YYYX=             16.8813 YYYZ=             22.6583 ZZZX=             -9.0842
 ZZZY=            -27.1389 XXYY=           -818.5166 XXZZ=           -642.7785 YYZZ=           -409.8582
 XXYZ=            -34.3115 YYXZ=             12.9659 ZZXY=              0.8455
 N-N= 1.331863994968D+03 E-N=-5.259091917427D+03  KE= 1.102023483930D+03
 Breneman (CHELPG) radii used.
 Read replacement radii for each type of atom:
 Atom Element Radius
    1     8    1.70
    2    16    2.00
    3     7    1.70
    4     6    1.50
    5     6    1.50
    6     6    1.50
    7     6    1.50
    8     6    1.50
    9     6    1.50
   10     6    1.50
   11     6    1.50
   12     6    1.50
   13     6    1.50
   14     6    1.50
   15     6    1.50
   16     6    1.50
   17     8    1.70
   18     1    1.45
   19     1    1.45
   20     1    1.45
   21     1    1.45
   22     1    1.45
   23     1    1.45
   24     1    1.45
   25     1    1.45
   26     1    1.45
   27     1    1.45
   28     1    1.45
   29     1    1.45
   30     1    1.45
 Generate Potential Derived Charges using the Breneman model, NDens= 1.
 Grid spacing= 0.300 Box extension= 2.800
 NStep X,Y,Z=   50     42     34   Total possible points=       71400
 Number of Points to Fit=   18750

 **********************************************************************

            Electrostatic Properties Using The SCF Density.

 **********************************************************************

       Atomic Center    1 is at   0.243710  3.115796 -0.612829
       Atomic Center    2 is at  -0.211414  1.959179  0.134653
       Atomic Center    3 is at  -1.388994  1.265657 -0.843520
       Atomic Center    4 is at  -1.947986  0.002087 -0.532050
       Atomic Center    5 is at  -2.674625 -0.171690  0.651234
       Atomic Center    6 is at  -3.207066 -1.421812  0.954763
       Atomic Center    7 is at  -3.046953 -2.495333  0.078315
       Atomic Center    8 is at  -2.336535 -2.315383 -1.107255
       Atomic Center    9 is at  -1.775810 -1.076064 -1.406595
       Atomic Center   10 is at   1.099062  0.756017  0.174610
       Atomic Center   11 is at   2.133930  0.846274 -0.754317
       Atomic Center   12 is at   3.124403 -0.130705 -0.759969
       Atomic Center   13 is at   3.092738 -1.199879  0.144996
       Atomic Center   14 is at   4.148869 -2.271867  0.108000
       Atomic Center   15 is at   2.044304 -1.258971  1.071881
       Atomic Center   16 is at   1.048160 -0.288096  1.096855
       Atomic Center   17 is at  -0.760510  2.062397  1.472298
       Atomic Center   18 is at  -1.148230  1.409576 -1.820335
       Atomic Center   19 is at  -2.805847  0.677225  1.322194
       Atomic Center   20 is at  -3.769052 -1.552674  1.882042
       Atomic Center   21 is at  -3.478461 -3.469305  0.317475
       Atomic Center   22 is at  -2.204399 -3.148430 -1.800940
       Atomic Center   23 is at  -1.195451 -0.940959 -2.322865
       Atomic Center   24 is at   2.165413  1.687675 -1.449098
       Atomic Center   25 is at   3.944929 -0.057043 -1.478142
       Atomic Center   26 is at   4.312083 -2.710211  1.102496
       Atomic Center   27 is at   3.845717 -3.088453 -0.567174
       Atomic Center   28 is at   5.108042 -1.879769 -0.258194
       Atomic Center   29 is at   2.009515 -2.077908  1.794547
       Atomic Center   30 is at   0.240779 -0.329186  1.829621
   18750 points will be used for fitting atomic charges
 Fitting point charges to electrostatic potential
 Charges from ESP fit, RMS=   0.00371 RRMS=   0.22681:
 ESP charges:
               1
     1  O   -0.479732
     2  S    0.904029
     3  N   -0.622525
     4  C    0.381077
     5  C   -0.202506
     6  C   -0.049345
     7  C   -0.157158
     8  C   -0.048263
     9  C   -0.255860
    10  C   -0.053117
    11  C   -0.064791
    12  C   -0.219717
    13  C    0.253494
    14  C   -0.276466
    15  C   -0.240967
    16  C   -0.034595
    17  O   -0.461304
    18  H    0.350277
    19  H    0.153342
    20  H    0.093730
    21  H    0.106898
    22  H    0.101704
    23  H    0.108145
    24  H    0.111065
    25  H    0.127009
    26  H    0.086796
    27  H    0.076700
    28  H    0.083701
    29  H    0.130471
    30  H    0.097910
 Sum of ESP charges =   0.00000
 ESP charges with hydrogens summed into heavy atoms:
               1
     1  O   -0.479732
     2  S    0.904029
     3  N   -0.272248
     4  C    0.381077
     5  C   -0.049164
     6  C    0.044385
     7  C   -0.050260
     8  C    0.053441
     9  C   -0.147715
    10  C   -0.053117
    11  C    0.046274
    12  C   -0.092708
    13  C    0.253494
    14  C   -0.029269
    15  C   -0.110497
    16  C    0.063315
    17  O   -0.461304
 Charge=   0.00000 Dipole=     1.6764    -5.2850    -1.7558 Tot=     5.8159
 -----------------------------------------------------------------

              Electrostatic Properties (Atomic Units)

 -----------------------------------------------------------------
    Center     Electric         -------- Electric Field --------
               Potential          X             Y             Z
 -----------------------------------------------------------------
    1 Atom    -22.373170
    2 Atom    -59.026683
    3 Atom    -18.345475
    4 Atom    -14.712523
    5 Atom    -14.763139
    6 Atom    -14.758934
    7 Atom    -14.761235
    8 Atom    -14.756629
    9 Atom    -14.755732
   10 Atom    -14.731973
   11 Atom    -14.744836
   12 Atom    -14.752109
   13 Atom    -14.736813
   14 Atom    -14.755001
   15 Atom    -14.752965
   16 Atom    -14.745691
   17 Atom    -22.373282
   18 Atom     -1.001875
   19 Atom     -1.101868
   20 Atom     -1.099674
   21 Atom     -1.099230
   22 Atom     -1.095983
   23 Atom     -1.087664
   24 Atom     -1.086128
   25 Atom     -1.090235
   26 Atom     -1.100451
   27 Atom     -1.097348
   28 Atom     -1.100391
   29 Atom     -1.091460
   30 Atom     -1.088673
 -----------------------------------------------------------------
 Unable to Open any file for archive entry.
 1\1\GINC-NOTCH375\SP\RwB97XD\def2TZVP\C13H13N1O2S1\U1366379\17-Feb-202
 6\0\\#N Guess=Read Geom=Check Integral(Ultrafine) Density Pop=(ChelpG,
 ReadRadii) NMR wB97XD def2TZVP\\prod_5l_7\\0,1\O,0,-0.4643075861,3.222
 4681199,0.8185490386\S,0,-0.0008250191,2.1489026531,-0.0395141227\N,0,
 1.3092997794,1.4918610541,0.7828974213\C,0,1.9243753872,0.2946083158,0
 .3420327449\C,0,2.5472688759,0.2451955636,-0.9101354068\C,0,3.13577317
 51,-0.9411516156,-1.3398701549\C,0,3.134723182,-2.0724879062,-0.523585
 1701\C,0,2.5277178205,-2.0158268132,0.7298051969\C,0,1.9114951174,-0.8
 421467938,1.1572055855\C,0,-1.2210909783,0.8537227682,-0.0396866363\C,
 0,-2.1680465229,0.811181823,0.9818165195\C,0,-3.0822042748,-0.23710352
 82,1.0129642897\C,0,-3.0601949241,-1.2468026493,0.041820709\C,0,-4.029
 9125516,-2.396471011,0.1038683559\C,0,-2.1017742868,-1.1723242013,-0.9
 768575382\C,0,-1.1833660804,-0.1285685642,-1.0281101651\O,0,0.41172940
 15,2.3705936647,-1.4114127147\H,0,1.151664228,1.56046674,1.7845416504\
 H,0,2.5547496846,1.1389051937,-1.5340661711\H,0,3.6161354985,-0.975147
 2216,-2.3201234494\H,0,3.6095434504,-2.9953472834,-0.8625454953\H,0,2.
 5203419366,-2.8951216271,1.3774260637\H,0,1.4115547293,-0.8046924084,2
 .1284308879\H,0,-2.1935176696,1.60628117,1.7293692324\H,0,-3.834896500
 5,-0.2676848662,1.8047867423\H,0,-4.2543449751,-2.787907919,-0.8982365
 25\H,0,-3.6079074071,-3.225154287,0.6952804676\H,0,-4.9757764542,-2.10
 03424375,0.5787378093\H,0,-2.0772207413,-1.9432022971,-1.7509746038\H,
 0,-0.4473962943,-0.0657236361,-1.8311645613\\Version=ES64L-G16RevC.01\
 State=1-A\HF=-1106.6304416\RMSD=3.956e-09\Dipole=-0.4784174,-2.2201078
 ,0.6297081\Quadrupole=4.4858879,-7.5440564,3.0581685,1.5849527,-2.4738
 02,2.4035818\PG=C01 [X(C13H13N1O2S1)]\\@
 The archive entry for this job was punched.


 THERE IS AN OLD, OLD RECIPE IN MAINE FOR STEWING COOT. PLACE THE
 BIRD IN A KETTLE OF WATER WITH A RED BUILDING BRICK FREE OF MORTAR AND
 BLEMISHES. PARBOIL THE COOT AND BRICK TOGETHER FOR THREE HOURS.
 POUR OFF THE WATER, REFILL THE KETTLE, AND AGAIN PARBOIL FOR THREE HOURS.
 ONCE AGAIN POUR OFF THE WATER, FOR THE LAST TIME ADD FRESH WATER,
 AND LET THE COOT AND BRICK SIMMER TOGETHER OVERNIGHT. IN THE MORNING,
 THROW AWAY THE COOT AND EAT THE BRICK.
 Job cpu time:       0 days  1 hours 39 minutes 51.0 seconds.
 Elapsed time:       0 days  0 hours 12 minutes 51.9 seconds.
 File lengths (MBytes):  RWF=    226 Int=      0 D2E=      0 Chk=     34 Scr=      2
 Normal termination of Gaussian 16 at Tue Feb 17 17:12:57 2026.
