 Entering Gaussian System, Link 0=g16
 Input=prod_5f_1.com
 Output=prod_5f_1.log
 Initial command:
 /uufs/chpc.utah.edu/sys/installdir/gaussian16/C01/AVX/g16/l1.exe "/scratch/general/vast/u1366379/GAUSSSCRDIR/11028651-notchpeak.peaks/Gau-2805311.inp" -scrdir="/scratch/general/vast/u1366379/GAUSSSCRDIR/11028651-notchpeak.peaks/"
 Entering Link 1 = /uufs/chpc.utah.edu/sys/installdir/gaussian16/C01/AVX/g16/l1.exe PID=   2805315.
  
 Copyright (c) 1988-2019, Gaussian, Inc.  All Rights Reserved.
  
 This is part of the Gaussian(R) 16 program.  It is based on
 the Gaussian(R) 09 system (copyright 2009, Gaussian, Inc.),
 the Gaussian(R) 03 system (copyright 2003, Gaussian, Inc.),
 the Gaussian(R) 98 system (copyright 1998, Gaussian, Inc.),
 the Gaussian(R) 94 system (copyright 1995, Gaussian, Inc.),
 the Gaussian 92(TM) system (copyright 1992, Gaussian, Inc.),
 the Gaussian 90(TM) system (copyright 1990, Gaussian, Inc.),
 the Gaussian 88(TM) system (copyright 1988, Gaussian, Inc.),
 the Gaussian 86(TM) system (copyright 1986, Carnegie Mellon
 University), and the Gaussian 82(TM) system (copyright 1983,
 Carnegie Mellon University). Gaussian is a federally registered
 trademark of Gaussian, Inc.
  
 This software contains proprietary and confidential information,
 including trade secrets, belonging to Gaussian, Inc.
  
 This software is provided under written license and may be
 used, copied, transmitted, or stored only in accord with that
 written license.
  
 The following legend is applicable only to US Government
 contracts under FAR:
  
                    RESTRICTED RIGHTS LEGEND
  
 Use, reproduction and disclosure by the US Government is
 subject to restrictions as set forth in subparagraphs (a)
 and (c) of the Commercial Computer Software - Restricted
 Rights clause in FAR 52.227-19.
  
 Gaussian, Inc.
 340 Quinnipiac St., Bldg. 40, Wallingford CT 06492
  
  
 ---------------------------------------------------------------
 Warning -- This program may not be used in any manner that
 competes with the business of Gaussian, Inc. or will provide
 assistance to any competitor of Gaussian, Inc.  The licensee
 of this program is prohibited from giving any competitor of
 Gaussian, Inc. access to this program.  By using this program,
 the user acknowledges that Gaussian, Inc. is engaged in the
 business of creating and licensing software in the field of
 computational chemistry and represents and warrants to the
 licensee that it is not a competitor of Gaussian, Inc. and that
 it will not use this program in any manner prohibited above.
 ---------------------------------------------------------------
  

 Cite this work as:
 Gaussian 16, Revision C.01,
 M. J. Frisch, G. W. Trucks, H. B. Schlegel, G. E. Scuseria, 
 M. A. Robb, J. R. Cheeseman, G. Scalmani, V. Barone, 
 G. A. Petersson, H. Nakatsuji, X. Li, M. Caricato, A. V. Marenich, 
 J. Bloino, B. G. Janesko, R. Gomperts, B. Mennucci, H. P. Hratchian, 
 J. V. Ortiz, A. F. Izmaylov, J. L. Sonnenberg, D. Williams-Young, 
 F. Ding, F. Lipparini, F. Egidi, J. Goings, B. Peng, A. Petrone, 
 T. Henderson, D. Ranasinghe, V. G. Zakrzewski, J. Gao, N. Rega, 
 G. Zheng, W. Liang, M. Hada, M. Ehara, K. Toyota, R. Fukuda, 
 J. Hasegawa, M. Ishida, T. Nakajima, Y. Honda, O. Kitao, H. Nakai, 
 T. Vreven, K. Throssell, J. A. Montgomery, Jr., J. E. Peralta, 
 F. Ogliaro, M. J. Bearpark, J. J. Heyd, E. N. Brothers, K. N. Kudin, 
 V. N. Staroverov, T. A. Keith, R. Kobayashi, J. Normand, 
 K. Raghavachari, A. P. Rendell, J. C. Burant, S. S. Iyengar, 
 J. Tomasi, M. Cossi, J. M. Millam, M. Klene, C. Adamo, R. Cammi, 
 J. W. Ochterski, R. L. Martin, K. Morokuma, O. Farkas, 
 J. B. Foresman, and D. J. Fox, Gaussian, Inc., Wallingford CT, 2019.
 
 ******************************************
 Gaussian 16:  ES64L-G16RevC.01  3-Jul-2019
                17-Feb-2026 
 ******************************************
 %NProcShared=8
 Will use up to    8 processors via shared memory.
 %Mem=8GB
 %chk=prod_5f_1.chk
 ------------------------------------------------------
 #N OPT FREQ=NORAMAN Integral(Ultrafine) wB97XD def2SVP
 ------------------------------------------------------
 1/18=20,19=15,26=4,38=1/1,3;
 2/9=110,12=2,17=6,18=5,40=1/2;
 3/5=43,7=101,11=2,25=1,30=1,71=1,74=-58,75=-5/1,2,3;
 4//1;
 5/5=2,38=5/2;
 6/7=2,8=2,9=2,10=2,28=1/1;
 7//1,2,3,16;
 1/18=20,19=15,26=4/3(2);
 2/9=110/2;
 99//99;
 2/9=110/2;
 3/5=43,7=101,11=2,25=1,30=1,71=1,74=-58,75=-5/1,2,3;
 4/5=5,16=3,69=1/1;
 5/5=2,38=5/2;
 7//1,2,3,16;
 1/18=20,19=15,26=4/3(-5);
 2/9=110/2;
 6/7=2,8=2,9=2,10=2,19=2,28=1/1;
 99/9=1/99;
 ---------
 prod_5f_1
 ---------
 Symbolic Z-matrix:
 Charge =  0 Multiplicity = 1
 Cl                   -2.87012  -2.12986   0.34871 
 C                    -2.35114  -0.50145   0.09157 
 C                    -1.0075   -0.19632   0.16325 
 C                    -0.55456   1.10449  -0.03716 
 N                     0.83603   1.40009   0.05881 
 C                     1.25987   2.78642   0.24919 
 C                     1.83912   0.37956  -0.02252 
 C                     1.77497  -0.60072  -1.01252 
 C                     2.73477  -1.58363  -1.09379 
 C                     3.77924  -1.60797  -0.19042 
 C                     3.85983  -0.64384   0.7955 
 C                     2.90179   0.34113   0.88006 
 C                    -1.50236   2.09556  -0.3044 
 C                    -2.8458    1.78987  -0.37761 
 C                    -3.27533   0.49374  -0.18187 
 H                    -0.30955  -0.97972   0.39311 
 H                     0.76214   3.21481   1.11711 
 H                     1.01593   3.37653  -0.63187 
 H                     2.33545   2.8439    0.40157 
 H                     0.96702  -0.56843  -1.72255 
 H                     2.67184  -2.33458  -1.86427 
 H                     4.52984  -2.37862  -0.25421 
 H                     4.67258  -0.6655    1.50299 
 H                     2.9497    1.07719   1.66326 
 H                    -1.17802   3.10833  -0.46218 
 H                    -3.5631    2.56595  -0.58862 
 H                    -4.32017   0.23968  -0.23549 
 

 GradGradGradGradGradGradGradGradGradGradGradGradGradGradGradGradGradGrad
 Berny optimization.
 Initialization pass.
                           ----------------------------
                           !    Initial Parameters    !
                           ! (Angstroms and Degrees)  !
 --------------------------                            --------------------------
 ! Name  Definition              Value          Derivative Info.                !
 --------------------------------------------------------------------------------
 ! R1    R(1,2)                  1.7283         estimate D2E/DX2                !
 ! R2    R(2,3)                  1.3797         estimate D2E/DX2                !
 ! R3    R(2,15)                 1.3854         estimate D2E/DX2                !
 ! R4    R(3,4)                  1.3919         estimate D2E/DX2                !
 ! R5    R(3,16)                 1.0741         estimate D2E/DX2                !
 ! R6    R(4,5)                  1.4249         estimate D2E/DX2                !
 ! R7    R(4,13)                 1.3971         estimate D2E/DX2                !
 ! R8    R(5,6)                  1.4621         estimate D2E/DX2                !
 ! R9    R(5,7)                  1.4333         estimate D2E/DX2                !
 ! R10   R(6,17)                 1.0884         estimate D2E/DX2                !
 ! R11   R(6,18)                 1.0881         estimate D2E/DX2                !
 ! R12   R(6,19)                 1.0878         estimate D2E/DX2                !
 ! R13   R(7,8)                  1.3947         estimate D2E/DX2                !
 ! R14   R(7,12)                 1.3948         estimate D2E/DX2                !
 ! R15   R(8,9)                  1.3762         estimate D2E/DX2                !
 ! R16   R(8,20)                 1.0761         estimate D2E/DX2                !
 ! R17   R(9,10)                 1.3812         estimate D2E/DX2                !
 ! R18   R(9,21)                 1.0777         estimate D2E/DX2                !
 ! R19   R(10,11)                1.3813         estimate D2E/DX2                !
 ! R20   R(10,22)                1.0777         estimate D2E/DX2                !
 ! R21   R(11,12)                1.3766         estimate D2E/DX2                !
 ! R22   R(11,23)                1.0778         estimate D2E/DX2                !
 ! R23   R(12,24)                1.0759         estimate D2E/DX2                !
 ! R24   R(13,14)                1.3797         estimate D2E/DX2                !
 ! R25   R(13,25)                1.0751         estimate D2E/DX2                !
 ! R26   R(14,15)                1.3794         estimate D2E/DX2                !
 ! R27   R(14,26)                1.0777         estimate D2E/DX2                !
 ! R28   R(15,27)                1.0766         estimate D2E/DX2                !
 ! A1    A(1,2,3)              119.542          estimate D2E/DX2                !
 ! A2    A(1,2,15)             120.3887         estimate D2E/DX2                !
 ! A3    A(3,2,15)             120.0691         estimate D2E/DX2                !
 ! A4    A(2,3,4)              121.0709         estimate D2E/DX2                !
 ! A5    A(2,3,16)             118.8573         estimate D2E/DX2                !
 ! A6    A(4,3,16)             120.0649         estimate D2E/DX2                !
 ! A7    A(3,4,5)              120.1159         estimate D2E/DX2                !
 ! A8    A(3,4,13)             118.0161         estimate D2E/DX2                !
 ! A9    A(5,4,13)             121.8557         estimate D2E/DX2                !
 ! A10   A(4,5,6)              119.2336         estimate D2E/DX2                !
 ! A11   A(4,5,7)              122.105          estimate D2E/DX2                !
 ! A12   A(6,5,7)              118.6613         estimate D2E/DX2                !
 ! A13   A(5,6,17)             110.1496         estimate D2E/DX2                !
 ! A14   A(5,6,18)             110.1081         estimate D2E/DX2                !
 ! A15   A(5,6,19)             110.7905         estimate D2E/DX2                !
 ! A16   A(17,6,18)            109.2517         estimate D2E/DX2                !
 ! A17   A(17,6,19)            108.6426         estimate D2E/DX2                !
 ! A18   A(18,6,19)            107.8438         estimate D2E/DX2                !
 ! A19   A(5,7,8)              120.567          estimate D2E/DX2                !
 ! A20   A(5,7,12)             121.072          estimate D2E/DX2                !
 ! A21   A(8,7,12)             118.3608         estimate D2E/DX2                !
 ! A22   A(7,8,9)              120.7864         estimate D2E/DX2                !
 ! A23   A(7,8,20)             118.8037         estimate D2E/DX2                !
 ! A24   A(9,8,20)             120.405          estimate D2E/DX2                !
 ! A25   A(8,9,10)             120.0911         estimate D2E/DX2                !
 ! A26   A(8,9,21)             119.9437         estimate D2E/DX2                !
 ! A27   A(10,9,21)            119.9651         estimate D2E/DX2                !
 ! A28   A(9,10,11)            119.9113         estimate D2E/DX2                !
 ! A29   A(9,10,22)            120.0399         estimate D2E/DX2                !
 ! A30   A(11,10,22)           120.0488         estimate D2E/DX2                !
 ! A31   A(10,11,12)           120.174          estimate D2E/DX2                !
 ! A32   A(10,11,23)           119.901          estimate D2E/DX2                !
 ! A33   A(12,11,23)           119.9245         estimate D2E/DX2                !
 ! A34   A(7,12,11)            120.6761         estimate D2E/DX2                !
 ! A35   A(7,12,24)            119.0886         estimate D2E/DX2                !
 ! A36   A(11,12,24)           120.2139         estimate D2E/DX2                !
 ! A37   A(4,13,14)            120.8997         estimate D2E/DX2                !
 ! A38   A(4,13,25)            119.4497         estimate D2E/DX2                !
 ! A39   A(14,13,25)           119.6491         estimate D2E/DX2                !
 ! A40   A(13,14,15)           120.2552         estimate D2E/DX2                !
 ! A41   A(13,14,26)           119.9299         estimate D2E/DX2                !
 ! A42   A(15,14,26)           119.8149         estimate D2E/DX2                !
 ! A43   A(2,15,14)            119.687          estimate D2E/DX2                !
 ! A44   A(2,15,27)            119.1909         estimate D2E/DX2                !
 ! A45   A(14,15,27)           121.1219         estimate D2E/DX2                !
 ! D1    D(1,2,3,4)           -179.9384         estimate D2E/DX2                !
 ! D2    D(1,2,3,16)            -0.8952         estimate D2E/DX2                !
 ! D3    D(15,2,3,4)            -0.0828         estimate D2E/DX2                !
 ! D4    D(15,2,3,16)          178.9604         estimate D2E/DX2                !
 ! D5    D(1,2,15,14)          179.6542         estimate D2E/DX2                !
 ! D6    D(1,2,15,27)           -0.2054         estimate D2E/DX2                !
 ! D7    D(3,2,15,14)           -0.2002         estimate D2E/DX2                !
 ! D8    D(3,2,15,27)          179.9402         estimate D2E/DX2                !
 ! D9    D(2,3,4,5)            179.1812         estimate D2E/DX2                !
 ! D10   D(2,3,4,13)             0.4301         estimate D2E/DX2                !
 ! D11   D(16,3,4,5)             0.1495         estimate D2E/DX2                !
 ! D12   D(16,3,4,13)         -178.6016         estimate D2E/DX2                !
 ! D13   D(3,4,5,6)           -161.6953         estimate D2E/DX2                !
 ! D14   D(3,4,5,7)             18.1734         estimate D2E/DX2                !
 ! D15   D(13,4,5,6)            17.0066         estimate D2E/DX2                !
 ! D16   D(13,4,5,7)          -163.1247         estimate D2E/DX2                !
 ! D17   D(3,4,13,14)           -0.5077         estimate D2E/DX2                !
 ! D18   D(3,4,13,25)          179.9544         estimate D2E/DX2                !
 ! D19   D(5,4,13,14)         -179.2357         estimate D2E/DX2                !
 ! D20   D(5,4,13,25)            1.2263         estimate D2E/DX2                !
 ! D21   D(4,5,6,17)            54.2035         estimate D2E/DX2                !
 ! D22   D(4,5,6,18)           -66.3504         estimate D2E/DX2                !
 ! D23   D(4,5,6,19)           174.4376         estimate D2E/DX2                !
 ! D24   D(7,5,6,17)          -125.6698         estimate D2E/DX2                !
 ! D25   D(7,5,6,18)           113.7764         estimate D2E/DX2                !
 ! D26   D(7,5,6,19)            -5.4357         estimate D2E/DX2                !
 ! D27   D(4,5,7,8)             45.7668         estimate D2E/DX2                !
 ! D28   D(4,5,7,12)          -134.3433         estimate D2E/DX2                !
 ! D29   D(6,5,7,8)           -134.3637         estimate D2E/DX2                !
 ! D30   D(6,5,7,12)            45.5262         estimate D2E/DX2                !
 ! D31   D(5,7,8,9)           -179.9213         estimate D2E/DX2                !
 ! D32   D(5,7,8,20)             0.8833         estimate D2E/DX2                !
 ! D33   D(12,7,8,9)             0.1858         estimate D2E/DX2                !
 ! D34   D(12,7,8,20)         -179.0095         estimate D2E/DX2                !
 ! D35   D(5,7,12,11)          179.9155         estimate D2E/DX2                !
 ! D36   D(5,7,12,24)            1.5975         estimate D2E/DX2                !
 ! D37   D(8,7,12,11)           -0.1922         estimate D2E/DX2                !
 ! D38   D(8,7,12,24)         -178.5103         estimate D2E/DX2                !
 ! D39   D(7,8,9,10)            -0.0864         estimate D2E/DX2                !
 ! D40   D(7,8,9,21)           179.9931         estimate D2E/DX2                !
 ! D41   D(20,8,9,10)          179.0961         estimate D2E/DX2                !
 ! D42   D(20,8,9,21)           -0.8245         estimate D2E/DX2                !
 ! D43   D(8,9,10,11)           -0.011          estimate D2E/DX2                !
 ! D44   D(8,9,10,22)          179.9385         estimate D2E/DX2                !
 ! D45   D(21,9,10,11)         179.9095         estimate D2E/DX2                !
 ! D46   D(21,9,10,22)          -0.141          estimate D2E/DX2                !
 ! D47   D(9,10,11,12)           0.0044         estimate D2E/DX2                !
 ! D48   D(9,10,11,23)         179.7337         estimate D2E/DX2                !
 ! D49   D(22,10,11,12)       -179.9451         estimate D2E/DX2                !
 ! D50   D(22,10,11,23)         -0.2157         estimate D2E/DX2                !
 ! D51   D(10,11,12,7)           0.0996         estimate D2E/DX2                !
 ! D52   D(10,11,12,24)        178.3987         estimate D2E/DX2                !
 ! D53   D(23,11,12,7)        -179.6297         estimate D2E/DX2                !
 ! D54   D(23,11,12,24)         -1.3306         estimate D2E/DX2                !
 ! D55   D(4,13,14,15)           0.2379         estimate D2E/DX2                !
 ! D56   D(4,13,14,26)        -179.7528         estimate D2E/DX2                !
 ! D57   D(25,13,14,15)        179.7749         estimate D2E/DX2                !
 ! D58   D(25,13,14,26)         -0.2158         estimate D2E/DX2                !
 ! D59   D(13,14,15,2)           0.1228         estimate D2E/DX2                !
 ! D60   D(13,14,15,27)        179.9796         estimate D2E/DX2                !
 ! D61   D(26,14,15,2)        -179.8865         estimate D2E/DX2                !
 ! D62   D(26,14,15,27)         -0.0296         estimate D2E/DX2                !
 --------------------------------------------------------------------------------
 Trust Radius=3.00D-01 FncErr=1.00D-07 GrdErr=1.00D-06 EigMax=2.50D+02 EigMin=1.00D-04
 Number of steps in this run=    145 maximum allowed number of steps=    162.
 GradGradGradGradGradGradGradGradGradGradGradGradGradGradGradGradGradGrad

                          Input orientation:                          
 ---------------------------------------------------------------------
 Center     Atomic      Atomic             Coordinates (Angstroms)
 Number     Number       Type             X           Y           Z
 ---------------------------------------------------------------------
      1         17           0       -2.870120   -2.129860    0.348710
      2          6           0       -2.351140   -0.501450    0.091570
      3          6           0       -1.007500   -0.196320    0.163250
      4          6           0       -0.554560    1.104490   -0.037160
      5          7           0        0.836030    1.400090    0.058810
      6          6           0        1.259870    2.786420    0.249190
      7          6           0        1.839120    0.379560   -0.022520
      8          6           0        1.774970   -0.600720   -1.012520
      9          6           0        2.734770   -1.583630   -1.093790
     10          6           0        3.779240   -1.607970   -0.190420
     11          6           0        3.859830   -0.643840    0.795500
     12          6           0        2.901790    0.341130    0.880060
     13          6           0       -1.502360    2.095560   -0.304400
     14          6           0       -2.845800    1.789870   -0.377610
     15          6           0       -3.275330    0.493740   -0.181870
     16          1           0       -0.309550   -0.979720    0.393110
     17          1           0        0.762140    3.214810    1.117110
     18          1           0        1.015930    3.376530   -0.631870
     19          1           0        2.335450    2.843900    0.401570
     20          1           0        0.967020   -0.568430   -1.722550
     21          1           0        2.671840   -2.334580   -1.864270
     22          1           0        4.529840   -2.378620   -0.254210
     23          1           0        4.672580   -0.665500    1.502990
     24          1           0        2.949700    1.077190    1.663260
     25          1           0       -1.178020    3.108330   -0.462180
     26          1           0       -3.563100    2.565950   -0.588620
     27          1           0       -4.320170    0.239680   -0.235490
 ---------------------------------------------------------------------
                    Distance matrix (angstroms):
                    1          2          3          4          5
     1  Cl   0.000000
     2  C    1.728346   0.000000
     3  C    2.691157   1.379714   0.000000
     4  C    3.996465   2.413154   1.391914   0.000000
     5  N    5.126416   3.711466   2.440909   1.424897   0.000000
     6  C    6.421568   4.886136   3.747678   2.490591   1.462120
     7  C    5.349013   4.283395   2.910222   2.501088   1.433278
     8  C    5.076227   4.272429   3.047641   3.047258   2.456135
     9  C    5.813258   5.333167   4.184419   4.377459   3.719716
    10  C    6.691563   6.235821   5.003071   5.114954   4.215807
    11  C    6.906526   6.252355   4.928581   4.820458   3.723403
    12  C    6.301037   5.378190   4.010638   3.656551   2.462359
    13  C    4.489042   2.760739   2.390878   1.397126   2.466509
    14  C    3.986529   2.390599   2.759860   2.415664   3.728037
    15  C    2.707210   1.385388   2.395484   2.792230   4.216951
    16  H    2.807367   2.118433   1.074097   2.142217   2.662256
    17  H    6.507630   4.955283   3.959455   2.742169   2.102063
    18  H    6.810525   5.186449   4.182313   2.825294   2.101361
    19  H    7.199933   5.766419   4.524936   3.401498   2.109581
    20  H    4.631611   3.782288   2.755619   2.820356   2.658096
    21  H    5.970972   5.693505   4.713866   5.057192   4.584342
    22  H    7.428647   7.140813   5.966476   6.166870   5.293474
    23  H    7.769751   7.166007   5.854771   5.729565   4.590363
    24  H    6.773737   5.749889   4.419422   3.895127   2.673224
    25  H    5.564115   3.835800   3.367633   2.141196   2.691823
    26  H    4.838330   3.367558   3.837517   3.389880   4.596818
    27  H    2.838777   2.129160   3.364948   3.868727   5.293351
                    6          7          8          9         10
     6  C    0.000000
     7  C    2.490448   0.000000
     8  C    3.651021   1.394691   0.000000
     9  C    4.803776   2.409133   1.376202   0.000000
    10  C    5.084402   2.782540   2.389037   1.381154   0.000000
    11  C    4.338771   2.408272   2.759970   2.391314   1.381333
    12  C    3.012199   1.394774   2.395551   2.762007   2.390572
    13  C    2.900632   3.766909   4.302587   5.666820   6.451699
    14  C    4.271126   4.905460   5.241140   6.560196   7.447920
    15  C    5.100023   5.118206   5.233866   6.424046   7.360993
    16  H    4.082598   2.576271   2.542570   3.441433   4.177728
    17  H    1.088365   3.239951   4.485467   5.639537   5.837100
    18  H    1.088119   3.167140   4.066885   5.269817   5.716293
    19  H    1.087840   2.549346   3.765527   4.690264   4.717428
    20  H    3.902376   2.132919   1.076089   2.133286   3.366994
    21  H    5.717081   3.384084   2.129818   1.077741   2.134495
    22  H    6.133820   3.860209   3.365304   2.135224   1.077669
    23  H    5.013418   3.383464   3.837725   3.367690   2.133997
    24  H    2.788653   2.135867   3.369743   3.837640   3.366653
    25  H    2.559879   4.091775   4.772848   6.141933   6.847756
    26  H    4.900160   5.855318   6.221132   7.558927   8.455184
    27  H    6.152857   6.164558   6.201676   7.337119   8.307604
                   11         12         13         14         15
    11  C    0.000000
    12  C    1.376647   0.000000
    13  C    6.121044   4.886462   0.000000
    14  C    7.229426   6.059321   1.379724   0.000000
    15  C    7.291080   6.269593   2.392543   1.379407   0.000000
    16  H    4.202197   3.506347   3.371448   3.833693   3.361181
    17  H    4.958659   3.590589   2.898512   4.157147   5.039120
    18  H    5.127234   3.880213   2.844276   4.182714   5.189209
    19  H    3.826649   2.610278   3.973310   5.344479   6.111015
    20  H    3.835963   3.368117   3.899465   4.680602   4.636748
    21  H    3.368130   3.839746   6.283572   7.047382   6.796962
    22  H    2.135478   3.366624   7.510542   8.472992   8.317233
    23  H    1.077763   2.130034   7.001428   8.129670   8.206818
    24  H    2.131499   1.075863   4.972887   6.185538   6.518889
    25  H    6.406284   5.109193   1.075079   2.127670   3.363534
    26  H    8.204781   6.992971   2.132767   1.077657   2.131270
    27  H    8.291921   7.308314   3.374773   2.144074   1.076621
                   16         17         18         19         20
    16  H    0.000000
    17  H    4.389394   0.000000
    18  H    4.667376   1.774681   0.000000
    19  H    4.649319   1.767732   1.758643   0.000000
    20  H    2.504957   4.734823   4.093249   4.245996   0.000000
    21  H    3.977448   6.582652   6.072695   5.662495   2.458817
    22  H    5.078941   6.882045   6.753661   5.702641   4.257522
    23  H    5.113921   5.522432   5.853779   4.357888   4.913726
    24  H    4.057939   3.106947   3.780748   2.256198   4.254738
    25  H    4.265901   2.503940   2.216787   3.627735   4.439402
    26  H    4.911329   4.694490   4.650422   5.987539   5.624244
    27  H    4.238767   6.042417   6.202492   7.175311   5.551465
                   21         22         23         24         25
    21  H    0.000000
    22  H    2.458942   0.000000
    23  H    4.257608   2.458232   0.000000
    24  H    4.915369   4.256308   2.455803   0.000000
    25  H    6.812676   7.920198   7.234169   5.067652   0.000000
    26  H    8.032245   9.489799   9.090849   7.050102   2.449239
    27  H    7.626791   9.229221   9.203870   7.560270   4.260710
                   26         27
    26  H    0.000000
    27  H    2.471718   0.000000
 Stoichiometry    C13H12ClN
 Framework group  C1[X(C13H12ClN)]
 Deg. of freedom    75
 Full point group                 C1      NOp   1
 Largest Abelian subgroup         C1      NOp   1
 Largest concise Abelian subgroup C1      NOp   1
                         Standard orientation:                         
 ---------------------------------------------------------------------
 Center     Atomic      Atomic             Coordinates (Angstroms)
 Number     Number       Type             X           Y           Z
 ---------------------------------------------------------------------
      1         17           0        2.860936   -2.270184   -0.408069
      2          6           0        2.395426   -0.630234   -0.123386
      3          6           0        1.061587   -0.282025   -0.180268
      4          6           0        0.651344    1.029283    0.042441
      5          7           0       -0.729897    1.369799   -0.038504
      6          6           0       -1.111197    2.771410   -0.205519
      7          6           0       -1.764041    0.380197    0.035786
      8          6           0       -1.723638   -0.616072    1.010968
      9          6           0       -2.713330   -1.569436    1.085409
     10          6           0       -3.764579   -1.547662    0.189870
     11          6           0       -3.821892   -0.567077   -0.781339
     12          6           0       -2.833919    0.388450   -0.859026
     13          6           0        1.631829    1.986051    0.316674
     14          6           0        2.965462    1.637267    0.375079
     15          6           0        3.352489    0.331303    0.157289
     16          1           0        0.337639   -1.039647   -0.416049
     17          1           0       -0.606524    3.196674   -1.070963
     18          1           0       -0.842386    3.340541    0.682081
     19          1           0       -2.185508    2.864884   -0.348744
     20          1           0       -0.909939   -0.619627    1.715134
     21          1           0       -2.668511   -2.333245    1.844429
     22          1           0       -4.538615   -2.295208    0.248291
     23          1           0       -4.640036   -0.552785   -1.482774
     24          1           0       -2.864287    1.137093   -1.631096
     25          1           0        1.340729    3.006079    0.491596
     26          1           0        3.708382    2.387243    0.591758
     27          1           0        4.389162    0.043786    0.199159
 ---------------------------------------------------------------------
 Rotational constants (GHZ):           0.8529974           0.3514008           0.2664328
 Standard basis: def2SVP (5D, 7F)
 There are   289 symmetry adapted cartesian basis functions of A   symmetry.
 There are   274 symmetry adapted basis functions of A   symmetry.
   274 basis functions,   471 primitive gaussians,   289 cartesian basis functions
    57 alpha electrons       57 beta electrons
       nuclear repulsion energy      1008.0302379960 Hartrees.
 NAtoms=   27 NActive=   27 NUniq=   27 SFac= 1.00D+00 NAtFMM=   60 NAOKFM=F Big=F
 Integral buffers will be    131072 words long.
 Raffenetti 2 integral format.
 Two-electron integral symmetry is turned on.
 Nuclear repulsion after empirical dispersion term =     1008.0121946405 Hartrees.
 One-electron integrals computed using PRISM.
   1 Symmetry operations used in ECPInt.
 ECPInt:  NShTT=    8256 NPrTT=   30622 LenC2=    7801 LenP2D=   21031.
 LDataN:  DoStor=T MaxTD1= 4 Len=   56
 NBasis=   274 RedAO= T EigKep=  2.28D-04  NBF=   274
 NBsUse=   274 1.00D-06 EigRej= -1.00D+00 NBFU=   274
 ExpMin= 1.22D-01 ExpMax= 1.04D+04 ExpMxC= 1.57D+03 IAcc=3 IRadAn=         5 AccDes= 0.00D+00
 Harris functional with IExCor= 4639 and IRadAn=       5 diagonalized for initial guess.
 HarFok:  IExCor= 4639 AccDes= 0.00D+00 IRadAn=         5 IDoV= 1 UseB2=F ITyADJ=14
 ICtDFT=  3500011 ScaDFX=  1.000000  1.000000  1.000000  1.000000
 FoFCou: FMM=F IPFlag=           0 FMFlag=      100000 FMFlg1=           0
         NFxFlg=           0 DoJE=T BraDBF=F KetDBF=T FulRan=T
         wScrn=  0.000000 ICntrl=       500 IOpCl=  0 I1Cent=   200000004 NGrid=           0
         NMat0=    1 NMatS0=      1 NMatT0=    0 NMatD0=    1 NMtDS0=    0 NMtDT0=    0
 Petite list used in FoFCou.
 Requested convergence on RMS density matrix=1.00D-08 within 128 cycles.
 Requested convergence on MAX density matrix=1.00D-06.
 Requested convergence on             energy=1.00D-06.
 No special actions if energy rises.
 Integral accuracy reduced to 1.0D-05 until final iterations.
 Initial convergence to 1.0D-05 achieved.  Increase integral accuracy.
 SCF Done:  E(RwB97XD) =  -1016.82363268     A.U. after   16 cycles
            NFock= 16  Conv=0.49D-08     -V/T= 2.0067

 **********************************************************************

            Population analysis using the SCF Density.

 **********************************************************************

 Orbital symmetries:
       Occupied  (A) (A) (A) (A) (A) (A) (A) (A) (A) (A) (A) (A)
                 (A) (A) (A) (A) (A) (A) (A) (A) (A) (A) (A) (A)
                 (A) (A) (A) (A) (A) (A) (A) (A) (A) (A) (A) (A)
                 (A) (A) (A) (A) (A) (A) (A) (A) (A) (A) (A) (A)
                 (A) (A) (A) (A) (A) (A) (A) (A) (A)
       Virtual   (A) (A) (A) (A) (A) (A) (A) (A) (A) (A) (A) (A)
                 (A) (A) (A) (A) (A) (A) (A) (A) (A) (A) (A) (A)
                 (A) (A) (A) (A) (A) (A) (A) (A) (A) (A) (A) (A)
                 (A) (A) (A) (A) (A) (A) (A) (A) (A) (A) (A) (A)
                 (A) (A) (A) (A) (A) (A) (A) (A) (A) (A) (A) (A)
                 (A) (A) (A) (A) (A) (A) (A) (A) (A) (A) (A) (A)
                 (A) (A) (A) (A) (A) (A) (A) (A) (A) (A) (A) (A)
                 (A) (A) (A) (A) (A) (A) (A) (A) (A) (A) (A) (A)
                 (A) (A) (A) (A) (A) (A) (A) (A) (A) (A) (A) (A)
                 (A) (A) (A) (A) (A) (A) (A) (A) (A) (A) (A) (A)
                 (A) (A) (A) (A) (A) (A) (A) (A) (A) (A) (A) (A)
                 (A) (A) (A) (A) (A) (A) (A) (A) (A) (A) (A) (A)
                 (A) (A) (A) (A) (A) (A) (A) (A) (A) (A) (A) (A)
                 (A) (A) (A) (A) (A) (A) (A) (A) (A) (A) (A) (A)
                 (A) (A) (A) (A) (A) (A) (A) (A) (A) (A) (A) (A)
                 (A) (A) (A) (A) (A) (A) (A) (A) (A) (A) (A) (A)
                 (A) (A) (A) (A) (A) (A) (A) (A) (A) (A) (A) (A)
                 (A) (A) (A) (A) (A) (A) (A) (A) (A) (A) (A) (A)
                 (A)
 The electronic state is 1-A.
 Alpha  occ. eigenvalues -- -101.67167 -14.47336 -10.35311 -10.35138 -10.34539
 Alpha  occ. eigenvalues --  -10.33575 -10.30671 -10.30347 -10.30242 -10.30191
 Alpha  occ. eigenvalues --  -10.29957 -10.29897 -10.29880 -10.29765 -10.29718
 Alpha  occ. eigenvalues --   -9.57987  -7.33368  -7.32398  -7.32369  -1.04978
 Alpha  occ. eigenvalues --   -0.98678  -0.95659  -0.92779  -0.85726  -0.85111
 Alpha  occ. eigenvalues --   -0.84428  -0.82080  -0.77992  -0.72175  -0.70586
 Alpha  occ. eigenvalues --   -0.69149  -0.66736  -0.63469  -0.61089  -0.57840
 Alpha  occ. eigenvalues --   -0.57071  -0.56205  -0.54098  -0.53816  -0.52817
 Alpha  occ. eigenvalues --   -0.52294  -0.51640  -0.51256  -0.48783  -0.48527
 Alpha  occ. eigenvalues --   -0.46821  -0.45792  -0.44929  -0.43571  -0.43303
 Alpha  occ. eigenvalues --   -0.42374  -0.38797  -0.38436  -0.34280  -0.33926
 Alpha  occ. eigenvalues --   -0.32113  -0.26963
 Alpha virt. eigenvalues --    0.04715   0.05211   0.06508   0.08264   0.12557
 Alpha virt. eigenvalues --    0.13853   0.15531   0.17605   0.18274   0.19981
 Alpha virt. eigenvalues --    0.20163   0.20393   0.21586   0.22090   0.22386
 Alpha virt. eigenvalues --    0.23055   0.23719   0.24290   0.25428   0.25856
 Alpha virt. eigenvalues --    0.30909   0.33844   0.35134   0.35635   0.36668
 Alpha virt. eigenvalues --    0.37396   0.39215   0.39586   0.40636   0.41309
 Alpha virt. eigenvalues --    0.42746   0.43999   0.46822   0.47241   0.48417
 Alpha virt. eigenvalues --    0.49368   0.50203   0.51198   0.52492   0.53538
 Alpha virt. eigenvalues --    0.54979   0.55410   0.56077   0.57050   0.57566
 Alpha virt. eigenvalues --    0.57937   0.58322   0.59786   0.59985   0.62352
 Alpha virt. eigenvalues --    0.63286   0.64534   0.64869   0.66324   0.66741
 Alpha virt. eigenvalues --    0.68249   0.68792   0.70104   0.71268   0.72321
 Alpha virt. eigenvalues --    0.72427   0.73621   0.73942   0.74342   0.74707
 Alpha virt. eigenvalues --    0.75727   0.75842   0.77035   0.77610   0.78172
 Alpha virt. eigenvalues --    0.78663   0.79426   0.80842   0.81608   0.82407
 Alpha virt. eigenvalues --    0.83118   0.83278   0.84932   0.86279   0.86962
 Alpha virt. eigenvalues --    0.87707   0.88456   0.89618   0.91464   0.91947
 Alpha virt. eigenvalues --    0.92371   0.92581   0.94251   0.95643   0.98051
 Alpha virt. eigenvalues --    1.00707   1.02536   1.03750   1.04261   1.06617
 Alpha virt. eigenvalues --    1.08820   1.12846   1.16345   1.17564   1.18015
 Alpha virt. eigenvalues --    1.20071   1.25748   1.27390   1.28796   1.31134
 Alpha virt. eigenvalues --    1.31944   1.32588   1.34204   1.35071   1.35733
 Alpha virt. eigenvalues --    1.36306   1.36926   1.37913   1.38660   1.40750
 Alpha virt. eigenvalues --    1.42068   1.43129   1.45967   1.49726   1.56864
 Alpha virt. eigenvalues --    1.58796   1.59109   1.62966   1.64403   1.67876
 Alpha virt. eigenvalues --    1.70762   1.75993   1.77229   1.78434   1.78804
 Alpha virt. eigenvalues --    1.79925   1.80658   1.81958   1.82628   1.83321
 Alpha virt. eigenvalues --    1.84159   1.85508   1.85714   1.86607   1.87575
 Alpha virt. eigenvalues --    1.88944   1.89398   1.90505   1.91486   1.92172
 Alpha virt. eigenvalues --    1.93041   1.93715   1.95847   1.98142   1.98416
 Alpha virt. eigenvalues --    2.00706   2.01829   2.03732   2.04599   2.06029
 Alpha virt. eigenvalues --    2.08050   2.10092   2.10432   2.12846   2.15300
 Alpha virt. eigenvalues --    2.15685   2.19156   2.20888   2.23312   2.24128
 Alpha virt. eigenvalues --    2.25612   2.26579   2.27614   2.29137   2.29250
 Alpha virt. eigenvalues --    2.32447   2.34150   2.36621   2.37851   2.39101
 Alpha virt. eigenvalues --    2.40024   2.40473   2.41849   2.42720   2.43591
 Alpha virt. eigenvalues --    2.45385   2.46434   2.51992   2.54458   2.57093
 Alpha virt. eigenvalues --    2.62511   2.64990   2.69067   2.69894   2.70578
 Alpha virt. eigenvalues --    2.72977   2.74070   2.74742   2.76270   2.78065
 Alpha virt. eigenvalues --    2.84138   2.84324   2.84815   2.87166   2.89904
 Alpha virt. eigenvalues --    2.95468   2.96336   2.98093   2.99715   3.00392
 Alpha virt. eigenvalues --    3.03522   3.04465   3.08856   3.13442   3.16682
 Alpha virt. eigenvalues --    3.22387   3.24737   3.28947   3.38203   3.46229
 Alpha virt. eigenvalues --    3.72192   3.79069
          Condensed to atoms (all electrons):
               1          2          3          4          5          6
     1  Cl  16.967658   0.243040  -0.067969   0.003476  -0.000019   0.000001
     2  C    0.243040   5.241666   0.235622   0.160522   0.010647  -0.000253
     3  C   -0.067969   0.235622   5.238694   0.242205  -0.092886   0.006681
     4  C    0.003476   0.160522   0.242205   5.050412   0.350623  -0.051936
     5  N   -0.000019   0.010647  -0.092886   0.350623   6.808890   0.337410
     6  C    0.000001  -0.000253   0.006681  -0.051936   0.337410   4.435222
     7  C   -0.000028  -0.000544  -0.002938  -0.047716   0.302602  -0.050113
     8  C   -0.000048  -0.000124  -0.004395  -0.009036  -0.075021   0.003980
     9  C    0.000006   0.000055  -0.001965   0.000360   0.008967  -0.000105
    10  C   -0.000000  -0.000003   0.000028   0.000016  -0.000395   0.000015
    11  C    0.000000   0.000004   0.000043  -0.000139   0.008463   0.000341
    12  C    0.000001  -0.000069   0.000775   0.004339  -0.075751  -0.007229
    13  C    0.000440  -0.187955   0.089561   0.230942  -0.091063   0.004192
    14  C    0.004152   0.139426  -0.162905   0.140448   0.008593   0.000432
    15  C   -0.056493   0.252876   0.102607  -0.172339  -0.001086   0.000104
    16  H    0.004246  -0.072768   0.447960  -0.056027  -0.015616  -0.000023
    17  H    0.000000  -0.000064   0.000236  -0.005743  -0.029846   0.403223
    18  H   -0.000000   0.000069  -0.000621  -0.011842  -0.030465   0.400302
    19  H   -0.000000   0.000007  -0.000128   0.005906  -0.017261   0.400519
    20  H    0.000081  -0.000093   0.000976   0.003645  -0.010991  -0.000154
    21  H   -0.000000   0.000002   0.000044  -0.000021  -0.000134   0.000005
    22  H   -0.000000  -0.000000  -0.000001   0.000001   0.000008   0.000000
    23  H   -0.000000  -0.000000  -0.000002   0.000007  -0.000143  -0.000014
    24  H   -0.000000   0.000003  -0.000018  -0.000353  -0.010470   0.001789
    25  H    0.000009  -0.002482   0.017420  -0.076749  -0.016017   0.010868
    26  H   -0.000123   0.015091  -0.002191   0.014870  -0.000094  -0.000032
    27  H    0.000862  -0.072216   0.016507  -0.001712   0.000010  -0.000000
               7          8          9         10         11         12
     1  Cl  -0.000028  -0.000048   0.000006  -0.000000   0.000000   0.000001
     2  C   -0.000544  -0.000124   0.000055  -0.000003   0.000004  -0.000069
     3  C   -0.002938  -0.004395  -0.001965   0.000028   0.000043   0.000775
     4  C   -0.047716  -0.009036   0.000360   0.000016  -0.000139   0.004339
     5  N    0.302602  -0.075021   0.008967  -0.000395   0.008463  -0.075751
     6  C   -0.050113   0.003980  -0.000105   0.000015   0.000341  -0.007229
     7  C    5.138169   0.268259   0.119585  -0.166617   0.114611   0.277926
     8  C    0.268259   5.167684   0.266553   0.089573  -0.149670   0.061048
     9  C    0.119585   0.266553   5.064689   0.273249   0.099699  -0.148795
    10  C   -0.166617   0.089573   0.273249   5.102080   0.281824   0.086822
    11  C    0.114611  -0.149670   0.099699   0.281824   5.048374   0.276958
    12  C    0.277926   0.061048  -0.148795   0.086822   0.276958   5.151950
    13  C    0.007049   0.000147  -0.000035   0.000001   0.000002  -0.000371
    14  C   -0.000125  -0.000006   0.000002  -0.000000  -0.000000   0.000002
    15  C    0.000041  -0.000027  -0.000003   0.000000   0.000000  -0.000001
    16  H    0.006747   0.001353  -0.000026  -0.000042   0.000109  -0.001144
    17  H    0.001898  -0.000567   0.000030  -0.000000  -0.000062   0.001270
    18  H    0.004438   0.000832  -0.000062  -0.000002   0.000031   0.000042
    19  H   -0.007939   0.000019  -0.000007  -0.000075   0.000509   0.003604
    20  H   -0.071280   0.461656  -0.068382   0.014835  -0.002531   0.016120
    21  H    0.015377  -0.066695   0.453537  -0.071977   0.014295  -0.002183
    22  H   -0.001696   0.014763  -0.069245   0.453378  -0.069559   0.014616
    23  H    0.015190  -0.002017   0.014028  -0.070280   0.450311  -0.065192
    24  H   -0.071498   0.016396  -0.002609   0.014943  -0.066477   0.453105
    25  H   -0.000159  -0.000018  -0.000001   0.000000   0.000000   0.000016
    26  H    0.000006  -0.000000  -0.000000  -0.000000   0.000000  -0.000000
    27  H    0.000001   0.000001  -0.000000  -0.000000  -0.000000  -0.000000
              13         14         15         16         17         18
     1  Cl   0.000440   0.004152  -0.056493   0.004246   0.000000  -0.000000
     2  C   -0.187955   0.139426   0.252876  -0.072768  -0.000064   0.000069
     3  C    0.089561  -0.162905   0.102607   0.447960   0.000236  -0.000621
     4  C    0.230942   0.140448  -0.172339  -0.056027  -0.005743  -0.011842
     5  N   -0.091063   0.008593  -0.001086  -0.015616  -0.029846  -0.030465
     6  C    0.004192   0.000432   0.000104  -0.000023   0.403223   0.400302
     7  C    0.007049  -0.000125   0.000041   0.006747   0.001898   0.004438
     8  C    0.000147  -0.000006  -0.000027   0.001353  -0.000567   0.000832
     9  C   -0.000035   0.000002  -0.000003  -0.000026   0.000030  -0.000062
    10  C    0.000001  -0.000000   0.000000  -0.000042  -0.000000  -0.000002
    11  C    0.000002  -0.000000   0.000000   0.000109  -0.000062   0.000031
    12  C   -0.000371   0.000002  -0.000001  -0.001144   0.001270   0.000042
    13  C    5.258841   0.233845   0.109281   0.016195   0.004883   0.003149
    14  C    0.233845   5.074041   0.244717  -0.002768   0.000712   0.000946
    15  C    0.109281   0.244717   5.117308   0.015976  -0.000079  -0.000070
    16  H    0.016195  -0.002768   0.015976   0.645321   0.000038  -0.000037
    17  H    0.004883   0.000712  -0.000079   0.000038   0.641637  -0.038787
    18  H    0.003149   0.000946  -0.000070  -0.000037  -0.038787   0.649028
    19  H    0.000498  -0.000048   0.000004  -0.000013  -0.019695  -0.019737
    20  H   -0.000712   0.000046  -0.000053  -0.003071   0.000004   0.000002
    21  H   -0.000000   0.000000  -0.000000   0.000042  -0.000000   0.000001
    22  H    0.000000  -0.000000   0.000000   0.000000   0.000000  -0.000000
    23  H   -0.000000   0.000000   0.000000  -0.000004   0.000002  -0.000002
    24  H   -0.000026   0.000000   0.000000  -0.000052  -0.000723   0.000279
    25  H    0.459986  -0.071796   0.015904  -0.000152  -0.001117  -0.001658
    26  H   -0.069727   0.454744  -0.068564   0.000021   0.000001   0.000023
    27  H    0.014580  -0.063241   0.448079  -0.000312  -0.000000   0.000000
              19         20         21         22         23         24
     1  Cl  -0.000000   0.000081  -0.000000  -0.000000  -0.000000  -0.000000
     2  C    0.000007  -0.000093   0.000002  -0.000000  -0.000000   0.000003
     3  C   -0.000128   0.000976   0.000044  -0.000001  -0.000002  -0.000018
     4  C    0.005906   0.003645  -0.000021   0.000001   0.000007  -0.000353
     5  N   -0.017261  -0.010991  -0.000134   0.000008  -0.000143  -0.010470
     6  C    0.400519  -0.000154   0.000005   0.000000  -0.000014   0.001789
     7  C   -0.007939  -0.071280   0.015377  -0.001696   0.015190  -0.071498
     8  C    0.000019   0.461656  -0.066695   0.014763  -0.002017   0.016396
     9  C   -0.000007  -0.068382   0.453537  -0.069245   0.014028  -0.002609
    10  C   -0.000075   0.014835  -0.071977   0.453378  -0.070280   0.014943
    11  C    0.000509  -0.002531   0.014295  -0.069559   0.450311  -0.066477
    12  C    0.003604   0.016120  -0.002183   0.014616  -0.065192   0.453105
    13  C    0.000498  -0.000712  -0.000000   0.000000  -0.000000  -0.000026
    14  C   -0.000048   0.000046   0.000000  -0.000000   0.000000   0.000000
    15  C    0.000004  -0.000053  -0.000000   0.000000   0.000000   0.000000
    16  H   -0.000013  -0.003071   0.000042   0.000000  -0.000004  -0.000052
    17  H   -0.019695   0.000004  -0.000000   0.000000   0.000002  -0.000723
    18  H   -0.019737   0.000002   0.000001  -0.000000  -0.000002   0.000279
    19  H    0.599165  -0.000031   0.000001  -0.000001   0.000044   0.000686
    20  H   -0.000031   0.655394  -0.012534  -0.000221   0.000021  -0.000194
    21  H    0.000001  -0.012534   0.667112  -0.012216  -0.000261   0.000025
    22  H   -0.000001  -0.000221  -0.012216   0.670618  -0.012245  -0.000226
    23  H    0.000044   0.000021  -0.000261  -0.012245   0.670217  -0.013011
    24  H    0.000686  -0.000194   0.000025  -0.000226  -0.013011   0.677277
    25  H    0.000005  -0.000008  -0.000000   0.000000  -0.000000  -0.000004
    26  H   -0.000001  -0.000002   0.000000   0.000000  -0.000000  -0.000000
    27  H   -0.000000  -0.000001   0.000000   0.000000   0.000000   0.000000
              25         26         27
     1  Cl   0.000009  -0.000123   0.000862
     2  C   -0.002482   0.015091  -0.072216
     3  C    0.017420  -0.002191   0.016507
     4  C   -0.076749   0.014870  -0.001712
     5  N   -0.016017  -0.000094   0.000010
     6  C    0.010868  -0.000032  -0.000000
     7  C   -0.000159   0.000006   0.000001
     8  C   -0.000018  -0.000000   0.000001
     9  C   -0.000001  -0.000000  -0.000000
    10  C    0.000000  -0.000000  -0.000000
    11  C    0.000000   0.000000  -0.000000
    12  C    0.000016  -0.000000  -0.000000
    13  C    0.459986  -0.069727   0.014580
    14  C   -0.071796   0.454744  -0.063241
    15  C    0.015904  -0.068564   0.448079
    16  H   -0.000152   0.000021  -0.000312
    17  H   -0.001117   0.000001  -0.000000
    18  H   -0.001658   0.000023   0.000000
    19  H    0.000005  -0.000001  -0.000000
    20  H   -0.000008  -0.000002  -0.000001
    21  H   -0.000000   0.000000   0.000000
    22  H    0.000000   0.000000   0.000000
    23  H   -0.000000  -0.000000   0.000000
    24  H   -0.000004  -0.000000   0.000000
    25  H    0.690501  -0.013319  -0.000231
    26  H   -0.013319   0.664437  -0.012479
    27  H   -0.000231  -0.012479   0.666682
 Mulliken charges:
               1
     1  Cl  -0.099291
     2  C    0.037542
     3  C   -0.063340
     4  C    0.225844
     5  N   -0.368956
     6  C    0.104774
     7  C    0.148753
     8  C   -0.044638
     9  C   -0.009526
    10  C   -0.007373
    11  C   -0.007137
    12  C   -0.047858
    13  C   -0.083703
    14  C   -0.001217
    15  C   -0.008183
    16  H    0.014047
    17  H    0.042748
    18  H    0.044141
    19  H    0.053970
    20  H    0.017476
    21  H    0.015584
    22  H    0.012025
    23  H    0.013349
    24  H    0.001157
    25  H   -0.010998
    26  H    0.017338
    27  H    0.003472
 Sum of Mulliken charges =  -0.00000
 Mulliken charges with hydrogens summed into heavy atoms:
               1
     1  Cl  -0.099291
     2  C    0.037542
     3  C   -0.049293
     4  C    0.225844
     5  N   -0.368956
     6  C    0.245633
     7  C    0.148753
     8  C   -0.027162
     9  C    0.006057
    10  C    0.004652
    11  C    0.006212
    12  C   -0.046701
    13  C   -0.094701
    14  C    0.016122
    15  C   -0.004711
 Electronic spatial extent (au):  <R**2>=           3991.0344
 Charge=             -0.0000 electrons
 Dipole moment (field-independent basis, Debye):
    X=             -1.5907    Y=              2.1347    Z=              0.1649  Tot=              2.6672
 Quadrupole moment (field-independent basis, Debye-Ang):
   XX=            -89.8180   YY=            -87.7316   ZZ=            -95.3949
   XY=              4.4475   XZ=              3.7949   YZ=             -2.2655
 Traceless Quadrupole moment (field-independent basis, Debye-Ang):
   XX=              1.1635   YY=              3.2499   ZZ=             -4.4134
   XY=              4.4475   XZ=              3.7949   YZ=             -2.2655
 Octapole moment (field-independent basis, Debye-Ang**2):
  XXX=              8.3926  YYY=             12.4901  ZZZ=             -3.0180  XYY=             -7.2442
  XXY=              1.6939  XXZ=             -9.3309  XZZ=             -4.6135  YZZ=             -5.3171
  YYZ=              4.5772  XYZ=              8.9841
 Hexadecapole moment (field-independent basis, Debye-Ang**3):
 XXXX=          -3489.0132 YYYY=          -1378.2700 ZZZZ=           -292.9700 XXXY=             67.7989
 XXXZ=             83.0266 YYYX=            -21.1665 YYYZ=              0.2686 ZZZX=             -0.7866
 ZZZY=             -8.5470 XXYY=           -807.3518 XXZZ=           -668.3290 YYZZ=           -286.3401
 XXYZ=             -6.2002 YYXZ=             -3.9977 ZZXY=            -14.2265
 N-N= 1.008012194641D+03 E-N=-4.398459819365D+03  KE= 1.010067868505D+03
   1 Symmetry operations used in ECPInt.
 ECPInt:  NShTT=    8256 NPrTT=   30622 LenC2=    7801 LenP2D=   21031.
 LDataN:  DoStor=T MaxTD1= 5 Len=  102
 Calling FoFJK, ICntrl=      2127 FMM=F ISym2X=0 I1Cent= 0 IOpClX= 0 NMat=1 NMatS=1 NMatT=0.
 ***** Axes restored to original set *****
 -------------------------------------------------------------------
 Center     Atomic                   Forces (Hartrees/Bohr)
 Number     Number              X              Y              Z
 -------------------------------------------------------------------
      1       17          -0.002274540   -0.005702273    0.001004073
      2        6           0.002848234    0.006729394   -0.001729225
      3        6           0.000902623   -0.007711447    0.003181920
      4        6           0.028561651    0.006113713    0.000142386
      5        7          -0.003062627   -0.006107728    0.000490003
      6        6          -0.008395030   -0.017430752   -0.002587722
      7        6          -0.015368768    0.011136569    0.000975348
      8        6          -0.003487813    0.007770035   -0.000405858
      9        6           0.000892708   -0.002547650    0.000327520
     10        6           0.004919086   -0.004387617    0.000416066
     11        6           0.003766034   -0.001930003   -0.001581407
     12        6          -0.009361654    0.005659503   -0.000371336
     13        6           0.009218733    0.004744189    0.000431884
     14        6           0.002935591   -0.003874399    0.001784484
     15        6          -0.010841967   -0.005982903   -0.000129993
     16        1           0.006811608   -0.008340954    0.002876467
     17        1          -0.003653585    0.006025542    0.006755495
     18        1          -0.001187649    0.008073105   -0.007009275
     19        1           0.004940848   -0.001972824   -0.000011123
     20        1          -0.008196141   -0.000288455   -0.007825148
     21        1          -0.000992515   -0.006743524   -0.007833310
     22        1           0.007265338   -0.007458641   -0.000523687
     23        1           0.007514459    0.000244640    0.007176356
     24        1           0.001240506    0.007622615    0.008987370
     25        1           0.001935280    0.010731759   -0.001750022
     26        1          -0.006507529    0.007300763   -0.001989387
     27        1          -0.010422878   -0.001672656   -0.000801880
 -------------------------------------------------------------------
 Cartesian Forces:  Max     0.028561651 RMS     0.006712999

 GradGradGradGradGradGradGradGradGradGradGradGradGradGradGradGradGradGrad
 Berny optimization.
 FormGI is forming the generalized inverse of G from B-inverse, IUseBI=4.
 Internal  Forces:  Max     0.023290003 RMS     0.005698896
 Search for a local minimum.
 Step number   1 out of a maximum of  145
 All quantities printed in internal units (Hartrees-Bohrs-Radians)
 Mixed Optimization -- RFO/linear search
 Second derivative matrix not updated -- first step.
 ITU=  0
     Eigenvalues ---    0.00870   0.01127   0.01252   0.01362   0.01884
     Eigenvalues ---    0.01918   0.02182   0.02186   0.02242   0.02268
     Eigenvalues ---    0.02272   0.02289   0.02304   0.02313   0.02331
     Eigenvalues ---    0.02337   0.02337   0.02341   0.02355   0.02359
     Eigenvalues ---    0.02369   0.02375   0.07399   0.07448   0.15993
     Eigenvalues ---    0.15998   0.15999   0.16000   0.16000   0.16000
     Eigenvalues ---    0.16000   0.16000   0.16000   0.16000   0.16000
     Eigenvalues ---    0.16000   0.22000   0.22000   0.22000   0.23462
     Eigenvalues ---    0.23468   0.23490   0.24993   0.25000   0.25000
     Eigenvalues ---    0.25000   0.25000   0.32684   0.35002   0.35031
     Eigenvalues ---    0.35063   0.36266   0.36269   0.36277   0.36279
     Eigenvalues ---    0.36406   0.36471   0.36499   0.36596   0.36700
     Eigenvalues ---    0.36717   0.40522   0.41731   0.43032   0.43068
     Eigenvalues ---    0.43751   0.43784   0.47038   0.47351   0.47845
     Eigenvalues ---    0.47931   0.48923   0.49094   0.49154   0.49763
 RFO step:  Lambda=-1.17260252D-02 EMin= 8.70047969D-03
 Linear search not attempted -- first point.
 Iteration  1 RMS(Cart)=  0.07245212 RMS(Int)=  0.00107364
 Iteration  2 RMS(Cart)=  0.00222452 RMS(Int)=  0.00011409
 Iteration  3 RMS(Cart)=  0.00000327 RMS(Int)=  0.00011408
 Iteration  4 RMS(Cart)=  0.00000000 RMS(Int)=  0.00011408
 Variable       Old X    -DE/DX   Delta X   Delta X   Delta X     New X
                                 (Linear)    (Quad)   (Total)
    R1        3.26610   0.00621   0.00000   0.01833   0.01833   3.28443
    R2        2.60728   0.01090   0.00000   0.02185   0.02186   2.62915
    R3        2.61800   0.00974   0.00000   0.01990   0.01992   2.63792
    R4        2.63034   0.01427   0.00000   0.02968   0.02967   2.66001
    R5        2.02975   0.01113   0.00000   0.02936   0.02936   2.05911
    R6        2.69266  -0.02329   0.00000  -0.05428  -0.05428   2.63838
    R7        2.64019   0.00788   0.00000   0.01650   0.01648   2.65666
    R8        2.76301  -0.00781   0.00000  -0.02061  -0.02061   2.74240
    R9        2.70850  -0.01470   0.00000  -0.03525  -0.03525   2.67325
   R10        2.05671   0.00943   0.00000   0.02606   0.02606   2.08277
   R11        2.05625   0.01032   0.00000   0.02852   0.02852   2.08476
   R12        2.05572   0.00478   0.00000   0.01318   0.01318   2.06890
   R13        2.63558   0.00821   0.00000   0.01664   0.01664   2.65222
   R14        2.63574   0.00695   0.00000   0.01397   0.01397   2.64971
   R15        2.60065   0.01593   0.00000   0.03127   0.03127   2.63192
   R16        2.03351   0.01131   0.00000   0.03003   0.03003   2.06355
   R17        2.61000   0.01386   0.00000   0.02828   0.02827   2.63828
   R18        2.03664   0.01035   0.00000   0.02765   0.02765   2.06429
   R19        2.61034   0.01257   0.00000   0.02568   0.02568   2.63602
   R20        2.03650   0.01042   0.00000   0.02784   0.02784   2.06434
   R21        2.60149   0.01679   0.00000   0.03296   0.03296   2.63444
   R22        2.03668   0.01038   0.00000   0.02771   0.02771   2.06439
   R23        2.03309   0.01182   0.00000   0.03137   0.03137   2.06446
   R24        2.60730   0.01354   0.00000   0.02670   0.02669   2.63399
   R25        2.03160   0.01095   0.00000   0.02899   0.02899   2.06060
   R26        2.60670   0.01171   0.00000   0.02320   0.02321   2.62991
   R27        2.03648   0.00998   0.00000   0.02664   0.02664   2.06312
   R28        2.03452   0.01055   0.00000   0.02808   0.02808   2.06259
    A1        2.08640  -0.00248   0.00000  -0.01012  -0.01014   2.07626
    A2        2.10118  -0.00384   0.00000  -0.01534  -0.01536   2.08582
    A3        2.09560   0.00632   0.00000   0.02544   0.02545   2.12105
    A4        2.11309  -0.00404   0.00000  -0.01621  -0.01621   2.09687
    A5        2.07445   0.00153   0.00000   0.00523   0.00523   2.07968
    A6        2.09553   0.00252   0.00000   0.01100   0.01100   2.10653
    A7        2.09642   0.00613   0.00000   0.02306   0.02296   2.11938
    A8        2.05977   0.00186   0.00000   0.00739   0.00726   2.06703
    A9        2.12678  -0.00800   0.00000  -0.03094  -0.03099   2.09579
   A10        2.08102  -0.00524   0.00000  -0.02000  -0.02003   2.06098
   A11        2.13113   0.00249   0.00000   0.00953   0.00949   2.14063
   A12        2.07103   0.00274   0.00000   0.01050   0.01046   2.08149
   A13        1.92247   0.00362   0.00000   0.02297   0.02280   1.94527
   A14        1.92175   0.00441   0.00000   0.02659   0.02642   1.94817
   A15        1.93366  -0.00488   0.00000  -0.03123  -0.03106   1.90260
   A16        1.90680  -0.00294   0.00000  -0.01158  -0.01205   1.89475
   A17        1.89617   0.00024   0.00000  -0.00043  -0.00027   1.89590
   A18        1.88223  -0.00060   0.00000  -0.00724  -0.00705   1.87518
   A19        2.10429   0.00085   0.00000   0.00429   0.00417   2.10847
   A20        2.11311  -0.00332   0.00000  -0.01164  -0.01175   2.10136
   A21        2.06579   0.00247   0.00000   0.00731   0.00720   2.07299
   A22        2.10812  -0.00099   0.00000  -0.00527  -0.00527   2.10285
   A23        2.07352   0.00130   0.00000   0.00733   0.00732   2.08084
   A24        2.10146  -0.00030   0.00000  -0.00200  -0.00200   2.09946
   A25        2.09598   0.00122   0.00000   0.00678   0.00675   2.10273
   A26        2.09341  -0.00129   0.00000  -0.00735  -0.00737   2.08604
   A27        2.09379   0.00007   0.00000   0.00055   0.00052   2.09431
   A28        2.09285  -0.00312   0.00000  -0.01080  -0.01080   2.08205
   A29        2.09509   0.00164   0.00000   0.00589   0.00589   2.10098
   A30        2.09525   0.00147   0.00000   0.00491   0.00491   2.10015
   A31        2.09743   0.00094   0.00000   0.00534   0.00533   2.10276
   A32        2.09267   0.00020   0.00000   0.00119   0.00117   2.09383
   A33        2.09308  -0.00114   0.00000  -0.00657  -0.00659   2.08649
   A34        2.10620  -0.00052   0.00000  -0.00338  -0.00339   2.10281
   A35        2.07849   0.00120   0.00000   0.00727   0.00725   2.08574
   A36        2.09813  -0.00067   0.00000  -0.00362  -0.00364   2.09449
   A37        2.11010  -0.00213   0.00000  -0.00921  -0.00925   2.10084
   A38        2.08479   0.00252   0.00000   0.01311   0.01313   2.09792
   A39        2.08827  -0.00040   0.00000  -0.00390  -0.00388   2.08439
   A40        2.09885   0.00428   0.00000   0.01868   0.01866   2.11751
   A41        2.09317  -0.00232   0.00000  -0.01038  -0.01038   2.08279
   A42        2.09117  -0.00196   0.00000  -0.00830  -0.00829   2.08287
   A43        2.08893  -0.00629   0.00000  -0.02621  -0.02620   2.06273
   A44        2.08027   0.00404   0.00000   0.01827   0.01826   2.09853
   A45        2.11398   0.00226   0.00000   0.00793   0.00791   2.12189
    D1       -3.14052  -0.00011   0.00000  -0.00360  -0.00349   3.13917
    D2       -0.01563  -0.00008   0.00000  -0.00220  -0.00224  -0.01787
    D3       -0.00145  -0.00042   0.00000  -0.01239  -0.01238  -0.01383
    D4        3.12345  -0.00039   0.00000  -0.01099  -0.01113   3.11232
    D5        3.13556  -0.00039   0.00000  -0.01181  -0.01176   3.12380
    D6       -0.00358  -0.00020   0.00000  -0.00572  -0.00571  -0.00929
    D7       -0.00349  -0.00008   0.00000  -0.00295  -0.00283  -0.00632
    D8        3.14055   0.00011   0.00000   0.00313   0.00322  -3.13942
    D9        3.12730  -0.00022   0.00000  -0.00527  -0.00575   3.12156
   D10        0.00751   0.00067   0.00000   0.02019   0.02020   0.02771
   D11        0.00261  -0.00023   0.00000  -0.00662  -0.00696  -0.00435
   D12       -3.11719   0.00065   0.00000   0.01883   0.01899  -3.09820
   D13       -2.82212   0.00088   0.00000   0.03149   0.03149  -2.79062
   D14        0.31719   0.00126   0.00000   0.04786   0.04779   0.36497
   D15        0.29682   0.00009   0.00000   0.00555   0.00563   0.30245
   D16       -2.84706   0.00047   0.00000   0.02193   0.02192  -2.82514
   D17       -0.00886  -0.00040   0.00000  -0.01304  -0.01314  -0.02200
   D18        3.14080  -0.00040   0.00000  -0.01319  -0.01320   3.12760
   D19       -3.12825   0.00031   0.00000   0.01216   0.01174  -3.11652
   D20        0.02140   0.00031   0.00000   0.01201   0.01168   0.03308
   D21        0.94603   0.00081   0.00000   0.01378   0.01398   0.96001
   D22       -1.15803  -0.00069   0.00000  -0.00364  -0.00394  -1.16197
   D23        3.04451   0.00032   0.00000   0.00807   0.00805   3.05255
   D24       -2.19335   0.00044   0.00000  -0.00203  -0.00175  -2.19510
   D25        1.98577  -0.00106   0.00000  -0.01945  -0.01966   1.96611
   D26       -0.09487  -0.00005   0.00000  -0.00773  -0.00768  -0.10255
   D27        0.79878   0.00186   0.00000   0.07264   0.07249   0.87128
   D28       -2.34473   0.00101   0.00000   0.04480   0.04476  -2.29997
   D29       -2.34509   0.00223   0.00000   0.08889   0.08893  -2.25616
   D30        0.79458   0.00138   0.00000   0.06105   0.06120   0.85578
   D31       -3.14022  -0.00041   0.00000  -0.01402  -0.01422   3.12875
   D32        0.01542  -0.00055   0.00000  -0.01828  -0.01844  -0.00303
   D33        0.00324   0.00042   0.00000   0.01310   0.01309   0.01634
   D34       -3.12431   0.00028   0.00000   0.00884   0.00887  -3.11544
   D35        3.14012   0.00095   0.00000   0.02932   0.02919  -3.11388
   D36        0.02788   0.00059   0.00000   0.01885   0.01872   0.04660
   D37       -0.00336   0.00012   0.00000   0.00207   0.00201  -0.00135
   D38       -3.11559  -0.00024   0.00000  -0.00840  -0.00846  -3.12406
   D39       -0.00151  -0.00054   0.00000  -0.01606  -0.01607  -0.01758
   D40        3.14147  -0.00007   0.00000  -0.00229  -0.00230   3.13917
   D41        3.12582  -0.00039   0.00000  -0.01165  -0.01172   3.11409
   D42       -0.01439   0.00009   0.00000   0.00211   0.00205  -0.01234
   D43       -0.00019   0.00014   0.00000   0.00370   0.00373   0.00353
   D44        3.14052   0.00026   0.00000   0.00754   0.00755  -3.13511
   D45        3.14001  -0.00034   0.00000  -0.01008  -0.01012   3.12990
   D46       -0.00246  -0.00021   0.00000  -0.00624  -0.00629  -0.00875
   D47        0.00008   0.00039   0.00000   0.01141   0.01142   0.01149
   D48        3.13695   0.00000   0.00000   0.00061   0.00055   3.13749
   D49       -3.14063   0.00027   0.00000   0.00757   0.00759  -3.13304
   D50       -0.00376  -0.00012   0.00000  -0.00323  -0.00328  -0.00704
   D51        0.00174  -0.00052   0.00000  -0.01429  -0.01433  -0.01259
   D52        3.11364  -0.00013   0.00000  -0.00352  -0.00362   3.11002
   D53       -3.13513  -0.00014   0.00000  -0.00351  -0.00353  -3.13866
   D54       -0.02322   0.00026   0.00000   0.00726   0.00718  -0.01605
   D55        0.00415  -0.00011   0.00000  -0.00191  -0.00205   0.00210
   D56       -3.13728   0.00008   0.00000   0.00289   0.00287  -3.13440
   D57        3.13766  -0.00010   0.00000  -0.00168  -0.00192   3.13574
   D58       -0.00377   0.00009   0.00000   0.00311   0.00301  -0.00076
   D59        0.00214   0.00034   0.00000   0.01001   0.01006   0.01220
   D60        3.14124   0.00015   0.00000   0.00381   0.00393  -3.13802
   D61       -3.13961   0.00016   0.00000   0.00522   0.00513  -3.13449
   D62       -0.00052  -0.00004   0.00000  -0.00097  -0.00100  -0.00151
         Item               Value     Threshold  Converged?
 Maximum Force            0.023290     0.000450     NO 
 RMS     Force            0.005699     0.000300     NO 
 Maximum Displacement     0.230581     0.001800     NO 
 RMS     Displacement     0.073684     0.001200     NO 
 Predicted change in Energy=-6.207452D-03
 GradGradGradGradGradGradGradGradGradGradGradGradGradGradGradGradGradGrad

                          Input orientation:                          
 ---------------------------------------------------------------------
 Center     Atomic      Atomic             Coordinates (Angstroms)
 Number     Number       Type             X           Y           Z
 ---------------------------------------------------------------------
      1         17           0       -2.973863   -2.090433    0.469187
      2          6           0       -2.399057   -0.481280    0.151333
      3          6           0       -1.033092   -0.227236    0.223940
      4          6           0       -0.540139    1.066236   -0.031617
      5          7           0        0.822628    1.356657    0.056777
      6          6           0        1.216258    2.743561    0.222828
      7          6           0        1.822417    0.359270   -0.025701
      8          6           0        1.817758   -0.578521   -1.069889
      9          6           0        2.814033   -1.548190   -1.153138
     10          6           0        3.843525   -1.588415   -0.210975
     11          6           0        3.862632   -0.648547    0.819600
     12          6           0        2.858251    0.313209    0.918225
     13          6           0       -1.460669    2.087546   -0.324799
     14          6           0       -2.825332    1.810270   -0.385047
     15          6           0       -3.313719    0.527263   -0.156646
     16          1           0       -0.356142   -1.037086    0.494476
     17          1           0        0.724938    3.200139    1.097407
     18          1           0        0.973620    3.344667   -0.669847
     19          1           0        2.300586    2.791827    0.366101
     20          1           0        1.028296   -0.533905   -1.823005
     21          1           0        2.793858   -2.271801   -1.971220
     22          1           0        4.627452   -2.345942   -0.281317
     23          1           0        4.660880   -0.672242    1.565013
     24          1           0        2.864624    1.026957    1.745267
     25          1           0       -1.111412    3.102950   -0.514504
     26          1           0       -3.524701    2.614786   -0.620777
     27          1           0       -4.381159    0.304871   -0.206021
 ---------------------------------------------------------------------
                    Distance matrix (angstroms):
                    1          2          3          4          5
     1  Cl   0.000000
     2  C    1.738046   0.000000
     3  C    2.701525   1.391284   0.000000
     4  C    4.017259   2.425665   1.407616   0.000000
     5  N    5.144498   3.710284   2.445477   1.396171   0.000000
     6  C    6.401977   4.845123   3.726287   2.441945   1.451213
     7  C    5.408351   4.307981   2.925788   2.466071   1.414624
     8  C    5.254927   4.391169   3.150355   3.056618   2.450423
     9  C    6.035371   5.478709   4.294372   4.398125   3.723940
    10  C    6.869601   6.350341   5.081668   5.127948   4.227406
    11  C    6.995676   6.299468   4.949790   4.800984   3.720802
    12  C    6.323977   5.372022   3.989569   3.608090   2.444308
    13  C    4.513942   2.775993   2.417054   1.405846   2.427600
    14  C    3.995905   2.391782   2.781084   2.429116   3.702511
    15  C    2.712839   1.395929   2.432155   2.828227   4.224075
    16  H    2.821815   2.144800   1.089636   2.175912   2.703903
    17  H    6.485826   4.920086   3.949748   2.725556   2.119170
    18  H    6.813247   5.165961   4.193357   2.808924   2.122019
    19  H    7.187969   5.731143   4.499818   3.347471   2.083208
    20  H    4.867669   3.955696   2.921190   2.868713   2.673968
    21  H    6.265388   5.888766   4.862563   5.100989   4.600460
    22  H    7.642547   7.282580   6.065142   6.197524   5.319796
    23  H    7.842283   7.202615   5.866670   5.711579   4.596019
    24  H    6.740507   5.702783   4.368023   3.840739   2.670103
    25  H    5.604248   3.866274   3.411976   2.169732   2.667660
    26  H    4.861124   3.383616   3.872823   3.413609   4.576160
    27  H    2.858998   2.162051   3.417245   3.919633   5.315516
                    6          7          8          9         10
     6  C    0.000000
     7  C    2.472658   0.000000
     8  C    3.615127   1.403496   0.000000
     9  C    4.781766   2.427513   1.392750   0.000000
    10  C    5.084951   2.812949   2.421023   1.396117   0.000000
    11  C    4.343481   2.427490   2.785064   2.408446   1.394920
    12  C    3.014354   1.402167   2.414623   2.785194   2.421163
    13  C    2.810017   3.722237   4.290822   5.672548   6.454465
    14  C    4.192255   4.882223   5.266272   6.608454   7.486990
    15  C    5.057339   5.140550   5.328116   6.545979   7.463590
    16  H    4.103600   2.639416   2.717234   3.609137   4.294046
    17  H    1.102156   3.245978   4.491069   5.654724   5.862397
    18  H    1.103209   3.169855   4.032866   5.249833   5.725576
    19  H    1.094817   2.509878   3.695191   4.626820   4.679765
    20  H    3.868145   2.158400   1.091982   2.160174   3.411179
    21  H    5.697063   3.413397   2.152294   1.092373   2.160389
    22  H    6.147637   3.905346   3.411745   2.164478   1.092399
    23  H    5.033348   3.413394   3.877478   3.400951   2.159068
    24  H    2.825183   2.160632   3.405670   3.877459   3.409589
    25  H    2.467969   4.046488   4.737269   6.119647   6.830259
    26  H    4.817152   5.833793   6.240255   7.602192   8.492679
    27  H    6.120637   6.206434   6.320856   7.490104   8.439786
                   11         12         13         14         15
    11  C    0.000000
    12  C    1.394088   0.000000
    13  C    6.093717   4.831817   0.000000
    14  C    7.226743   6.020202   1.393849   0.000000
    15  C    7.337274   6.268523   2.428281   1.391689   0.000000
    16  H    4.249085   3.512149   3.413871   3.870129   3.408578
    17  H    4.973398   3.594092   2.835033   4.090699   5.002766
    18  H    5.148845   3.906859   2.761372   4.107009   5.155814
    19  H    3.805499   2.599881   3.888496   5.272828   6.076342
    20  H    3.876850   3.403040   3.913001   4.734272   4.770317
    21  H    3.400869   3.877540   6.309962   7.124223   6.959162
    22  H    2.162896   3.411752   7.531462   8.533982   8.445889
    23  H    1.092429   2.153815   6.975757   8.124591   8.246038
    24  H    2.158747   1.092463   4.911027   6.125963   6.483740
    25  H    6.371395   5.059012   1.090420   2.150652   3.407695
    26  H    8.203458   6.957576   2.150770   1.091756   2.148880
    27  H    8.361877   7.326190   3.423638   2.172297   1.091478
                   16         17         18         19         20
    16  H    0.000000
    17  H    4.414334   0.000000
    18  H    4.724794   1.790508   0.000000
    19  H    4.662109   1.784432   1.771909   0.000000
    20  H    2.746011   4.750149   4.046737   4.179880   0.000000
    21  H    4.186488   6.605985   6.045788   5.598814   2.481826
    22  H    5.210678   6.920225   6.773808   5.677158   4.314418
    23  H    5.142925   5.541267   5.892881   4.359834   4.969252
    24  H    4.024685   3.117804   3.844536   2.309763   4.305921
    25  H    4.327629   2.445380   2.104736   3.537512   4.417832
    26  H    4.961827   4.621063   4.557414   5.910943   5.664750
    27  H    4.300268   6.012797   6.174881   7.152482   5.707923
                   21         22         23         24         25
    21  H    0.000000
    22  H    2.494661   0.000000
    23  H    4.306890   2.492252   0.000000
    24  H    4.969818   4.311734   2.479174   0.000000
    25  H    6.801552   7.917030   7.203876   5.022467   0.000000
    26  H    8.101026   9.548908   9.087683   6.995916   2.464460
    27  H    7.825346   9.390822   9.265516   7.538588   4.314586
                   26         27
    26  H    0.000000
    27  H    2.498249   0.000000
 Stoichiometry    C13H12ClN
 Framework group  C1[X(C13H12ClN)]
 Deg. of freedom    75
 Full point group                 C1      NOp   1
 Largest Abelian subgroup         C1      NOp   1
 Largest concise Abelian subgroup C1      NOp   1
                         Standard orientation:                         
 ---------------------------------------------------------------------
 Center     Atomic      Atomic             Coordinates (Angstroms)
 Number     Number       Type             X           Y           Z
 ---------------------------------------------------------------------
      1         17           0        2.954020   -2.252507   -0.409821
      2          6           0        2.431260   -0.621985   -0.111620
      3          6           0        1.075378   -0.322613   -0.198983
      4          6           0        0.624280    0.989082    0.040495
      5          7           0       -0.727034    1.324556   -0.062949
      6          6           0       -1.071980    2.722375   -0.244972
      7          6           0       -1.760721    0.362324    0.019285
      8          6           0       -1.797058   -0.565407    1.071804
      9          6           0       -2.826302   -1.500049    1.154594
     10          6           0       -3.848198   -1.514164    0.203452
     11          6           0       -3.826350   -0.583744   -0.835607
     12          6           0       -2.789138    0.342574   -0.933627
     13          6           0        1.576247    1.981368    0.332951
     14          6           0        2.930150    1.658709    0.408152
     15          6           0        3.376799    0.357878    0.195693
     16          1           0        0.373805   -1.111591   -0.468455
     17          1           0       -0.557766    3.153996   -1.119063
     18          1           0       -0.817020    3.323157    0.644482
     19          1           0       -2.152742    2.805927   -0.398581
     20          1           0       -1.013226   -0.540539    1.831681
     21          1           0       -2.837879   -2.216343    1.979256
     22          1           0       -4.657924   -2.244088    0.273383
     23          1           0       -4.618323   -0.587336   -1.588048
     24          1           0       -2.764022    1.048462   -1.767033
     25          1           0        1.259920    3.009703    0.510379
     26          1           0        3.654256    2.441277    0.643075
     27          1           0        4.435616    0.100011    0.256813
 ---------------------------------------------------------------------
 Rotational constants (GHZ):           0.8600081           0.3412545           0.2636697
 Standard basis: def2SVP (5D, 7F)
 There are   289 symmetry adapted cartesian basis functions of A   symmetry.
 There are   274 symmetry adapted basis functions of A   symmetry.
   274 basis functions,   471 primitive gaussians,   289 cartesian basis functions
    57 alpha electrons       57 beta electrons
       nuclear repulsion energy      1003.0316359868 Hartrees.
 NAtoms=   27 NActive=   27 NUniq=   27 SFac= 1.00D+00 NAtFMM=   60 NAOKFM=F Big=F
 Integral buffers will be    131072 words long.
 Raffenetti 2 integral format.
 Two-electron integral symmetry is turned on.
 Nuclear repulsion after empirical dispersion term =     1003.0137009986 Hartrees.
 One-electron integrals computed using PRISM.
   1 Symmetry operations used in ECPInt.
 ECPInt:  NShTT=    8256 NPrTT=   30622 LenC2=    7790 LenP2D=   20960.
 LDataN:  DoStor=T MaxTD1= 4 Len=   56
 NBasis=   274 RedAO= T EigKep=  2.58D-04  NBF=   274
 NBsUse=   274 1.00D-06 EigRej= -1.00D+00 NBFU=   274
 Initial guess from the checkpoint file:  "prod_5f_1.chk"
 B after Tr=     0.000000    0.000000   -0.000000
         Rot=    0.999973    0.005852    0.004245   -0.001232 Ang=   0.84 deg.
 ExpMin= 1.22D-01 ExpMax= 1.04D+04 ExpMxC= 1.57D+03 IAcc=3 IRadAn=         5 AccDes= 0.00D+00
 Harris functional with IExCor= 4639 and IRadAn=       5 diagonalized for initial guess.
 HarFok:  IExCor= 4639 AccDes= 0.00D+00 IRadAn=         5 IDoV= 1 UseB2=F ITyADJ=14
 ICtDFT=  3500011 ScaDFX=  1.000000  1.000000  1.000000  1.000000
 FoFCou: FMM=F IPFlag=           0 FMFlag=      100000 FMFlg1=           0
         NFxFlg=           0 DoJE=T BraDBF=F KetDBF=T FulRan=T
         wScrn=  0.000000 ICntrl=       500 IOpCl=  0 I1Cent=   200000004 NGrid=           0
         NMat0=    1 NMatS0=      1 NMatT0=    0 NMatD0=    1 NMtDS0=    0 NMtDT0=    0
 Petite list used in FoFCou.
 Requested convergence on RMS density matrix=1.00D-08 within 128 cycles.
 Requested convergence on MAX density matrix=1.00D-06.
 Requested convergence on             energy=1.00D-06.
 No special actions if energy rises.
 Integral accuracy reduced to 1.0D-05 until final iterations.
 Initial convergence to 1.0D-05 achieved.  Increase integral accuracy.
 SCF Done:  E(RwB97XD) =  -1016.82913072     A.U. after   14 cycles
            NFock= 14  Conv=0.70D-08     -V/T= 2.0072
   1 Symmetry operations used in ECPInt.
 ECPInt:  NShTT=    8256 NPrTT=   30622 LenC2=    7790 LenP2D=   20960.
 LDataN:  DoStor=T MaxTD1= 5 Len=  102
 Calling FoFJK, ICntrl=      2127 FMM=F ISym2X=0 I1Cent= 0 IOpClX= 0 NMat=1 NMatS=1 NMatT=0.
 ***** Axes restored to original set *****
 -------------------------------------------------------------------
 Center     Atomic                   Forces (Hartrees/Bohr)
 Number     Number              X              Y              Z
 -------------------------------------------------------------------
      1       17          -0.000816113   -0.002379286    0.000506927
      2        6           0.003539261    0.005964577   -0.001293750
      3        6          -0.001449411   -0.002365399   -0.000028962
      4        6           0.004234237    0.000868270    0.000265267
      5        7          -0.002474372    0.001651071    0.001405228
      6        6           0.001777765   -0.003496918   -0.001038677
      7        6           0.000181809   -0.000172339   -0.000087368
      8        6           0.000395661    0.000628683    0.000222493
      9        6          -0.000005129    0.000373563    0.001126253
     10        6          -0.000613821    0.000916278    0.000115811
     11        6          -0.000146064   -0.000321757   -0.000930198
     12        6          -0.000633646   -0.001475246    0.000009557
     13        6          -0.003170666    0.000544487   -0.000297736
     14        6           0.001800602   -0.001265987    0.000446935
     15        6          -0.002129098   -0.001051838    0.000212905
     16        1           0.000442854    0.000109300   -0.000444489
     17        1          -0.000274436    0.000517745   -0.000199214
     18        1           0.000800250    0.000789689    0.000005652
     19        1           0.000546246    0.000700815   -0.000080491
     20        1          -0.000272750   -0.000329318    0.000357751
     21        1          -0.000168039    0.000200071   -0.000044414
     22        1          -0.000391514    0.000330294    0.000007163
     23        1          -0.000177062    0.000185956    0.000046531
     24        1           0.000122117   -0.000386114   -0.000094636
     25        1          -0.001980692   -0.001174851   -0.000069216
     26        1          -0.000051623    0.000321648   -0.000069002
     27        1           0.000913635    0.000316606   -0.000050322
 -------------------------------------------------------------------
 Cartesian Forces:  Max     0.005964577 RMS     0.001352803

 GradGradGradGradGradGradGradGradGradGradGradGradGradGradGradGradGradGrad
 Berny optimization.
 Using GEDIIS/GDIIS optimizer.
 FormGI is forming the generalized inverse of G from B-inverse, IUseBI=4.
 Internal  Forces:  Max     0.007696952 RMS     0.001419125
 Search for a local minimum.
 Step number   2 out of a maximum of  145
 All quantities printed in internal units (Hartrees-Bohrs-Radians)
 Mixed Optimization -- RFO/linear search
 Update second derivatives using D2CorX and points    1    2
 DE= -5.50D-03 DEPred=-6.21D-03 R= 8.86D-01
 TightC=F SS=  1.41D+00  RLast= 2.42D-01 DXNew= 5.0454D-01 7.2571D-01
[...]
 Alpha virt. eigenvalues --   22.68819  22.72014  22.75694  22.85258  22.85977
 Alpha virt. eigenvalues --   22.90462  22.96240  23.27969  23.33745  25.99199
 Alpha virt. eigenvalues --   33.15437
          Condensed to atoms (all electrons):
               1          2          3          4          5          6
     1  Cl  16.877048   0.285738  -0.050865   0.010256  -0.000279   0.000004
     2  C    0.285738   4.954734   0.308329   0.049844   0.000356  -0.000966
     3  C   -0.050865   0.308329   5.345506   0.329795  -0.072909   0.015175
     4  C    0.010256   0.049844   0.329795   4.944014   0.439880  -0.077952
     5  N   -0.000279   0.000356  -0.072909   0.439880   6.420534   0.307747
     6  C    0.000004  -0.000966   0.015175  -0.077952   0.307747   4.937330
     7  C   -0.000241  -0.003332   0.014805  -0.146943   0.245231  -0.075352
     8  C    0.000080   0.002201  -0.003968   0.020028  -0.049996  -0.003354
     9  C    0.000030   0.000254  -0.002574  -0.002866   0.008842   0.000642
    10  C   -0.000009   0.000003   0.000387   0.000823   0.000943  -0.000142
    11  C    0.000009  -0.000113  -0.000249   0.000094   0.005933   0.000432
    12  C   -0.000011   0.000423   0.004675  -0.009506  -0.038741  -0.008035
    13  C   -0.000055  -0.108980   0.053940   0.354840  -0.089023  -0.009209
    14  C    0.013682   0.061623  -0.115054   0.020391   0.001195  -0.002090
    15  C   -0.040316   0.361052   0.064331  -0.103763   0.001708   0.000504
    16  H    0.004480  -0.056481   0.430030  -0.038755  -0.005650  -0.000128
    17  H    0.000001   0.000039   0.000466  -0.006876  -0.046068   0.414516
    18  H   -0.000000  -0.000146  -0.000352  -0.005725  -0.050359   0.406782
    19  H   -0.000000   0.000060  -0.000396   0.007401  -0.026635   0.407286
    20  H    0.000039  -0.000006  -0.000703   0.000866  -0.002628   0.000141
    21  H    0.000000  -0.000013  -0.000072   0.000057  -0.000231   0.000004
    22  H   -0.000000  -0.000001  -0.000002   0.000006   0.000011  -0.000002
    23  H    0.000000   0.000000   0.000006  -0.000021  -0.000256   0.000027
    24  H   -0.000001   0.000008  -0.000094   0.000653   0.005593  -0.001719
    25  H    0.000022  -0.000442   0.004418  -0.053998  -0.004625   0.004897
    26  H   -0.000301   0.010046  -0.001813   0.012183  -0.000110  -0.000012
    27  H    0.001594  -0.068798   0.019500  -0.004494   0.000036   0.000001
               7          8          9         10         11         12
     1  Cl  -0.000241   0.000080   0.000030  -0.000009   0.000009  -0.000011
     2  C   -0.003332   0.002201   0.000254   0.000003  -0.000113   0.000423
     3  C    0.014805  -0.003968  -0.002574   0.000387  -0.000249   0.004675
     4  C   -0.146943   0.020028  -0.002866   0.000823   0.000094  -0.009506
     5  N    0.245231  -0.049996   0.008842   0.000943   0.005933  -0.038741
     6  C   -0.075352  -0.003354   0.000642  -0.000142   0.000432  -0.008035
     7  C    5.075811   0.431289  -0.020464  -0.081135  -0.033684   0.469449
     8  C    0.431289   5.086977   0.414689   0.029765  -0.057398   0.020296
     9  C   -0.020464   0.414689   4.928280   0.436048  -0.003139  -0.054614
    10  C   -0.081135   0.029765   0.436048   4.942874   0.454035   0.010889
    11  C   -0.033684  -0.057398  -0.003139   0.454035   4.880085   0.457325
    12  C    0.469449   0.020296  -0.054614   0.010889   0.457325   5.025822
    13  C    0.007556   0.000821  -0.000868   0.000055   0.000114   0.000383
    14  C   -0.001265   0.000217   0.000073  -0.000003  -0.000006  -0.000018
    15  C    0.000909   0.000196  -0.000024   0.000003  -0.000001   0.000022
    16  H    0.006485  -0.003324  -0.000330  -0.000010   0.000323  -0.000979
    17  H    0.013178  -0.001004   0.000162  -0.000025  -0.000337  -0.000656
    18  H   -0.004705   0.002306  -0.000795   0.000036   0.000265   0.003028
    19  H   -0.007027   0.000517   0.000422  -0.000100  -0.000372  -0.004956
    20  H   -0.042994   0.431628  -0.040459   0.008011  -0.002150   0.008515
    21  H    0.012837  -0.053431   0.440579  -0.056172   0.010338  -0.003294
    22  H   -0.003394   0.011275  -0.054585   0.442186  -0.054502   0.010665
    23  H    0.014453  -0.004218   0.011214  -0.056864   0.441273  -0.054819
    24  H   -0.051985   0.009130  -0.002829   0.008460  -0.035999   0.428282
    25  H   -0.000942   0.000147  -0.000005  -0.000001   0.000009  -0.000045
    26  H    0.000029  -0.000003  -0.000000  -0.000000   0.000000  -0.000000
    27  H    0.000015  -0.000000  -0.000000   0.000000  -0.000000   0.000000
              13         14         15         16         17         18
     1  Cl  -0.000055   0.013682  -0.040316   0.004480   0.000001  -0.000000
     2  C   -0.108980   0.061623   0.361052  -0.056481   0.000039  -0.000146
     3  C    0.053940  -0.115054   0.064331   0.430030   0.000466  -0.000352
     4  C    0.354840   0.020391  -0.103763  -0.038755  -0.006876  -0.005725
     5  N   -0.089023   0.001195   0.001708  -0.005650  -0.046068  -0.050359
     6  C   -0.009209  -0.002090   0.000504  -0.000128   0.414516   0.406782
     7  C    0.007556  -0.001265   0.000909   0.006485   0.013178  -0.004705
     8  C    0.000821   0.000217   0.000196  -0.003324  -0.001004   0.002306
     9  C   -0.000868   0.000073  -0.000024  -0.000330   0.000162  -0.000795
    10  C    0.000055  -0.000003   0.000003  -0.000010  -0.000025   0.000036
    11  C    0.000114  -0.000006  -0.000001   0.000323  -0.000337   0.000265
    12  C    0.000383  -0.000018   0.000022  -0.000979  -0.000656   0.003028
    13  C    5.233312   0.432915   0.044829   0.008988  -0.002163   0.007673
    14  C    0.432915   4.906423   0.407676  -0.003843   0.001412  -0.000617
    15  C    0.044829   0.407676   5.104551   0.012411  -0.000282   0.000078
    16  H    0.008988  -0.003843   0.012411   0.485547   0.000007   0.000005
    17  H   -0.002163   0.001412  -0.000282   0.000007   0.557451  -0.048610
    18  H    0.007673  -0.000617   0.000078   0.000005  -0.048610   0.582105
    19  H    0.000479   0.000075  -0.000009  -0.000014  -0.013765  -0.023200
    20  H    0.000749   0.000020  -0.000020  -0.000699  -0.000015   0.000321
    21  H    0.000004   0.000000  -0.000001   0.000004  -0.000001   0.000003
    22  H    0.000000  -0.000000   0.000000   0.000003   0.000000  -0.000000
    23  H   -0.000002   0.000000  -0.000000   0.000000   0.000008  -0.000007
    24  H   -0.000029  -0.000002   0.000002  -0.000045  -0.000737   0.000497
    25  H    0.426091  -0.020532   0.005365  -0.000129  -0.006427   0.001905
    26  H   -0.054704   0.435518  -0.053717   0.000037  -0.000013  -0.000001
    27  H    0.013060  -0.059239   0.446274   0.000014  -0.000001   0.000001
              19         20         21         22         23         24
     1  Cl  -0.000000   0.000039   0.000000  -0.000000   0.000000  -0.000001
     2  C    0.000060  -0.000006  -0.000013  -0.000001   0.000000   0.000008
     3  C   -0.000396  -0.000703  -0.000072  -0.000002   0.000006  -0.000094
     4  C    0.007401   0.000866   0.000057   0.000006  -0.000021   0.000653
     5  N   -0.026635  -0.002628  -0.000231   0.000011  -0.000256   0.005593
     6  C    0.407286   0.000141   0.000004  -0.000002   0.000027  -0.001719
     7  C   -0.007027  -0.042994   0.012837  -0.003394   0.014453  -0.051985
     8  C    0.000517   0.431628  -0.053431   0.011275  -0.004218   0.009130
     9  C    0.000422  -0.040459   0.440579  -0.054585   0.011214  -0.002829
    10  C   -0.000100   0.008011  -0.056172   0.442186  -0.056864   0.008460
    11  C   -0.000372  -0.002150   0.010338  -0.054502   0.441273  -0.035999
    12  C   -0.004956   0.008515  -0.003294   0.010665  -0.054819   0.428282
    13  C    0.000479   0.000749   0.000004   0.000000  -0.000002  -0.000029
    14  C    0.000075   0.000020   0.000000  -0.000000   0.000000  -0.000002
    15  C   -0.000009  -0.000020  -0.000001   0.000000  -0.000000   0.000002
    16  H   -0.000014  -0.000699   0.000004   0.000003   0.000000  -0.000045
    17  H   -0.013765  -0.000015  -0.000001   0.000000   0.000008  -0.000737
    18  H   -0.023200   0.000321   0.000003  -0.000000  -0.000007   0.000497
    19  H    0.510042  -0.000154   0.000002  -0.000001   0.000029  -0.002420
    20  H   -0.000154   0.500059  -0.006468  -0.000081   0.000018  -0.000147
    21  H    0.000002  -0.006468   0.537176  -0.006663  -0.000135   0.000031
    22  H   -0.000001  -0.000081  -0.006663   0.538020  -0.006735  -0.000086
    23  H    0.000029   0.000018  -0.000135  -0.006735   0.540005  -0.007079
    24  H   -0.002420  -0.000147   0.000031  -0.000086  -0.007079   0.510529
    25  H    0.000461  -0.000009   0.000000   0.000000  -0.000000   0.000002
    26  H   -0.000001  -0.000001   0.000000   0.000000  -0.000000  -0.000000
    27  H   -0.000000   0.000001   0.000000   0.000000  -0.000000   0.000000
              25         26         27
     1  Cl   0.000022  -0.000301   0.001594
     2  C   -0.000442   0.010046  -0.068798
     3  C    0.004418  -0.001813   0.019500
     4  C   -0.053998   0.012183  -0.004494
     5  N   -0.004625  -0.000110   0.000036
     6  C    0.004897  -0.000012   0.000001
     7  C   -0.000942   0.000029   0.000015
     8  C    0.000147  -0.000003  -0.000000
     9  C   -0.000005  -0.000000  -0.000000
    10  C   -0.000001  -0.000000   0.000000
    11  C    0.000009   0.000000  -0.000000
    12  C   -0.000045  -0.000000   0.000000
    13  C    0.426091  -0.054704   0.013060
    14  C   -0.020532   0.435518  -0.059239
    15  C    0.005365  -0.053717   0.446274
    16  H   -0.000129   0.000037   0.000014
    17  H   -0.006427  -0.000013  -0.000001
    18  H    0.001905  -0.000001   0.000001
    19  H    0.000461  -0.000001  -0.000000
    20  H   -0.000009  -0.000001   0.000001
    21  H    0.000000   0.000000   0.000000
    22  H    0.000000   0.000000   0.000000
    23  H   -0.000000  -0.000000  -0.000000
    24  H    0.000002  -0.000000   0.000000
    25  H    0.516564  -0.006386  -0.000124
    26  H   -0.006386   0.545878  -0.006741
    27  H   -0.000124  -0.006741   0.530390
 Mulliken charges:
               1
     1  Cl  -0.100904
     2  C    0.204566
     3  C   -0.342311
     4  C    0.259769
     5  N   -0.050497
     6  C   -0.316526
     7  C    0.181417
     8  C   -0.284864
     9  C   -0.057680
    10  C   -0.140057
    11  C   -0.062285
    12  C   -0.264099
    13  C   -0.320776
    14  C   -0.078550
    15  C   -0.251778
    16  H    0.162053
    17  H    0.139739
    18  H    0.129516
    19  H    0.152277
    20  H    0.146168
    21  H    0.125444
    22  H    0.123885
    23  H    0.123103
    24  H    0.139985
    25  H    0.133783
    26  H    0.120112
    27  H    0.128511
 Sum of Mulliken charges =  -0.00000
 Mulliken charges with hydrogens summed into heavy atoms:
               1
     1  Cl  -0.100904
     2  C    0.204566
     3  C   -0.180258
     4  C    0.259769
     5  N   -0.050497
     6  C    0.105006
     7  C    0.181417
     8  C   -0.138696
     9  C    0.067763
    10  C   -0.016172
    11  C    0.060818
    12  C   -0.124114
    13  C   -0.186993
    14  C    0.041561
    15  C   -0.123267
 Electronic spatial extent (au):  <R**2>=           3993.0362
 Charge=              0.0000 electrons
 Dipole moment (field-independent basis, Debye):
    X=             -2.2441    Y=              2.1163    Z=              0.2802  Tot=              3.0973
 Quadrupole moment (field-independent basis, Debye-Ang):
   XX=            -90.6388   YY=            -89.8467   ZZ=            -94.5300
   XY=              6.1503   XZ=              3.5115   YZ=             -1.8938
 Traceless Quadrupole moment (field-independent basis, Debye-Ang):
   XX=              1.0331   YY=              1.8251   ZZ=             -2.8582
   XY=              6.1503   XZ=              3.5115   YZ=             -1.8938
 Octapole moment (field-independent basis, Debye-Ang**2):
  XXX=              5.9319  YYY=             14.7731  ZZZ=             -1.8182  XYY=             -7.6475
  XXY=             -3.6564  XXZ=             -7.1168  XZZ=            -11.1770  YZZ=             -6.3365
  YYZ=              4.0960  XYZ=              8.4155
 Hexadecapole moment (field-independent basis, Debye-Ang**3):
 XXXX=          -3511.8580 YYYY=          -1385.0702 ZZZZ=           -335.2645 XXXY=            104.7559
 XXXZ=             80.6461 YYYX=            -15.0703 YYYZ=              0.7694 ZZZX=              1.6343
 ZZZY=            -13.3613 XXYY=           -810.7175 XXZZ=           -668.5370 YYZZ=           -297.7795
 XXYZ=             -5.7968 YYXZ=             -4.9019 ZZXY=             -7.1880
 N-N= 1.005016022989D+03 E-N=-4.397779963007D+03  KE= 1.013778042527D+03
 Breneman (CHELPG) radii used.
 Read replacement radii for each type of atom:
 Atom Element Radius
    1    17    2.00
    2     6    1.50
    3     6    1.50
    4     6    1.50
    5     7    1.70
    6     6    1.50
    7     6    1.50
    8     6    1.50
    9     6    1.50
   10     6    1.50
   11     6    1.50
   12     6    1.50
   13     6    1.50
   14     6    1.50
   15     6    1.50
   16     1    1.45
   17     1    1.45
   18     1    1.45
   19     1    1.45
   20     1    1.45
   21     1    1.45
   22     1    1.45
   23     1    1.45
   24     1    1.45
   25     1    1.45
   26     1    1.45
   27     1    1.45
 Generate Potential Derived Charges using the Breneman model, NDens= 1.
 Grid spacing= 0.300 Box extension= 2.800
 NStep X,Y,Z=   50     39     34   Total possible points=       66300
 Number of Points to Fit=   16958

 **********************************************************************

            Electrostatic Properties Using The SCF Density.

 **********************************************************************

       Atomic Center    1 is at   2.872860 -2.297801 -0.335325
       Atomic Center    2 is at   2.391616 -0.636038 -0.100323
       Atomic Center    3 is at   1.046648 -0.312194 -0.205607
       Atomic Center    4 is at   0.624666  1.020652 -0.019243
       Atomic Center    5 is at  -0.716066  1.360964 -0.143629
       Atomic Center    6 is at  -1.109271  2.753741 -0.146982
       Atomic Center    7 is at  -1.737338  0.381364 -0.019727
       Atomic Center    8 is at  -1.826993 -0.418830  1.125956
       Atomic Center    9 is at  -2.840864 -1.365640  1.243118
       Atomic Center   10 is at  -3.788994 -1.511103  0.230075
       Atomic Center   11 is at  -3.709699 -0.709594 -0.907583
       Atomic Center   12 is at  -2.683610  0.224361 -1.037795
       Atomic Center   13 is at   1.604619  1.993657  0.256054
       Atomic Center   14 is at   2.948130  1.637245  0.346219
       Atomic Center   15 is at   3.366951  0.322053  0.175818
       Atomic Center   16 is at   0.325867 -1.094232 -0.441326
       Atomic Center   17 is at  -0.549375  3.323194 -0.905886
       Atomic Center   18 is at  -0.952531  3.238523  0.834862
       Atomic Center   19 is at  -2.177011  2.824170 -0.386346
       Atomic Center   20 is at  -1.087659 -0.296876  1.920389
       Atomic Center   21 is at  -2.897419 -1.987205  2.139393
       Atomic Center   22 is at  -4.587124 -2.249843  0.327019
       Atomic Center   23 is at  -4.443032 -0.821605 -1.709159
       Atomic Center   24 is at  -2.602766  0.836872 -1.938544
       Atomic Center   25 is at   1.325241  3.034931  0.410283
       Atomic Center   26 is at   3.687967  2.410941  0.563713
       Atomic Center   27 is at   4.416535  0.038957  0.251641
   16958 points will be used for fitting atomic charges
 Fitting point charges to electrostatic potential
 Charges from ESP fit, RMS=   0.00402 RRMS=   0.36901:
 ESP charges:
               1
     1  Cl  -0.146816
     2  C    0.162518
     3  C   -0.251409
     4  C    0.381368
     5  N   -0.441878
     6  C    0.107297
     7  C    0.350632
     8  C   -0.139188
     9  C   -0.096324
    10  C   -0.120768
    11  C   -0.082627
    12  C   -0.210825
    13  C   -0.263428
    14  C   -0.080471
    15  C   -0.176374
    16  H    0.093754
    17  H    0.024924
    18  H    0.010549
    19  H    0.015315
    20  H    0.084216
    21  H    0.104759
    22  H    0.101880
    23  H    0.099565
    24  H    0.129455
    25  H    0.124698
    26  H    0.110827
    27  H    0.108350
 Sum of ESP charges =   0.00000
 ESP charges with hydrogens summed into heavy atoms:
               1
     1  Cl  -0.146816
     2  C    0.162518
     3  C   -0.157655
     4  C    0.381368
     5  N   -0.441878
     6  C    0.158085
     7  C    0.350632
     8  C   -0.054972
     9  C    0.008435
    10  C   -0.018888
    11  C    0.016938
    12  C   -0.081369
    13  C   -0.138730
    14  C    0.030356
    15  C   -0.068024
 Charge=   0.00000 Dipole=    -2.3129     2.2629     0.2841 Tot=     3.2482
 -----------------------------------------------------------------

              Electrostatic Properties (Atomic Units)

 -----------------------------------------------------------------
    Center     Electric         -------- Electric Field --------
               Potential          X             Y             Z
 -----------------------------------------------------------------
    1 Atom    -64.441415
    2 Atom    -14.710315
    3 Atom    -14.768437
    4 Atom    -14.715736
    5 Atom    -18.351787
    6 Atom    -14.728978
    7 Atom    -14.720843
    8 Atom    -14.762622
    9 Atom    -14.760241
   10 Atom    -14.762550
   11 Atom    -14.759548
   12 Atom    -14.761559
   13 Atom    -14.770137
   14 Atom    -14.762749
   15 Atom    -14.771932
   16 Atom     -1.099743
   17 Atom     -1.104457
   18 Atom     -1.107876
   19 Atom     -1.097530
   20 Atom     -1.097671
   21 Atom     -1.100131
   22 Atom     -1.100867
   23 Atom     -1.099047
   24 Atom     -1.095172
   25 Atom     -1.101691
   26 Atom     -1.103594
   27 Atom     -1.103621
 -----------------------------------------------------------------
 Unable to Open any file for archive entry.
 1\1\GINC-NOTCH446\SP\RwB97XD\def2TZVP\C13H12Cl1N1\U1366379\17-Feb-2026
 \0\\#N Guess=Read Geom=Check Integral(Ultrafine) Density Pop=(ChelpG,R
 eadRadii) NMR wB97XD def2TZVP\\prod_5f_1\\0,1\Cl,0,-2.8799629885,-2.13
 41092058,0.4882931941\C,0,-2.3478807622,-0.498320388,0.1893629004\C,0,
 -0.9913428631,-0.2166445005,0.2625738275\C,0,-0.5285742333,1.094227108
 ,0.0243718674\N,0,0.8245974091,1.393135392,0.1161766536\C,0,1.26376826
 55,2.7711984055,0.0659668538\C,0,1.8106113743,0.3760699219,0.009798333
 2\C,0,1.854514768,-0.4646378252,-1.1092277599\C,0,2.8343335072,-1.4484
 757651,-1.2098729151\C,0,3.7939260321,-1.591778139,-0.2073696723\C,0,3
 .7602853414,-0.7503748188,0.9034311955\C,0,2.7680487187,0.2214716915,1
 .0177444607\C,0,-1.4801919906,2.0899340542,-0.2685884133\C,0,-2.836102
 0804,1.7761845179,-0.3256047516\C,0,-3.2953927367,0.4823054563,-0.1040
 05091\H,0,-0.2930469451,-1.0141911252,0.513521332\H,0,0.7358298989,3.3
 843122436,0.8136748997\H,0,1.1067919722,3.2278094122,-0.9292536006\H,0
 ,2.3371091934,2.8135831951,0.2861159191\H,0,1.1064499472,-0.3445285229
 ,-1.8957293679\H,0,2.8552521036,-2.1012817367,-2.0852329726\H,0,4.5653
 897117,-2.3598323282,-0.2915318311\H,0,4.5028021473,-0.8601115238,1.69
 68256793\H,0,2.7226325019,0.8662021114,1.898263751\H,0,-1.1690594619,3
 .1154468993,-0.4625254371\H,0,-3.5534112653,2.5666519731,-0.5577591147
 \H,0,-4.3549075652,0.2323634974,-0.1537699402\\Version=ES64L-G16RevC.0
 1\State=1-A\HF=-1017.5716425\RMSD=8.839e-10\Dipole=0.9080333,0.7982319
 ,-0.152271\Quadrupole=0.553687,1.7485868,-2.3022738,-4.4302112,2.76119
 15,1.263533\PG=C01 [X(C13H12Cl1N1)]\\@
 The archive entry for this job was punched.


 ONE THORN OF EXPERIENCE IS WORTH A WHOLE WILDERNESS OF
 WARNING....  LOWELL - AMONG MY BOOKS
 Job cpu time:       0 days  0 hours 42 minutes 10.1 seconds.
 Elapsed time:       0 days  0 hours  5 minutes 24.7 seconds.
 File lengths (MBytes):  RWF=    183 Int=      0 D2E=      0 Chk=     28 Scr=      2
 Normal termination of Gaussian 16 at Tue Feb 17 16:09:17 2026.
