 Entering Gaussian System, Link 0=g16
 Input=prod_3l_2.com
 Output=prod_3l_2.log
 Initial command:
 /uufs/chpc.utah.edu/sys/installdir/gaussian16/C01/AVX/g16/l1.exe "/scratch/general/vast/u1366379/GAUSSSCRDIR/11028626-notchpeak.peaks/Gau-2467811.inp" -scrdir="/scratch/general/vast/u1366379/GAUSSSCRDIR/11028626-notchpeak.peaks/"
 Entering Link 1 = /uufs/chpc.utah.edu/sys/installdir/gaussian16/C01/AVX/g16/l1.exe PID=   2467819.
  
 Copyright (c) 1988-2019, Gaussian, Inc.  All Rights Reserved.
  
 This is part of the Gaussian(R) 16 program.  It is based on
 the Gaussian(R) 09 system (copyright 2009, Gaussian, Inc.),
 the Gaussian(R) 03 system (copyright 2003, Gaussian, Inc.),
 the Gaussian(R) 98 system (copyright 1998, Gaussian, Inc.),
 the Gaussian(R) 94 system (copyright 1995, Gaussian, Inc.),
 the Gaussian 92(TM) system (copyright 1992, Gaussian, Inc.),
 the Gaussian 90(TM) system (copyright 1990, Gaussian, Inc.),
 the Gaussian 88(TM) system (copyright 1988, Gaussian, Inc.),
 the Gaussian 86(TM) system (copyright 1986, Carnegie Mellon
 University), and the Gaussian 82(TM) system (copyright 1983,
 Carnegie Mellon University). Gaussian is a federally registered
 trademark of Gaussian, Inc.
  
 This software contains proprietary and confidential information,
 including trade secrets, belonging to Gaussian, Inc.
  
 This software is provided under written license and may be
 used, copied, transmitted, or stored only in accord with that
 written license.
  
 The following legend is applicable only to US Government
 contracts under FAR:
  
                    RESTRICTED RIGHTS LEGEND
  
 Use, reproduction and disclosure by the US Government is
 subject to restrictions as set forth in subparagraphs (a)
 and (c) of the Commercial Computer Software - Restricted
 Rights clause in FAR 52.227-19.
  
 Gaussian, Inc.
 340 Quinnipiac St., Bldg. 40, Wallingford CT 06492
  
  
 ---------------------------------------------------------------
 Warning -- This program may not be used in any manner that
 competes with the business of Gaussian, Inc. or will provide
 assistance to any competitor of Gaussian, Inc.  The licensee
 of this program is prohibited from giving any competitor of
 Gaussian, Inc. access to this program.  By using this program,
 the user acknowledges that Gaussian, Inc. is engaged in the
 business of creating and licensing software in the field of
 computational chemistry and represents and warrants to the
 licensee that it is not a competitor of Gaussian, Inc. and that
 it will not use this program in any manner prohibited above.
 ---------------------------------------------------------------
  

 Cite this work as:
 Gaussian 16, Revision C.01,
 M. J. Frisch, G. W. Trucks, H. B. Schlegel, G. E. Scuseria, 
 M. A. Robb, J. R. Cheeseman, G. Scalmani, V. Barone, 
 G. A. Petersson, H. Nakatsuji, X. Li, M. Caricato, A. V. Marenich, 
 J. Bloino, B. G. Janesko, R. Gomperts, B. Mennucci, H. P. Hratchian, 
 J. V. Ortiz, A. F. Izmaylov, J. L. Sonnenberg, D. Williams-Young, 
 F. Ding, F. Lipparini, F. Egidi, J. Goings, B. Peng, A. Petrone, 
 T. Henderson, D. Ranasinghe, V. G. Zakrzewski, J. Gao, N. Rega, 
 G. Zheng, W. Liang, M. Hada, M. Ehara, K. Toyota, R. Fukuda, 
 J. Hasegawa, M. Ishida, T. Nakajima, Y. Honda, O. Kitao, H. Nakai, 
 T. Vreven, K. Throssell, J. A. Montgomery, Jr., J. E. Peralta, 
 F. Ogliaro, M. J. Bearpark, J. J. Heyd, E. N. Brothers, K. N. Kudin, 
 V. N. Staroverov, T. A. Keith, R. Kobayashi, J. Normand, 
 K. Raghavachari, A. P. Rendell, J. C. Burant, S. S. Iyengar, 
 J. Tomasi, M. Cossi, J. M. Millam, M. Klene, C. Adamo, R. Cammi, 
 J. W. Ochterski, R. L. Martin, K. Morokuma, O. Farkas, 
 J. B. Foresman, and D. J. Fox, Gaussian, Inc., Wallingford CT, 2019.
 
 ******************************************
 Gaussian 16:  ES64L-G16RevC.01  3-Jul-2019
                17-Feb-2026 
 ******************************************
 %NProcShared=8
 Will use up to    8 processors via shared memory.
 %Mem=8GB
 %chk=prod_3l_2.chk
 ------------------------------------------------------
 #N OPT FREQ=NORAMAN Integral(Ultrafine) wB97XD def2SVP
 ------------------------------------------------------
 1/18=20,19=15,26=4,38=1/1,3;
 2/9=110,12=2,17=6,18=5,40=1/2;
 3/5=43,7=101,11=2,25=1,30=1,71=1,74=-58,75=-5/1,2,3;
 4//1;
 5/5=2,38=5/2;
 6/7=2,8=2,9=2,10=2,28=1/1;
 7//1,2,3,16;
 1/18=20,19=15,26=4/3(2);
 2/9=110/2;
 99//99;
 2/9=110/2;
 3/5=43,7=101,11=2,25=1,30=1,71=1,74=-58,75=-5/1,2,3;
 4/5=5,16=3,69=1/1;
 5/5=2,38=5/2;
 7//1,2,3,16;
 1/18=20,19=15,26=4/3(-5);
 2/9=110/2;
 6/7=2,8=2,9=2,10=2,19=2,28=1/1;
 99/9=1/99;
 ---------
 prod_3l_2
 ---------
 Symbolic Z-matrix:
 Charge =  0 Multiplicity = 1
 C                    -1.68821  -2.56802   0.28289 
 C                    -2.0265   -1.12628   0.14472 
 C                    -3.23503  -0.65343   0.62217 
 C                    -3.54666   0.68917   0.55866 
 C                    -2.646     1.58037   0.01283 
 C                    -1.42748   1.14782  -0.47614 
 C                    -0.47787   2.12396  -1.07406 
 C                    -1.09924  -0.21887  -0.40062 
 N                     0.17108  -0.68128  -0.86396 
 C                     1.4267   -0.34624  -0.31676 
 C                     2.60263  -0.75956  -0.94066 
 C                     3.82995  -0.43841  -0.40492 
 C                     3.90675   0.29616   0.76323 
 C                     2.74948   0.70718   1.39675 
 C                     1.5209    0.38806   0.86379 
 H                    -1.36896  -2.79268   1.30156 
 H                    -2.54989  -3.19649   0.05272 
 H                    -0.88017  -2.85635  -0.38931 
 H                    -3.93353  -1.34842   1.05675 
 H                    -4.49253   1.04173   0.93653 
 H                    -2.8886    2.62827  -0.03969 
 H                     0.03962   2.68977  -0.29819 
 H                     0.27463   1.61853  -1.68037 
 H                    -0.9992    2.8335   -1.71831 
 H                     0.17503  -1.37299  -1.61189 
 H                     2.53807  -1.33028  -1.85072 
 H                     4.73284  -0.76086  -0.89759 
 H                     4.86837   0.54639   1.18092 
 H                     2.80858   1.27682   2.30991 
 H                     0.61605   0.69585   1.35739 
 

 GradGradGradGradGradGradGradGradGradGradGradGradGradGradGradGradGradGrad
 Berny optimization.
 Initialization pass.
                           ----------------------------
                           !    Initial Parameters    !
                           ! (Angstroms and Degrees)  !
 --------------------------                            --------------------------
 ! Name  Definition              Value          Derivative Info.                !
 --------------------------------------------------------------------------------
 ! R1    R(1,2)                  1.4873         estimate D2E/DX2                !
 ! R2    R(1,16)                 1.0909         estimate D2E/DX2                !
 ! R3    R(1,17)                 1.0911         estimate D2E/DX2                !
 ! R4    R(1,18)                 1.0899         estimate D2E/DX2                !
 ! R5    R(2,3)                  1.3828         estimate D2E/DX2                !
 ! R6    R(2,8)                  1.4073         estimate D2E/DX2                !
 ! R7    R(3,4)                  1.3798         estimate D2E/DX2                !
 ! R8    R(3,19)                 1.0769         estimate D2E/DX2                !
 ! R9    R(4,5)                  1.3796         estimate D2E/DX2                !
 ! R10   R(4,20)                 1.0778         estimate D2E/DX2                !
 ! R11   R(5,6)                  1.3824         estimate D2E/DX2                !
 ! R12   R(5,21)                 1.0769         estimate D2E/DX2                !
 ! R13   R(6,7)                  1.4873         estimate D2E/DX2                !
 ! R14   R(6,8)                  1.4076         estimate D2E/DX2                !
 ! R15   R(7,22)                 1.0908         estimate D2E/DX2                !
 ! R16   R(7,23)                 1.0906         estimate D2E/DX2                !
 ! R17   R(7,24)                 1.091          estimate D2E/DX2                !
 ! R18   R(8,9)                  1.4291         estimate D2E/DX2                !
 ! R19   R(9,10)                 1.4101         estimate D2E/DX2                !
 ! R20   R(9,25)                 1.0188         estimate D2E/DX2                !
 ! R21   R(10,11)                1.3939         estimate D2E/DX2                !
 ! R22   R(10,15)                1.3935         estimate D2E/DX2                !
 ! R23   R(11,12)                1.3771         estimate D2E/DX2                !
 ! R24   R(11,26)                1.0761         estimate D2E/DX2                !
 ! R25   R(12,13)                1.3821         estimate D2E/DX2                !
 ! R26   R(12,27)                1.0779         estimate D2E/DX2                !
 ! R27   R(13,14)                1.3819         estimate D2E/DX2                !
 ! R28   R(13,28)                1.0779         estimate D2E/DX2                !
 ! R29   R(14,15)                1.3767         estimate D2E/DX2                !
 ! R30   R(14,29)                1.0779         estimate D2E/DX2                !
 ! R31   R(15,30)                1.0757         estimate D2E/DX2                !
 ! A1    A(2,1,16)             110.6669         estimate D2E/DX2                !
 ! A2    A(2,1,17)             111.0467         estimate D2E/DX2                !
 ! A3    A(2,1,18)             111.5779         estimate D2E/DX2                !
 ! A4    A(16,1,17)            108.0281         estimate D2E/DX2                !
 ! A5    A(16,1,18)            107.7259         estimate D2E/DX2                !
 ! A6    A(17,1,18)            107.6391         estimate D2E/DX2                !
 ! A7    A(1,2,3)              119.8799         estimate D2E/DX2                !
 ! A8    A(1,2,8)              120.7402         estimate D2E/DX2                !
 ! A9    A(3,2,8)              119.2853         estimate D2E/DX2                !
 ! A10   A(2,3,4)              120.9474         estimate D2E/DX2                !
 ! A11   A(2,3,19)             119.0468         estimate D2E/DX2                !
 ! A12   A(4,3,19)             120.0032         estimate D2E/DX2                !
 ! A13   A(3,4,5)              119.9565         estimate D2E/DX2                !
 ! A14   A(3,4,20)             120.0235         estimate D2E/DX2                !
 ! A15   A(5,4,20)             120.0199         estimate D2E/DX2                !
 ! A16   A(4,5,6)              120.8814         estimate D2E/DX2                !
 ! A17   A(4,5,21)             120.0534         estimate D2E/DX2                !
 ! A18   A(6,5,21)             119.0648         estimate D2E/DX2                !
 ! A19   A(5,6,7)              119.9753         estimate D2E/DX2                !
 ! A20   A(5,6,8)              119.366          estimate D2E/DX2                !
 ! A21   A(7,6,8)              120.6587         estimate D2E/DX2                !
 ! A22   A(6,7,22)             110.9393         estimate D2E/DX2                !
 ! A23   A(6,7,23)             111.093          estimate D2E/DX2                !
 ! A24   A(6,7,24)             111.0472         estimate D2E/DX2                !
 ! A25   A(22,7,23)            107.9682         estimate D2E/DX2                !
 ! A26   A(22,7,24)            108.0208         estimate D2E/DX2                !
 ! A27   A(23,7,24)            107.6276         estimate D2E/DX2                !
 ! A28   A(2,8,6)              119.55           estimate D2E/DX2                !
 ! A29   A(2,8,9)              120.1782         estimate D2E/DX2                !
 ! A30   A(6,8,9)              120.2697         estimate D2E/DX2                !
 ! A31   A(8,9,10)             126.0756         estimate D2E/DX2                !
 ! A32   A(8,9,25)             117.4631         estimate D2E/DX2                !
 ! A33   A(10,9,25)            116.2813         estimate D2E/DX2                !
 ! A34   A(9,10,11)            120.4697         estimate D2E/DX2                !
 ! A35   A(9,10,15)            120.9425         estimate D2E/DX2                !
 ! A36   A(11,10,15)           118.583          estimate D2E/DX2                !
 ! A37   A(10,11,12)           120.5698         estimate D2E/DX2                !
 ! A38   A(10,11,26)           119.0233         estimate D2E/DX2                !
 ! A39   A(12,11,26)           120.4063         estimate D2E/DX2                !
 ! A40   A(11,12,13)           120.1518         estimate D2E/DX2                !
 ! A41   A(11,12,27)           119.9298         estimate D2E/DX2                !
 ! A42   A(13,12,27)           119.9185         estimate D2E/DX2                !
 ! A43   A(12,13,14)           119.9371         estimate D2E/DX2                !
 ! A44   A(12,13,28)           120.0336         estimate D2E/DX2                !
 ! A45   A(14,13,28)           120.0291         estimate D2E/DX2                !
 ! A46   A(13,14,15)           120.0622         estimate D2E/DX2                !
 ! A47   A(13,14,29)           119.9775         estimate D2E/DX2                !
 ! A48   A(15,14,29)           119.9602         estimate D2E/DX2                !
 ! A49   A(10,15,14)           120.694          estimate D2E/DX2                !
 ! A50   A(10,15,30)           118.8595         estimate D2E/DX2                !
 ! A51   A(14,15,30)           120.4448         estimate D2E/DX2                !
 ! D1    D(16,1,2,3)           -77.7558         estimate D2E/DX2                !
 ! D2    D(16,1,2,8)            98.6828         estimate D2E/DX2                !
 ! D3    D(17,1,2,3)            42.2153         estimate D2E/DX2                !
 ! D4    D(17,1,2,8)          -141.3461         estimate D2E/DX2                !
 ! D5    D(18,1,2,3)           162.3033         estimate D2E/DX2                !
 ! D6    D(18,1,2,8)           -21.2581         estimate D2E/DX2                !
 ! D7    D(1,2,3,4)            177.1297         estimate D2E/DX2                !
 ! D8    D(1,2,3,19)            -2.2894         estimate D2E/DX2                !
 ! D9    D(8,2,3,4)              0.6392         estimate D2E/DX2                !
 ! D10   D(8,2,3,19)          -178.7799         estimate D2E/DX2                !
 ! D11   D(1,2,8,6)           -177.7583         estimate D2E/DX2                !
 ! D12   D(1,2,8,9)              1.7197         estimate D2E/DX2                !
 ! D13   D(3,2,8,6)             -1.2988         estimate D2E/DX2                !
 ! D14   D(3,2,8,9)            178.1793         estimate D2E/DX2                !
 ! D15   D(2,3,4,5)             -0.0052         estimate D2E/DX2                !
 ! D16   D(2,3,4,20)          -179.9165         estimate D2E/DX2                !
 ! D17   D(19,3,4,5)           179.4084         estimate D2E/DX2                !
 ! D18   D(19,3,4,20)           -0.5029         estimate D2E/DX2                !
 ! D19   D(3,4,5,6)              0.0407         estimate D2E/DX2                !
 ! D20   D(3,4,5,21)           179.8523         estimate D2E/DX2                !
 ! D21   D(20,4,5,6)           179.952          estimate D2E/DX2                !
 ! D22   D(20,4,5,21)           -0.2364         estimate D2E/DX2                !
 ! D23   D(4,5,6,7)            179.3239         estimate D2E/DX2                !
 ! D24   D(4,5,6,8)             -0.7094         estimate D2E/DX2                !
 ! D25   D(21,5,6,7)            -0.4896         estimate D2E/DX2                !
 ! D26   D(21,5,6,8)           179.4772         estimate D2E/DX2                !
 ! D27   D(5,6,7,22)            77.5603         estimate D2E/DX2                !
 ! D28   D(5,6,7,23)          -162.3325         estimate D2E/DX2                !
 ! D29   D(5,6,7,24)           -42.5829         estimate D2E/DX2                !
 ! D30   D(8,6,7,22)          -102.4061         estimate D2E/DX2                !
 ! D31   D(8,6,7,23)            17.7012         estimate D2E/DX2                !
 ! D32   D(8,6,7,24)           137.4508         estimate D2E/DX2                !
 ! D33   D(5,6,8,2)              1.3343         estimate D2E/DX2                !
 ! D34   D(5,6,8,9)           -178.1433         estimate D2E/DX2                !
 ! D35   D(7,6,8,2)           -178.6992         estimate D2E/DX2                !
 ! D36   D(7,6,8,9)              1.8232         estimate D2E/DX2                !
 ! D37   D(2,8,9,10)          -114.8413         estimate D2E/DX2                !
 ! D38   D(2,8,9,25)            60.082          estimate D2E/DX2                !
 ! D39   D(6,8,9,10)            64.633          estimate D2E/DX2                !
 ! D40   D(6,8,9,25)          -120.4437         estimate D2E/DX2                !
 ! D41   D(8,9,10,11)         -173.6911         estimate D2E/DX2                !
 ! D42   D(8,9,10,15)            7.1137         estimate D2E/DX2                !
 ! D43   D(25,9,10,11)          11.3326         estimate D2E/DX2                !
 ! D44   D(25,9,10,15)        -167.8625         estimate D2E/DX2                !
 ! D45   D(9,10,11,12)        -179.7193         estimate D2E/DX2                !
 ! D46   D(9,10,11,26)           0.5538         estimate D2E/DX2                !
 ! D47   D(15,10,11,12)         -0.5054         estimate D2E/DX2                !
 ! D48   D(15,10,11,26)        179.7676         estimate D2E/DX2                !
 ! D49   D(9,10,15,14)         179.7051         estimate D2E/DX2                !
 ! D50   D(9,10,15,30)           0.1741         estimate D2E/DX2                !
 ! D51   D(11,10,15,14)          0.4951         estimate D2E/DX2                !
 ! D52   D(11,10,15,30)       -179.0359         estimate D2E/DX2                !
 ! D53   D(10,11,12,13)          0.1989         estimate D2E/DX2                !
 ! D54   D(10,11,12,27)       -179.8164         estimate D2E/DX2                !
 ! D55   D(26,11,12,13)        179.922          estimate D2E/DX2                !
 ! D56   D(26,11,12,27)         -0.0932         estimate D2E/DX2                !
 ! D57   D(11,12,13,14)          0.1291         estimate D2E/DX2                !
 ! D58   D(11,12,13,28)        179.9952         estimate D2E/DX2                !
 ! D59   D(27,12,13,14)       -179.8557         estimate D2E/DX2                !
 ! D60   D(27,12,13,28)          0.0105         estimate D2E/DX2                !
 ! D61   D(12,13,14,15)         -0.1398         estimate D2E/DX2                !
 ! D62   D(12,13,14,29)        179.7614         estimate D2E/DX2                !
 ! D63   D(28,13,14,15)        179.994          estimate D2E/DX2                !
 ! D64   D(28,13,14,29)         -0.1047         estimate D2E/DX2                !
 ! D65   D(13,14,15,10)         -0.1775         estimate D2E/DX2                !
 ! D66   D(13,14,15,30)        179.3461         estimate D2E/DX2                !
 ! D67   D(29,14,15,10)        179.9212         estimate D2E/DX2                !
 ! D68   D(29,14,15,30)         -0.5552         estimate D2E/DX2                !
 --------------------------------------------------------------------------------
 Trust Radius=3.00D-01 FncErr=1.00D-07 GrdErr=1.00D-06 EigMax=2.50D+02 EigMin=1.00D-04
 Number of steps in this run=    160 maximum allowed number of steps=    180.
 GradGradGradGradGradGradGradGradGradGradGradGradGradGradGradGradGradGrad

                          Input orientation:                          
 ---------------------------------------------------------------------
 Center     Atomic      Atomic             Coordinates (Angstroms)
 Number     Number       Type             X           Y           Z
 ---------------------------------------------------------------------
      1          6           0       -1.688210   -2.568020    0.282890
      2          6           0       -2.026500   -1.126280    0.144720
      3          6           0       -3.235030   -0.653430    0.622170
      4          6           0       -3.546660    0.689170    0.558660
      5          6           0       -2.646000    1.580370    0.012830
      6          6           0       -1.427480    1.147820   -0.476140
      7          6           0       -0.477870    2.123960   -1.074060
      8          6           0       -1.099240   -0.218870   -0.400620
      9          7           0        0.171080   -0.681280   -0.863960
     10          6           0        1.426700   -0.346240   -0.316760
     11          6           0        2.602630   -0.759560   -0.940660
     12          6           0        3.829950   -0.438410   -0.404920
     13          6           0        3.906750    0.296160    0.763230
     14          6           0        2.749480    0.707180    1.396750
     15          6           0        1.520900    0.388060    0.863790
     16          1           0       -1.368960   -2.792680    1.301560
     17          1           0       -2.549890   -3.196490    0.052720
     18          1           0       -0.880170   -2.856350   -0.389310
     19          1           0       -3.933530   -1.348420    1.056750
     20          1           0       -4.492530    1.041730    0.936530
     21          1           0       -2.888600    2.628270   -0.039690
     22          1           0        0.039620    2.689770   -0.298190
     23          1           0        0.274630    1.618530   -1.680370
     24          1           0       -0.999200    2.833500   -1.718310
     25          1           0        0.175030   -1.372990   -1.611890
     26          1           0        2.538070   -1.330280   -1.850720
     27          1           0        4.732840   -0.760860   -0.897590
     28          1           0        4.868370    0.546390    1.180920
     29          1           0        2.808580    1.276820    2.309910
     30          1           0        0.616050    0.695850    1.357390
 ---------------------------------------------------------------------
                    Distance matrix (angstroms):
                    1          2          3          4          5
     1  C    0.000000
     2  C    1.487328   0.000000
     3  C    2.484636   1.382784   0.000000
     4  C    3.760209   2.403766   1.379754   0.000000
     5  C    4.266079   2.779771   2.389166   1.379622   0.000000
     6  C    3.801523   2.432246   2.778133   2.402518   1.382383
     7  C    5.031989   3.801018   4.265328   3.760568   2.485479
     8  C    2.516461   1.407338   2.407601   2.781118   2.408458
     9  N    2.886522   2.458621   3.716308   4.209937   3.717494
    10  C    3.872796   3.570156   4.765258   5.154876   4.517449
    11  C    4.814448   4.768792   6.044169   6.493115   5.825164
    12  C    5.954697   5.922269   7.142485   7.524247   6.796169
    13  C    6.303795   6.132646   7.206014   7.466567   6.719437
    14  C    5.626785   5.266796   6.185919   6.351700   5.638165
    15  C    4.401618   3.923561   4.874623   5.085660   4.416876
    16  H    1.090908   2.132493   2.918934   4.173435   4.734472
    17  H    1.091075   2.137328   2.694595   4.043251   4.777993
    18  H    1.089915   2.142989   3.379543   4.536466   4.792114
    19  H    2.669784   2.125537   1.076928   2.132964   3.365310
    20  H    4.617548   3.377652   2.133939   1.077847   2.133783
    21  H    5.342885   3.856666   3.365654   2.133348   1.076897
    22  H    5.564837   4.362025   4.769421   4.194997   2.922338
    23  H    5.023379   4.019967   4.772966   4.525398   3.376161
    24  H    5.801375   4.495118   4.757674   4.033893   2.697986
    25  H    2.913752   2.827239   4.139722   4.776481   4.395482
    26  H    4.893438   4.985850   6.316803   6.848885   6.230512
    27  H    6.774160   6.848987   8.112223   8.530731   7.794710
    28  H    7.314010   7.170130   8.210777   8.439213   7.674588
    29  H    6.254017   5.817296   6.565025   6.618254   5.926311
    30  H    4.137271   3.431297   4.146314   4.238652   3.637470
                    6          7          8          9         10
     6  C    0.000000
     7  C    1.487319   0.000000
     8  C    1.407582   2.515646   0.000000
     9  N    2.459960   2.886979   1.429063   0.000000
    10  C    3.225517   3.209794   2.530539   1.410057   0.000000
    11  C    4.482819   4.221607   3.779925   2.434018   1.393878
    12  C    5.491973   5.056758   4.934078   3.695542   2.406632
    13  C    5.542145   5.093268   5.165243   4.190270   2.780235
    14  C    4.598791   4.304411   4.347500   3.699564   2.407396
    15  C    3.326499   3.280807   2.971907   2.439390   1.393474
    16  H    4.323330   5.532717   3.097525   3.393996   4.052128
    17  H    4.518022   5.819801   3.343071   3.817101   4.906497
    18  H    4.042334   5.043235   2.646587   2.461981   3.409922
    19  H    3.855030   5.342224   3.381273   4.580614   5.623430
    20  H    3.376599   4.618570   3.858951   5.287701   6.207615
    21  H    2.125345   2.671305   3.382053   4.581941   5.248456
    22  H    2.135804   1.090830   3.125329   3.420724   3.337917
    23  H    2.137502   1.090563   2.627036   2.442616   2.654622
    24  H    2.137271   1.091004   3.326151   3.801730   4.237933
    25  H    3.195692   3.597805   2.103077   1.018763   2.073223
    26  H    4.874016   4.650900   4.070386   2.645286   2.134599
    27  H    6.462989   5.958593   5.878256   4.562578   3.382283
    28  H    6.537988   6.012981   6.220873   5.268135   3.858099
    29  H    5.071777   4.792667   4.985491   4.567714   3.382796
    30  H    2.782467   3.024584   2.620979   2.651204   2.132108
                   11         12         13         14         15
    11  C    0.000000
    12  C    1.377123   0.000000
    13  C    2.391342   1.382051   0.000000
    14  C    2.763399   2.392866   1.381868   0.000000
    15  C    2.396500   2.761230   2.389736   1.376696   0.000000
    16  H    4.993461   5.956788   6.137088   5.405518   4.319727
    17  H    5.785663   6.965544   7.375068   6.717766   5.484356
    18  H    4.102488   5.294517   5.846475   5.391022   4.226298
    19  H    6.859868   7.952120   8.016283   7.000265   5.727426
    20  H    7.557102   8.558854   8.434086   7.264326   6.049291
    21  H    6.514810   7.394378   7.229122   6.127144   5.027774
    22  H    4.345074   4.915639   4.670190   3.761227   2.973593
    23  H    3.409115   4.300939   4.572979   4.052667   3.088688
    24  H    5.146649   5.979221   6.055120   5.317653   4.358706
    25  H    2.592313   3.960891   4.727895   4.472898   3.322899
    26  H    1.076150   2.134180   3.369173   3.839531   3.369850
    27  H    2.130646   1.077918   2.134956   3.369400   3.839145
    28  H    3.367519   2.136126   1.077865   2.135915   3.366184
    29  H    3.841284   3.369794   2.135390   1.077889   2.130558
    30  H    3.368346   3.836852   3.367712   2.133823   1.075699
                   16         17         18         19         20
    16  H    0.000000
    17  H    1.765576   0.000000
    18  H    1.761253   1.760412   0.000000
    19  H    2.953445   2.517518   3.699723   0.000000
    20  H    4.959096   4.745259   5.477410   2.457590   0.000000
    21  H    5.787483   5.835331   5.851246   4.255364   2.458192
    22  H    5.882224   6.440245   5.622612   5.824840   4.978047
    23  H    5.572438   5.845163   4.798432   5.831229   5.468700
    24  H    6.396111   6.473173   5.844211   5.813751   4.739406
    25  H    3.589933   3.677128   2.192831   4.899235   5.840499
    26  H    5.228802   5.743967   4.018579   7.094739   7.926193
    27  H    6.796802   7.737799   6.012928   8.903406   9.577097
    28  H    7.075891   8.385259   6.862213   9.004397   9.377182
    29  H    5.918567   7.336117   6.162448   7.342911   7.432876
    30  H    4.014128   5.184173   4.231756   4.996809   5.137543
                   21         22         23         24         25
    21  H    0.000000
    22  H    2.940251   0.000000
    23  H    3.703705   1.764428   0.000000
    24  H    2.535689   1.765374   1.760748   0.000000
    25  H    5.278989   4.272021   2.993961   4.368604   0.000000
    26  H    6.956917   4.981305   3.721244   5.465060   2.375462
    27  H    8.385019   5.855975   5.113695   6.815371   4.653876
    28  H    8.123712   5.486226   5.517147   6.932877   5.788890
    29  H    6.309112   4.057801   4.739199   5.757517   5.416419
    30  H    4.238945   2.654983   3.193101   4.079033   3.645713
                   26         27         28         29         30
    26  H    0.000000
    27  H    2.459616   0.000000
    28  H    4.259464   2.459161   0.000000
    29  H    4.917417   4.259457   2.459854   0.000000
    30  H    4.253391   4.914763   4.258604   2.460083   0.000000
 Stoichiometry    C14H15N
 Framework group  C1[X(C14H15N)]
 Deg. of freedom    84
 Full point group                 C1      NOp   1
 Largest Abelian subgroup         C1      NOp   1
 Largest concise Abelian subgroup C1      NOp   1
                         Standard orientation:                         
 ---------------------------------------------------------------------
 Center     Atomic      Atomic             Coordinates (Angstroms)
 Number     Number       Type             X           Y           Z
 ---------------------------------------------------------------------
      1          6           0        1.680770    2.577734    0.176618
      2          6           0        2.020538    1.132153    0.092968
      3          6           0        3.231931    0.679757    0.582820
      4          6           0        3.545235   -0.663895    0.570047
      5          6           0        2.643395   -1.576778    0.063405
      6          6           0        1.422018   -1.165111   -0.436348
      7          6           0        0.471116   -2.164956   -0.991515
      8          6           0        1.092124    0.203057   -0.412432
      9          7           0       -0.180978    0.645489   -0.887494
     10          6           0       -1.433590    0.330336   -0.321893
     11          6           0       -2.612966    0.717601   -0.955923
     12          6           0       -3.837350    0.415919   -0.402444
     13          6           0       -3.907730   -0.272831    0.793689
     14          6           0       -2.746973   -0.657449    1.437329
     15          6           0       -1.521313   -0.357686    0.886701
     16          1           0        1.365853    2.841373    1.187263
     17          1           0        2.540466    3.197900   -0.081765
     18          1           0        0.869242    2.838702   -0.502524
     19          1           0        3.931391    1.391997    0.986851
     20          1           0        4.493339   -1.000297    0.956940
     21          1           0        2.887288   -2.625614    0.050490
     22          1           0       -0.041990   -2.700875   -0.191875
     23          1           0       -0.284890   -1.684422   -1.613504
     24          1           0        0.990533   -2.898308   -1.610135
     25          1           0       -0.189363    1.307627   -1.661691
     26          1           0       -2.553405    1.252632   -1.887745
     27          1           0       -4.742956    0.717831   -0.903079
     28          1           0       -4.867062   -0.507890    1.225225
     29          1           0       -2.801061   -1.191273    2.372182
     30          1           0       -0.613764   -0.644910    1.387687
 ---------------------------------------------------------------------
 Rotational constants (GHZ):           1.2336960           0.3880799           0.3418456
 Standard basis: def2SVP (5D, 7F)
 There are   300 symmetry adapted cartesian basis functions of A   symmetry.
 There are   285 symmetry adapted basis functions of A   symmetry.
   285 basis functions,   480 primitive gaussians,   300 cartesian basis functions
    53 alpha electrons       53 beta electrons
       nuclear repulsion energy       931.8400487390 Hartrees.
 NAtoms=   30 NActive=   30 NUniq=   30 SFac= 1.00D+00 NAtFMM=   60 NAOKFM=F Big=F
 Integral buffers will be    131072 words long.
 Raffenetti 2 integral format.
 Two-electron integral symmetry is turned on.
 Nuclear repulsion after empirical dispersion term =      931.8190402787 Hartrees.
 One-electron integrals computed using PRISM.
   1 Symmetry operations used in ECPInt.
 ECPInt:  NShTT=    9180 NPrTT=   32880 LenC2=    8789 LenP2D=   23198.
 LDataN:  DoStor=T MaxTD1= 4 Len=   56
 NBasis=   285 RedAO= T EigKep=  1.96D-04  NBF=   285
 NBsUse=   285 1.00D-06 EigRej= -1.00D+00 NBFU=   285
 ExpMin= 1.22D-01 ExpMax= 1.71D+03 ExpMxC= 2.58D+02 IAcc=3 IRadAn=         5 AccDes= 0.00D+00
 Harris functional with IExCor= 4639 and IRadAn=       5 diagonalized for initial guess.
 HarFok:  IExCor= 4639 AccDes= 0.00D+00 IRadAn=         5 IDoV= 1 UseB2=F ITyADJ=14
 ICtDFT=  3500011 ScaDFX=  1.000000  1.000000  1.000000  1.000000
 FoFCou: FMM=F IPFlag=           0 FMFlag=      100000 FMFlg1=           0
         NFxFlg=           0 DoJE=T BraDBF=F KetDBF=T FulRan=T
         wScrn=  0.000000 ICntrl=       500 IOpCl=  0 I1Cent=   200000004 NGrid=           0
         NMat0=    1 NMatS0=      1 NMatT0=    0 NMatD0=    1 NMtDS0=    0 NMtDT0=    0
 Petite list used in FoFCou.
 Requested convergence on RMS density matrix=1.00D-08 within 128 cycles.
 Requested convergence on MAX density matrix=1.00D-06.
 Requested convergence on             energy=1.00D-06.
 No special actions if energy rises.
 Integral accuracy reduced to 1.0D-05 until final iterations.
 Initial convergence to 1.0D-05 achieved.  Increase integral accuracy.
 SCF Done:  E(RwB97XD) =  -596.662749068     A.U. after   15 cycles
            NFock= 15  Conv=0.47D-08     -V/T= 2.0108

 **********************************************************************

            Population analysis using the SCF Density.

 **********************************************************************

 Orbital symmetries:
       Occupied  (A) (A) (A) (A) (A) (A) (A) (A) (A) (A) (A) (A)
                 (A) (A) (A) (A) (A) (A) (A) (A) (A) (A) (A) (A)
                 (A) (A) (A) (A) (A) (A) (A) (A) (A) (A) (A) (A)
                 (A) (A) (A) (A) (A) (A) (A) (A) (A) (A) (A) (A)
                 (A) (A) (A) (A) (A)
       Virtual   (A) (A) (A) (A) (A) (A) (A) (A) (A) (A) (A) (A)
                 (A) (A) (A) (A) (A) (A) (A) (A) (A) (A) (A) (A)
                 (A) (A) (A) (A) (A) (A) (A) (A) (A) (A) (A) (A)
                 (A) (A) (A) (A) (A) (A) (A) (A) (A) (A) (A) (A)
                 (A) (A) (A) (A) (A) (A) (A) (A) (A) (A) (A) (A)
                 (A) (A) (A) (A) (A) (A) (A) (A) (A) (A) (A) (A)
                 (A) (A) (A) (A) (A) (A) (A) (A) (A) (A) (A) (A)
                 (A) (A) (A) (A) (A) (A) (A) (A) (A) (A) (A) (A)
                 (A) (A) (A) (A) (A) (A) (A) (A) (A) (A) (A) (A)
                 (A) (A) (A) (A) (A) (A) (A) (A) (A) (A) (A) (A)
                 (A) (A) (A) (A) (A) (A) (A) (A) (A) (A) (A) (A)
                 (A) (A) (A) (A) (A) (A) (A) (A) (A) (A) (A) (A)
                 (A) (A) (A) (A) (A) (A) (A) (A) (A) (A) (A) (A)
                 (A) (A) (A) (A) (A) (A) (A) (A) (A) (A) (A) (A)
                 (A) (A) (A) (A) (A) (A) (A) (A) (A) (A) (A) (A)
                 (A) (A) (A) (A) (A) (A) (A) (A) (A) (A) (A) (A)
                 (A) (A) (A) (A) (A) (A) (A) (A) (A) (A) (A) (A)
                 (A) (A) (A) (A) (A) (A) (A) (A) (A) (A) (A) (A)
                 (A) (A) (A) (A) (A) (A) (A) (A) (A) (A) (A) (A)
                 (A) (A) (A) (A)
 The electronic state is 1-A.
 Alpha  occ. eigenvalues --  -14.45843 -10.33906 -10.33285 -10.30406 -10.30260
 Alpha  occ. eigenvalues --  -10.29458 -10.29327 -10.29290 -10.29207 -10.29097
 Alpha  occ. eigenvalues --  -10.29039 -10.28889 -10.28528 -10.28472 -10.28139
 Alpha  occ. eigenvalues --   -1.03096  -0.95749  -0.93314  -0.88211  -0.85345
 Alpha  occ. eigenvalues --   -0.83652  -0.81924  -0.77830  -0.76999  -0.70707
 Alpha  occ. eigenvalues --   -0.69743  -0.66820  -0.66239  -0.62129  -0.60899
 Alpha  occ. eigenvalues --   -0.57539  -0.56560  -0.55219  -0.52527  -0.52226
 Alpha  occ. eigenvalues --   -0.50917  -0.50521  -0.50369  -0.49769  -0.49072
 Alpha  occ. eigenvalues --   -0.48802  -0.47524  -0.45209  -0.43823  -0.43466
 Alpha  occ. eigenvalues --   -0.42832  -0.42547  -0.41695  -0.38794  -0.32939
 Alpha  occ. eigenvalues --   -0.32580  -0.31584  -0.26907
 Alpha virt. eigenvalues --    0.05992   0.06294   0.07146   0.08940   0.13538
 Alpha virt. eigenvalues --    0.15286   0.15483   0.16939   0.17318   0.19157
 Alpha virt. eigenvalues --    0.20113   0.20819   0.21558   0.22621   0.22989
 Alpha virt. eigenvalues --    0.23653   0.24144   0.24828   0.25327   0.25783
 Alpha virt. eigenvalues --    0.28362   0.28991   0.32772   0.33172   0.35503
 Alpha virt. eigenvalues --    0.36350   0.37965   0.38342   0.39309   0.39834
 Alpha virt. eigenvalues --    0.40187   0.42001   0.43426   0.44159   0.45202
 Alpha virt. eigenvalues --    0.47262   0.48285   0.49285   0.50439   0.51028
 Alpha virt. eigenvalues --    0.51984   0.53218   0.53700   0.55455   0.56001
 Alpha virt. eigenvalues --    0.56464   0.57058   0.58012   0.58504   0.59234
 Alpha virt. eigenvalues --    0.60390   0.61041   0.62862   0.63392   0.64241
 Alpha virt. eigenvalues --    0.64692   0.66026   0.66679   0.68560   0.69830
 Alpha virt. eigenvalues --    0.71483   0.71694   0.73694   0.74119   0.74295
 Alpha virt. eigenvalues --    0.74919   0.75551   0.75792   0.76597   0.76965
 Alpha virt. eigenvalues --    0.77047   0.77326   0.78312   0.79095   0.79589
 Alpha virt. eigenvalues --    0.80328   0.81037   0.81332   0.82103   0.82922
 Alpha virt. eigenvalues --    0.84066   0.84352   0.84875   0.86408   0.87045
 Alpha virt. eigenvalues --    0.87253   0.89035   0.89605   0.90132   0.92457
 Alpha virt. eigenvalues --    0.93389   0.95456   0.96952   0.99571   1.02069
 Alpha virt. eigenvalues --    1.04504   1.05892   1.07260   1.11511   1.14448
 Alpha virt. eigenvalues --    1.15921   1.17941   1.21404   1.25283   1.27592
 Alpha virt. eigenvalues --    1.28335   1.28621   1.30543   1.32804   1.33828
 Alpha virt. eigenvalues --    1.34188   1.35103   1.35328   1.37848   1.38032
 Alpha virt. eigenvalues --    1.39348   1.40151   1.41201   1.42718   1.46390
 Alpha virt. eigenvalues --    1.54067   1.56168   1.57235   1.59880   1.61216
 Alpha virt. eigenvalues --    1.63152   1.65587   1.66089   1.66722   1.73258
 Alpha virt. eigenvalues --    1.76380   1.77252   1.77750   1.78305   1.80396
 Alpha virt. eigenvalues --    1.80918   1.81791   1.83608   1.84047   1.84977
 Alpha virt. eigenvalues --    1.85406   1.85854   1.86078   1.87261   1.87582
 Alpha virt. eigenvalues --    1.88327   1.89835   1.90163   1.91012   1.91205
 Alpha virt. eigenvalues --    1.92269   1.93062   1.94063   1.94874   1.97954
 Alpha virt. eigenvalues --    1.98813   1.99823   2.01453   2.04507   2.05039
 Alpha virt. eigenvalues --    2.06155   2.08313   2.09053   2.10875   2.11586
 Alpha virt. eigenvalues --    2.12068   2.13536   2.16338   2.16892   2.18340
 Alpha virt. eigenvalues --    2.20092   2.21537   2.23378   2.23512   2.25042
 Alpha virt. eigenvalues --    2.26914   2.27622   2.28693   2.30542   2.31719
 Alpha virt. eigenvalues --    2.35554   2.36866   2.38029   2.39150   2.39893
 Alpha virt. eigenvalues --    2.40889   2.41629   2.43902   2.46274   2.46319
 Alpha virt. eigenvalues --    2.50189   2.53826   2.54607   2.57015   2.57554
 Alpha virt. eigenvalues --    2.60261   2.63047   2.63451   2.66960   2.71349
 Alpha virt. eigenvalues --    2.72245   2.72911   2.74220   2.74609   2.75977
 Alpha virt. eigenvalues --    2.78282   2.79685   2.84734   2.85205   2.85604
 Alpha virt. eigenvalues --    2.85835   2.87999   2.93900   2.95815   3.01413
 Alpha virt. eigenvalues --    3.01706   3.02623   3.03394   3.05201   3.06630
 Alpha virt. eigenvalues --    3.08210   3.09800   3.12405   3.18753   3.21012
 Alpha virt. eigenvalues --    3.23955   3.29611   3.32629   3.40274   3.54721
 Alpha virt. eigenvalues --    3.73215   3.80721
          Condensed to atoms (all electrons):
               1          2          3          4          5          6
     1  C    4.532554   0.413871  -0.078035   0.011127  -0.000491   0.013023
     2  C    0.413871   5.171976   0.343213   0.069755  -0.124359   0.021532
     3  C   -0.078035   0.343213   5.094601   0.301008   0.073300  -0.124300
     4  C    0.011127   0.069755   0.301008   5.029379   0.298565   0.072138
     5  C   -0.000491  -0.124359   0.073300   0.298565   5.106192   0.339894
     6  C    0.013023   0.021532  -0.124300   0.072138   0.339894   5.166343
     7  C   -0.000246   0.013356  -0.000478   0.011145  -0.079675   0.417982
     8  C   -0.082646   0.375917   0.050640  -0.126004   0.050460   0.367728
     9  N   -0.010376  -0.079479   0.006859   0.000084   0.006893  -0.072864
    10  C    0.000100   0.001969  -0.000044   0.000010  -0.000037  -0.008466
    11  C   -0.000049  -0.000048  -0.000004   0.000001  -0.000008  -0.000050
    12  C   -0.000005   0.000005  -0.000000  -0.000000   0.000000   0.000013
    13  C    0.000001  -0.000005   0.000000   0.000000  -0.000000  -0.000039
    14  C    0.000012  -0.000025   0.000000   0.000002   0.000004  -0.000067
    15  C    0.000210   0.000767  -0.000095   0.000049  -0.001274  -0.000515
    16  H    0.389627  -0.012883  -0.005379   0.000027   0.000061  -0.000108
    17  H    0.384794  -0.017985  -0.007463   0.000574   0.000050  -0.000583
    18  H    0.379473  -0.009615   0.010695  -0.000570   0.000023   0.000660
    19  H   -0.015480  -0.072533   0.455365  -0.071855   0.015083  -0.002150
    20  H   -0.000286   0.015570  -0.073401   0.456194  -0.073215   0.015617
    21  H    0.000025  -0.002139   0.015074  -0.072928   0.456708  -0.072145
    22  H    0.000010  -0.000382   0.000068   0.000002  -0.004184  -0.009921
    23  H   -0.000016   0.000433   0.000021  -0.000517   0.009874  -0.009895
    24  H    0.000006  -0.000557   0.000059   0.000638  -0.008284  -0.016959
    25  H    0.002309  -0.007489  -0.000131   0.000027  -0.000138   0.003924
    26  H    0.000004   0.000033  -0.000000   0.000000  -0.000000  -0.000016
    27  H   -0.000000  -0.000000   0.000000  -0.000000   0.000000   0.000001
    28  H    0.000000  -0.000000   0.000000  -0.000000   0.000000   0.000000
    29  H   -0.000000   0.000003  -0.000000  -0.000000  -0.000001   0.000012
    30  H   -0.000015  -0.000651  -0.000137   0.000198  -0.000522   0.001726
               7          8          9         10         11         12
     1  C   -0.000246  -0.082646  -0.010376   0.000100  -0.000049  -0.000005
     2  C    0.013356   0.375917  -0.079479   0.001969  -0.000048   0.000005
     3  C   -0.000478   0.050640   0.006859  -0.000044  -0.000004  -0.000000
     4  C    0.011145  -0.126004   0.000084   0.000010   0.000001  -0.000000
     5  C   -0.079675   0.050460   0.006893  -0.000037  -0.000008   0.000000
     6  C    0.417982   0.367728  -0.072864  -0.008466  -0.000050   0.000013
     7  C    4.535097  -0.077217  -0.014422   0.000253  -0.000579  -0.000102
     8  C   -0.077217   5.120655   0.323790  -0.038038   0.008574  -0.000280
     9  N   -0.014422   0.323790   6.496094   0.372988  -0.094174   0.007483
    10  C    0.000253  -0.038038   0.372988   5.065667   0.263582   0.119584
    11  C   -0.000579   0.008574  -0.094174   0.263582   5.207919   0.300524
    12  C   -0.000102  -0.000280   0.007483   0.119584   0.300524   5.010467
    13  C    0.000021   0.000097  -0.000443  -0.163922   0.082101   0.286916
    14  C   -0.000463  -0.000682   0.008381   0.125049  -0.150060   0.098292
    15  C    0.000926  -0.002313  -0.094418   0.252250   0.052169  -0.146751
    16  H    0.000006  -0.001173   0.000732   0.000515  -0.000011  -0.000001
    17  H    0.000007   0.008077   0.000530  -0.000047   0.000001   0.000000
    18  H   -0.000018  -0.024163   0.018608   0.000218  -0.000417  -0.000011
    19  H    0.000025   0.016927  -0.000170   0.000001  -0.000000   0.000000
    20  H   -0.000292  -0.001847   0.000009   0.000001   0.000000  -0.000000
    21  H   -0.015627   0.017080  -0.000149  -0.000005  -0.000000   0.000000
    22  H    0.382627  -0.002470  -0.000233  -0.000458   0.000008  -0.000026
    23  H    0.387692  -0.021087   0.017236   0.000962  -0.000983   0.000093
    24  H    0.382960   0.007600   0.000416  -0.000007   0.000019   0.000000
    25  H    0.000342  -0.025170   0.356332  -0.016864  -0.019116   0.000336
    26  H    0.000009  -0.000111  -0.012028  -0.078158   0.450011  -0.064283
    27  H   -0.000000   0.000005  -0.000114   0.015279  -0.067966   0.450500
    28  H    0.000000  -0.000000   0.000010  -0.001586   0.014806  -0.070968
    29  H    0.000005  -0.000010  -0.000102   0.015410  -0.001971   0.014400
    30  H   -0.001909   0.009791  -0.016893  -0.067278   0.015835  -0.002465
              13         14         15         16         17         18
     1  C    0.000001   0.000012   0.000210   0.389627   0.384794   0.379473
     2  C   -0.000005  -0.000025   0.000767  -0.012883  -0.017985  -0.009615
     3  C    0.000000   0.000000  -0.000095  -0.005379  -0.007463   0.010695
     4  C    0.000000   0.000002   0.000049   0.000027   0.000574  -0.000570
     5  C   -0.000000   0.000004  -0.001274   0.000061   0.000050   0.000023
     6  C   -0.000039  -0.000067  -0.000515  -0.000108  -0.000583   0.000660
     7  C    0.000021  -0.000463   0.000926   0.000006   0.000007  -0.000018
     8  C    0.000097  -0.000682  -0.002313  -0.001173   0.008077  -0.024163
     9  N   -0.000443   0.008381  -0.094418   0.000732   0.000530   0.018608
    10  C   -0.163922   0.125049   0.252250   0.000515  -0.000047   0.000218
    11  C    0.082101  -0.150060   0.052169  -0.000011   0.000001  -0.000417
    12  C    0.286916   0.098292  -0.146751  -0.000001   0.000000  -0.000011
    13  C    5.112966   0.281898   0.083785   0.000000  -0.000000   0.000003
    14  C    0.281898   5.039834   0.276351   0.000005  -0.000000   0.000006
    15  C    0.083785   0.276351   5.213975   0.000033  -0.000002  -0.000319
    16  H    0.000000   0.000005   0.000033   0.604660  -0.017696  -0.017357
    17  H   -0.000000  -0.000000  -0.000002  -0.017696   0.632366  -0.023606
    18  H    0.000003   0.000006  -0.000319  -0.017357  -0.023606   0.652951
    19  H   -0.000000  -0.000000   0.000001   0.001127   0.004221   0.000032
    20  H    0.000000  -0.000000  -0.000000   0.000003  -0.000005   0.000009
    21  H   -0.000000  -0.000001   0.000018  -0.000001  -0.000000   0.000001
    22  H    0.000014   0.000461   0.006609  -0.000001  -0.000000   0.000003
    23  H    0.000209  -0.000721  -0.004690   0.000001   0.000000  -0.000038
    24  H   -0.000002   0.000026   0.000201  -0.000000  -0.000000  -0.000000
    25  H   -0.000037  -0.000258   0.010331  -0.000503   0.000114   0.002737
    26  H    0.015177  -0.002534   0.017462  -0.000002   0.000000  -0.000067
    27  H   -0.069731   0.014032  -0.001810  -0.000000   0.000000   0.000000
    28  H    0.452630  -0.070183   0.015099  -0.000000   0.000000  -0.000000
    29  H   -0.072108   0.454543  -0.069982  -0.000000   0.000000  -0.000000
    30  H    0.015012  -0.072097   0.457527   0.000044  -0.000002  -0.000015
              19         20         21         22         23         24
     1  C   -0.015480  -0.000286   0.000025   0.000010  -0.000016   0.000006
     2  C   -0.072533   0.015570  -0.002139  -0.000382   0.000433  -0.000557
     3  C    0.455365  -0.073401   0.015074   0.000068   0.000021   0.000059
     4  C   -0.071855   0.456194  -0.072928   0.000002  -0.000517   0.000638
     5  C    0.015083  -0.073215   0.456708  -0.004184   0.009874  -0.008284
     6  C   -0.002150   0.015617  -0.072145  -0.009921  -0.009895  -0.016959
     7  C    0.000025  -0.000292  -0.015627   0.382627   0.387692   0.382960
     8  C    0.016927  -0.001847   0.017080  -0.002470  -0.021087   0.007600
     9  N   -0.000170   0.000009  -0.000149  -0.000233   0.017236   0.000416
    10  C    0.000001   0.000001  -0.000005  -0.000458   0.000962  -0.000007
    11  C   -0.000000   0.000000  -0.000000   0.000008  -0.000983   0.000019
    12  C    0.000000  -0.000000   0.000000  -0.000026   0.000093   0.000000
    13  C   -0.000000   0.000000  -0.000000   0.000014   0.000209  -0.000002
    14  C   -0.000000  -0.000000  -0.000001   0.000461  -0.000721   0.000026
    15  C    0.000001  -0.000000   0.000018   0.006609  -0.004690   0.000201
    16  H    0.001127   0.000003  -0.000001  -0.000001   0.000001  -0.000000
    17  H    0.004221  -0.000005  -0.000000  -0.000000   0.000000  -0.000000
    18  H    0.000032   0.000009   0.000001   0.000003  -0.000038  -0.000000
    19  H    0.691247  -0.012574  -0.000313  -0.000001   0.000001  -0.000000
    20  H   -0.012574   0.679174  -0.012548   0.000006   0.000009  -0.000008
    21  H   -0.000313  -0.012548   0.689796   0.001518   0.000016   0.003898
    22  H   -0.000001   0.000006   0.001518   0.613582  -0.019236  -0.018269
    23  H    0.000001   0.000009   0.000016  -0.019236   0.616711  -0.021228
    24  H   -0.000000  -0.000008   0.003898  -0.018269  -0.021228   0.632763
    25  H    0.000003  -0.000001   0.000006  -0.000156   0.000702   0.000076
    26  H    0.000000  -0.000000   0.000000  -0.000010   0.000021  -0.000001
    27  H   -0.000000   0.000000  -0.000000   0.000000  -0.000002  -0.000000
    28  H    0.000000  -0.000000   0.000000  -0.000002   0.000001  -0.000000
    29  H    0.000000   0.000000   0.000000   0.000023  -0.000010   0.000000
    30  H   -0.000003  -0.000003  -0.000010  -0.000840  -0.000146   0.000103
              25         26         27         28         29         30
     1  C    0.002309   0.000004  -0.000000   0.000000  -0.000000  -0.000015
     2  C   -0.007489   0.000033  -0.000000  -0.000000   0.000003  -0.000651
     3  C   -0.000131  -0.000000   0.000000   0.000000  -0.000000  -0.000137
     4  C    0.000027   0.000000  -0.000000  -0.000000  -0.000000   0.000198
     5  C   -0.000138  -0.000000   0.000000   0.000000  -0.000001  -0.000522
     6  C    0.003924  -0.000016   0.000001   0.000000   0.000012   0.001726
     7  C    0.000342   0.000009  -0.000000   0.000000   0.000005  -0.001909
     8  C   -0.025170  -0.000111   0.000005  -0.000000  -0.000010   0.009791
     9  N    0.356332  -0.012028  -0.000114   0.000010  -0.000102  -0.016893
    10  C   -0.016864  -0.078158   0.015279  -0.001586   0.015410  -0.067278
    11  C   -0.019116   0.450011  -0.067966   0.014806  -0.001971   0.015835
    12  C    0.000336  -0.064283   0.450500  -0.070968   0.014400  -0.002465
    13  C   -0.000037   0.015177  -0.069731   0.452630  -0.072108   0.015012
    14  C   -0.000258  -0.002534   0.014032  -0.070183   0.454543  -0.072097
    15  C    0.010331   0.017462  -0.001810   0.015099  -0.069982   0.457527
    16  H   -0.000503  -0.000002  -0.000000  -0.000000  -0.000000   0.000044
    17  H    0.000114   0.000000   0.000000   0.000000   0.000000  -0.000002
    18  H    0.002737  -0.000067   0.000000  -0.000000  -0.000000  -0.000015
    19  H    0.000003   0.000000  -0.000000   0.000000   0.000000  -0.000003
    20  H   -0.000001  -0.000000   0.000000  -0.000000   0.000000  -0.000003
    21  H    0.000006   0.000000  -0.000000   0.000000   0.000000  -0.000010
    22  H   -0.000156  -0.000010   0.000000  -0.000002   0.000023  -0.000840
    23  H    0.000702   0.000021  -0.000002   0.000001  -0.000010  -0.000146
    24  H    0.000076  -0.000001  -0.000000  -0.000000   0.000000   0.000103
    25  H    0.543952   0.007083  -0.000015  -0.000001   0.000011  -0.000046
    26  H    0.007083   0.700333  -0.013210  -0.000249   0.000024  -0.000205
    27  H   -0.000015  -0.013210   0.677445  -0.012529  -0.000263   0.000021
    28  H   -0.000001  -0.000249  -0.012529   0.682609  -0.012510  -0.000243
    29  H    0.000011   0.000024  -0.000263  -0.012510   0.677444  -0.012960
    30  H   -0.000046  -0.000205   0.000021  -0.000243  -0.012960   0.668025
 Mulliken charges:
               1
     1  C    0.060498
     2  C   -0.100252
     3  C   -0.061435
     4  C    0.020952
     5  C   -0.064917
     6  C   -0.102515
     7  C    0.058581
     8  C    0.045871
     9  N   -0.220579
    10  C    0.141074
    11  C   -0.060116
    12  C   -0.003722
    13  C   -0.024544
    14  C   -0.001804
    15  C   -0.065596
    16  H    0.058276
    17  H    0.036657
    18  H    0.010778
    19  H   -0.008953
    20  H    0.007589
    21  H   -0.008274
    22  H    0.051258
    23  H    0.044589
    24  H    0.036551
    25  H    0.141640
    26  H   -0.019282
    27  H    0.008358
    28  H    0.003117
    29  H    0.008043
    30  H    0.008159
 Sum of Mulliken charges =  -0.00000
 Mulliken charges with hydrogens summed into heavy atoms:
               1
     1  C    0.166208
     2  C   -0.100252
     3  C   -0.070388
     4  C    0.028541
     5  C   -0.073191
     6  C   -0.102515
     7  C    0.190979
     8  C    0.045871
     9  N   -0.078939
    10  C    0.141074
    11  C   -0.079398
    12  C    0.004636
    13  C   -0.021427
    14  C    0.006238
    15  C   -0.057437
 Electronic spatial extent (au):  <R**2>=           3395.3250
 Charge=             -0.0000 electrons
 Dipole moment (field-independent basis, Debye):
    X=              0.7062    Y=              0.5466    Z=             -0.5683  Tot=              1.0585
 Quadrupole moment (field-independent basis, Debye-Ang):
   XX=            -86.2029   YY=            -84.7258   ZZ=            -86.8107
   XY=              0.0761   XZ=              2.6237   YZ=             -3.5370
 Traceless Quadrupole moment (field-independent basis, Debye-Ang):
   XX=             -0.2898   YY=              1.1873   ZZ=             -0.8976
   XY=              0.0761   XZ=              2.6237   YZ=             -3.5370
 Octapole moment (field-independent basis, Debye-Ang**2):
  XXX=             -1.9380  YYY=              0.4097  ZZZ=             -5.5699  XYY=             16.1252
  XXY=              1.5973  XXZ=              9.7947  XZZ=             -7.8928  YZZ=              3.6837
  YYZ=             -4.0168  XYZ=             10.2570
 Hexadecapole moment (field-independent basis, Debye-Ang**3):
 XXXX=          -3147.2734 YYYY=           -931.9087 ZZZZ=           -420.4860 XXXY=             -9.2587
 XXXZ=             57.3608 YYYX=             -3.0386 YYYZ=             -1.2691 ZZZX=             -4.0595
 ZZZY=            -19.0807 XXYY=           -705.4964 XXZZ=           -625.8581 YYZZ=           -218.0961
 XXYZ=            -27.5576 YYXZ=              4.8821 ZZXY=              6.9976
 N-N= 9.318190402787D+02 E-N=-3.244407440504D+03  KE= 5.903024424901D+02
   1 Symmetry operations used in ECPInt.
 ECPInt:  NShTT=    9180 NPrTT=   32880 LenC2=    8789 LenP2D=   23198.
 LDataN:  DoStor=T MaxTD1= 5 Len=  102
 Calling FoFJK, ICntrl=      2127 FMM=F ISym2X=0 I1Cent= 0 IOpClX= 0 NMat=1 NMatS=1 NMatT=0.
 ***** Axes restored to original set *****
 -------------------------------------------------------------------
 Center     Atomic                   Forces (Hartrees/Bohr)
 Number     Number              X              Y              Z
 -------------------------------------------------------------------
      1        6           0.000526836   -0.005867066   -0.004851040
      2        6           0.012384760    0.001771033   -0.002070906
      3        6          -0.002088262    0.001796695   -0.001896569
      4        6          -0.002244558    0.001339158    0.001542997
      5        6          -0.002789475   -0.001499652    0.001921859
      6        6           0.009754598   -0.006837683   -0.004532109
      7        6           0.002759624    0.001708588   -0.005688508
      8        6           0.007386064   -0.001812856    0.000188571
      9        7           0.006346902    0.002178282   -0.000160817
     10        6          -0.024874952   -0.006155971   -0.005550114
     11        6          -0.005781666   -0.001122112   -0.002995256
     12        6           0.000494549    0.000310965    0.001629677
     13        6           0.007878234    0.002363728    0.003583603
     14        6           0.002610636   -0.000399334   -0.001674223
     15        6          -0.006537992   -0.000326644   -0.000922915
     16        1           0.002587524   -0.002194012    0.006343575
     17        1          -0.004901405   -0.003787476    0.000275316
     18        1           0.003820736   -0.003034702   -0.000891411
     19        1          -0.007856942   -0.007610793    0.004294498
     20        1          -0.009226735    0.003404761    0.003733831
     21        1          -0.002847377    0.011283181   -0.001006881
     22        1           0.004644711    0.004004301    0.004200680
     23        1           0.003830944   -0.000905716   -0.001943908
     24        1          -0.003626956    0.005021738   -0.002026998
     25        1          -0.000014797    0.005147324    0.005700909
     26        1          -0.000014237   -0.006608518   -0.010860151
     27        1           0.008236529   -0.003456065   -0.005232781
     28        1           0.009239819    0.002389009    0.003856741
     29        1          -0.000168945    0.005332339    0.008864285
     30        1          -0.009528168    0.003567499    0.006168048
 -------------------------------------------------------------------
 Cartesian Forces:  Max     0.024874952 RMS     0.005506421

 GradGradGradGradGradGradGradGradGradGradGradGradGradGradGradGradGradGrad
 Berny optimization.
 FormGI is forming the generalized inverse of G from B-inverse, IUseBI=4.
 Internal  Forces:  Max     0.018615786 RMS     0.005328024
 Search for a local minimum.
 Step number   1 out of a maximum of  160
 All quantities printed in internal units (Hartrees-Bohrs-Radians)
 Mixed Optimization -- RFO/linear search
 Second derivative matrix not updated -- first step.
 ITU=  0
     Eigenvalues ---    0.00934   0.00934   0.01307   0.01446   0.01559
     Eigenvalues ---    0.01643   0.01687   0.01803   0.01990   0.02043
     Eigenvalues ---    0.02198   0.02243   0.02271   0.02291   0.02327
     Eigenvalues ---    0.02333   0.02335   0.02339   0.02347   0.02347
     Eigenvalues ---    0.02357   0.02362   0.02368   0.07275   0.07326
     Eigenvalues ---    0.07330   0.07353   0.15971   0.15999   0.15999
     Eigenvalues ---    0.16000   0.16000   0.16000   0.16000   0.16000
     Eigenvalues ---    0.16000   0.16000   0.16000   0.16000   0.16000
     Eigenvalues ---    0.16000   0.16000   0.22000   0.22000   0.22010
     Eigenvalues ---    0.22084   0.23444   0.23470   0.24897   0.24950
     Eigenvalues ---    0.24997   0.24999   0.25000   0.33744   0.33745
     Eigenvalues ---    0.34689   0.34697   0.34708   0.34717   0.34748
     Eigenvalues ---    0.34822   0.36247   0.36251   0.36254   0.36256
     Eigenvalues ---    0.36368   0.36372   0.36464   0.36519   0.41124
     Eigenvalues ---    0.41712   0.42748   0.43138   0.43821   0.43994
     Eigenvalues ---    0.44536   0.46031   0.47408   0.47693   0.47899
     Eigenvalues ---    0.48633   0.48978   0.49065   0.49672
 RFO step:  Lambda=-1.09984583D-02 EMin= 9.33570586D-03
 Linear search not attempted -- first point.
 Iteration  1 RMS(Cart)=  0.05413212 RMS(Int)=  0.00047321
 Iteration  2 RMS(Cart)=  0.00110401 RMS(Int)=  0.00005051
 Iteration  3 RMS(Cart)=  0.00000046 RMS(Int)=  0.00005051
 Variable       Old X    -DE/DX   Delta X   Delta X   Delta X     New X
                                 (Linear)    (Quad)   (Total)
    R1        2.81064   0.01497   0.00000   0.04297   0.04297   2.85361
    R2        2.06152   0.00713   0.00000   0.01992   0.01992   2.08144
    R3        2.06183   0.00599   0.00000   0.01675   0.01675   2.07858
    R4        2.05964   0.00419   0.00000   0.01165   0.01165   2.07130
    R5        2.61308   0.01436   0.00000   0.02884   0.02882   2.64191
    R6        2.65948   0.00512   0.00000   0.01051   0.01051   2.67000
    R7        2.60736   0.01131   0.00000   0.02311   0.02310   2.63045
    R8        2.03510   0.01174   0.00000   0.03134   0.03134   2.06643
    R9        2.60711   0.01114   0.00000   0.02283   0.02282   2.62993
   R10        2.03684   0.01052   0.00000   0.02816   0.02816   2.06500
   R11        2.61232   0.01528   0.00000   0.03077   0.03078   2.64311
   R12        2.03504   0.01167   0.00000   0.03114   0.03114   2.06618
   R13        2.81062   0.01350   0.00000   0.03875   0.03875   2.84937
   R14        2.65994   0.00584   0.00000   0.01219   0.01221   2.67215
   R15        2.06137   0.00727   0.00000   0.02029   0.02029   2.08167
   R16        2.06087   0.00414   0.00000   0.01156   0.01156   2.07242
   R17        2.06170   0.00620   0.00000   0.01731   0.01731   2.07901
   R18        2.70054  -0.01259   0.00000  -0.02982  -0.02982   2.67071
   R19        2.66462  -0.01862   0.00000  -0.04128  -0.04128   2.62334
   R20        1.92518  -0.00768   0.00000  -0.01683  -0.01683   1.90835
   R21        2.63405   0.00992   0.00000   0.02041   0.02039   2.65444
   R22        2.63328   0.01078   0.00000   0.02229   0.02228   2.65557
   R23        2.60239   0.01499   0.00000   0.02944   0.02943   2.63182
   R24        2.03363   0.01269   0.00000   0.03378   0.03378   2.06741
   R25        2.61170   0.01307   0.00000   0.02648   0.02649   2.63818
   R26        2.03697   0.01032   0.00000   0.02764   0.02764   2.06462
   R27        2.61135   0.01325   0.00000   0.02693   0.02694   2.63830
   R28        2.03687   0.01029   0.00000   0.02755   0.02755   2.06442
   R29        2.60158   0.01605   0.00000   0.03169   0.03170   2.63328
   R30        2.03691   0.01032   0.00000   0.02763   0.02763   2.06454
   R31        2.03278   0.01187   0.00000   0.03154   0.03154   2.06432
    A1        1.93150   0.00001   0.00000  -0.00346  -0.00346   1.92805
    A2        1.93813   0.00012   0.00000   0.00169   0.00159   1.93972
    A3        1.94740   0.00343   0.00000   0.02257   0.02249   1.96989
    A4        1.88545  -0.00107   0.00000  -0.01105  -0.01107   1.87438
    A5        1.88017  -0.00219   0.00000  -0.01462  -0.01460   1.86557
    A6        1.87866  -0.00050   0.00000   0.00358   0.00341   1.88206
    A7        2.09230  -0.00201   0.00000  -0.00666  -0.00670   2.08560
    A8        2.10731   0.00460   0.00000   0.01870   0.01868   2.12599
    A9        2.08192  -0.00256   0.00000  -0.01104  -0.01112   2.07080
   A10        2.11093   0.00053   0.00000   0.00328   0.00322   2.11415
   A11        2.07776  -0.00021   0.00000  -0.00138  -0.00136   2.07640
   A12        2.09445  -0.00032   0.00000  -0.00197  -0.00195   2.09250
   A13        2.09364  -0.00151   0.00000  -0.00394  -0.00401   2.08963
   A14        2.09481   0.00071   0.00000   0.00171   0.00171   2.09652
   A15        2.09474   0.00080   0.00000   0.00225   0.00226   2.09700
   A16        2.10978   0.00087   0.00000   0.00521   0.00515   2.11493
   A17        2.09533  -0.00046   0.00000  -0.00275  -0.00279   2.09254
   A18        2.07807  -0.00042   0.00000  -0.00252  -0.00256   2.07551
   A19        2.09396  -0.00161   0.00000  -0.00561  -0.00562   2.08834
   A20        2.08333  -0.00343   0.00000  -0.01428  -0.01427   2.06906
   A21        2.10589   0.00504   0.00000   0.01990   0.01988   2.12577
   A22        1.93626   0.00142   0.00000   0.00611   0.00609   1.94235
   A23        1.93894   0.00184   0.00000   0.01276   0.01274   1.95168
   A24        1.93814  -0.00116   0.00000  -0.00657  -0.00657   1.93157
   A25        1.88440  -0.00182   0.00000  -0.01110  -0.01113   1.87327
   A26        1.88532  -0.00094   0.00000  -0.00922  -0.00923   1.87609
   A27        1.87846   0.00054   0.00000   0.00734   0.00733   1.88579
   A28        2.08654   0.00610   0.00000   0.02080   0.02079   2.10733
   A29        2.09751  -0.00400   0.00000  -0.01401  -0.01403   2.08348
   A30        2.09910  -0.00210   0.00000  -0.00671  -0.00673   2.09238
   A31        2.20044  -0.00246   0.00000  -0.01117  -0.01135   2.18908
   A32        2.05012   0.00127   0.00000   0.00475   0.00457   2.05469
   A33        2.02949   0.00112   0.00000   0.00384   0.00366   2.03315
   A34        2.10259  -0.00419   0.00000  -0.01547  -0.01547   2.08712
   A35        2.11085   0.00254   0.00000   0.01030   0.01030   2.12115
   A36        2.06966   0.00165   0.00000   0.00525   0.00523   2.07489
   A37        2.10434  -0.00053   0.00000  -0.00319  -0.00321   2.10113
   A38        2.07735   0.00102   0.00000   0.00604   0.00605   2.08340
   A39        2.10149  -0.00050   0.00000  -0.00284  -0.00283   2.09866
   A40        2.09704   0.00210   0.00000   0.00948   0.00948   2.10652
   A41        2.09317  -0.00182   0.00000  -0.00922  -0.00923   2.08394
   A42        2.09297  -0.00028   0.00000  -0.00026  -0.00026   2.09271
   A43        2.09330  -0.00409   0.00000  -0.01628  -0.01626   2.07704
   A44        2.09498   0.00192   0.00000   0.00740   0.00739   2.10237
   A45        2.09490   0.00217   0.00000   0.00888   0.00887   2.10378
   A46        2.09548   0.00297   0.00000   0.01399   0.01400   2.10948
   A47        2.09400  -0.00074   0.00000  -0.00263  -0.00264   2.09137
   A48        2.09370  -0.00223   0.00000  -0.01137  -0.01138   2.08232
   A49        2.10651  -0.00210   0.00000  -0.00924  -0.00924   2.09726
   A50        2.07449   0.00190   0.00000   0.00961   0.00961   2.08410
   A51        2.10216   0.00020   0.00000  -0.00037  -0.00036   2.10179
    D1       -1.35709  -0.00019   0.00000  -0.01702  -0.01708  -1.37417
    D2        1.72234   0.00027   0.00000   0.00142   0.00145   1.72379
    D3        0.73680  -0.00146   0.00000  -0.03209  -0.03219   0.70461
    D4       -2.46696  -0.00100   0.00000  -0.01364  -0.01366  -2.48062
    D5        2.83273   0.00030   0.00000  -0.01119  -0.01116   2.82157
    D6       -0.37102   0.00075   0.00000   0.00726   0.00737  -0.36365
    D7        3.09150  -0.00016   0.00000  -0.00549  -0.00568   3.08582
    D8       -0.03996   0.00009   0.00000   0.00187   0.00174  -0.03822
    D9        0.01116  -0.00086   0.00000  -0.02472  -0.02468  -0.01353
   D10       -3.12030  -0.00062   0.00000  -0.01737  -0.01726  -3.13756
   D11       -3.10247  -0.00012   0.00000  -0.00687  -0.00700  -3.10947
   D12        0.03002   0.00020   0.00000   0.00401   0.00395   0.03396
   D13       -0.02267   0.00035   0.00000   0.01161   0.01152  -0.01115
   D14        3.10981   0.00067   0.00000   0.02249   0.02247   3.13228
   D15       -0.00009   0.00059   0.00000   0.01782   0.01785   0.01776
   D16       -3.14013   0.00026   0.00000   0.00762   0.00769  -3.13245
   D17        3.13127   0.00035   0.00000   0.01040   0.01037  -3.14155
   D18       -0.00878   0.00002   0.00000   0.00020   0.00021  -0.00857
   D19        0.00071   0.00009   0.00000   0.00221   0.00230   0.00301
   D20        3.13901  -0.00054   0.00000  -0.01677  -0.01671   3.12230
   D21        3.14075   0.00042   0.00000   0.01241   0.01247  -3.12996
   D22       -0.00413  -0.00021   0.00000  -0.00657  -0.00655  -0.01067
   D23        3.12979  -0.00064   0.00000  -0.02127  -0.02123   3.10856
   D24       -0.01238  -0.00046   0.00000  -0.01453  -0.01455  -0.02693
   D25       -0.00854  -0.00003   0.00000  -0.00247  -0.00240  -0.01095
   D26        3.13247   0.00015   0.00000   0.00426   0.00428   3.13675
   D27        1.35368   0.00040   0.00000   0.02948   0.02951   1.38319
   D28       -2.83324   0.00028   0.00000   0.02805   0.02810  -2.80514
   D29       -0.74321   0.00140   0.00000   0.04141   0.04146  -0.70176
   D30       -1.78732   0.00022   0.00000   0.02267   0.02261  -1.76471
   D31        0.30894   0.00010   0.00000   0.02124   0.02121   0.33015
   D32        2.39897   0.00122   0.00000   0.03460   0.03456   2.43353
   D33        0.02329   0.00030   0.00000   0.00769   0.00768   0.03097
   D34       -3.10919  -0.00001   0.00000  -0.00316  -0.00328  -3.11247
   D35       -3.11889   0.00047   0.00000   0.01446   0.01450  -3.10439
   D36        0.03182   0.00017   0.00000   0.00361   0.00354   0.03536
   D37       -2.00436   0.00131   0.00000   0.05492   0.05498  -1.94938
   D38        1.04863   0.00037   0.00000   0.01888   0.01893   1.06756
   D39        1.12806   0.00167   0.00000   0.06603   0.06597   1.19403
   D40       -2.10214   0.00074   0.00000   0.02998   0.02993  -2.07221
   D41       -3.03148  -0.00012   0.00000  -0.00579  -0.00579  -3.03727
   D42        0.12416  -0.00035   0.00000  -0.01291  -0.01289   0.11127
   D43        0.19779   0.00080   0.00000   0.02982   0.02980   0.22759
   D44       -2.92975   0.00057   0.00000   0.02270   0.02271  -2.90705
   D45       -3.13669  -0.00007   0.00000  -0.00180  -0.00178  -3.13848
   D46        0.00967  -0.00010   0.00000  -0.00297  -0.00295   0.00671
   D47       -0.00882   0.00017   0.00000   0.00520   0.00517  -0.00365
   D48        3.13754   0.00013   0.00000   0.00403   0.00400   3.14153
   D49        3.13645   0.00022   0.00000   0.00759   0.00762  -3.13912
   D50        0.00304   0.00024   0.00000   0.00794   0.00797   0.01101
   D51        0.00864   0.00004   0.00000   0.00077   0.00074   0.00938
   D52       -3.12477   0.00006   0.00000   0.00112   0.00109  -3.12368
   D53        0.00347  -0.00028   0.00000  -0.00797  -0.00798  -0.00451
   D54       -3.13839  -0.00009   0.00000  -0.00265  -0.00266  -3.14105
   D55        3.14023  -0.00024   0.00000  -0.00677  -0.00677   3.13346
   D56       -0.00163  -0.00005   0.00000  -0.00145  -0.00146  -0.00309
   D57        0.00225   0.00016   0.00000   0.00463   0.00463   0.00688
   D58        3.14151   0.00014   0.00000   0.00391   0.00392  -3.13775
   D59       -3.13907  -0.00003   0.00000  -0.00069  -0.00071  -3.13978
   D60        0.00018  -0.00005   0.00000  -0.00141  -0.00142  -0.00123
   D61       -0.00244   0.00005   0.00000   0.00134   0.00135  -0.00109
   D62        3.13743  -0.00013   0.00000  -0.00382  -0.00383   3.13360
   D63        3.14149   0.00007   0.00000   0.00206   0.00206  -3.13963
   D64       -0.00183  -0.00011   0.00000  -0.00311  -0.00312  -0.00494
   D65       -0.00310  -0.00014   0.00000  -0.00400  -0.00399  -0.00708
   D66        3.13018  -0.00015   0.00000  -0.00431  -0.00430   3.12588
   D67        3.14022   0.00004   0.00000   0.00116   0.00116   3.14137
   D68       -0.00969   0.00003   0.00000   0.00085   0.00085  -0.00884
         Item               Value     Threshold  Converged?
 Maximum Force            0.018616     0.000450     NO 
 RMS     Force            0.005328     0.000300     NO 
 Maximum Displacement     0.202132     0.001800     NO 
 RMS     Displacement     0.054685     0.001200     NO 
 Predicted change in Energy=-5.767562D-03
 GradGradGradGradGradGradGradGradGradGradGradGradGradGradGradGradGradGrad

                          Input orientation:                          
 ---------------------------------------------------------------------
 Center     Atomic      Atomic             Coordinates (Angstroms)
 Number     Number       Type             X           Y           Z
 ---------------------------------------------------------------------
      1          6           0       -1.635481   -2.584137    0.309384
      2          6           0       -1.987995   -1.123814    0.156096
      3          6           0       -3.218893   -0.659500    0.629181
      4          6           0       -3.551536    0.690634    0.565300
      5          6           0       -2.656577    1.596011    0.003011
      6          6           0       -1.423737    1.174464   -0.505599
      7          6           0       -0.498425    2.178076   -1.145982
      8          6           0       -1.085136   -0.194981   -0.408178
      9          7           0        0.168117   -0.645837   -0.880882
     10          6           0        1.398454   -0.342673   -0.313878
     11          6           0        2.578184   -0.752775   -0.956649
     12          6           0        3.821312   -0.460849   -0.400753
     13          6           0        3.917093    0.247029    0.798721
     14          6           0        2.745623    0.652951    1.440635
     15          6           0        1.495522    0.361251    0.898491
     16          1           0       -1.303172   -2.794214    1.338280
     17          1           0       -2.505910   -3.225603    0.107539
     18          1           0       -0.824664   -2.898855   -0.357642
     19          1           0       -3.920094   -1.373232    1.070393
     20          1           0       -4.514857    1.036770    0.947798
     21          1           0       -2.922586    2.654353   -0.065001
     22          1           0        0.049102    2.758652   -0.386639
     23          1           0        0.247607    1.693507   -1.787334
     24          1           0       -1.065743    2.891471   -1.762080
     25          1           0        0.171710   -1.324527   -1.628664
     26          1           0        2.511896   -1.301353   -1.900873
     27          1           0        4.728598   -0.787108   -0.914607
     28          1           0        4.894337    0.477015    1.229466
     29          1           0        2.804795    1.201128    2.383808
     30          1           0        0.583266    0.669568    1.414288
 ---------------------------------------------------------------------
                    Distance matrix (angstroms):
                    1          2          3          4          5
     1  C    0.000000
     2  C    1.510068   0.000000
     3  C    2.512705   1.398037   0.000000
     4  C    3.802747   2.429883   1.391976   0.000000
     5  C    4.313947   2.804976   2.407410   1.391700   0.000000
     6  C    3.851767   2.457297   2.806018   2.430729   1.398672
     7  C    5.107804   3.849247   4.313234   3.802953   2.513285
     8  C    2.554573   1.412902   2.417605   2.795551   2.417883
     9  N    2.902879   2.439796   3.708411   4.208731   3.712957
    10  C    3.823268   3.507006   4.723307   5.132551   4.505796
    11  C    4.765679   4.714431   6.010794   6.478674   5.817256
    12  C    5.898240   5.873470   7.117914   7.524497   6.808579
    13  C    6.251883   6.096085   7.195334   7.485432   6.757666
    14  C    5.563501   5.216711   6.160879   6.357817   5.669206
    15  C    4.338841   3.858946   4.831167   5.068758   4.423398
    16  H    1.101448   2.157957   2.954625   4.218626   4.784217
    17  H    1.099939   2.165204   2.713916   4.079190   4.825100
    18  H    1.096082   2.183583   3.423575   4.601314   4.867217
    19  H    2.695344   2.152012   1.093510   2.156502   3.398851
    20  H    4.670047   3.417593   2.158326   1.092749   2.158373
    21  H    5.407271   3.898319   3.398722   2.156165   1.093377
    22  H    5.645145   4.417904   4.836884   4.259986   2.970566
    23  H    5.122546   4.088047   4.836611   4.579752   3.413082
    24  H    5.881994   4.544499   4.792033   4.054572   2.706385
    25  H    2.934040   2.808911   4.127507   4.768324   4.380767
    26  H    4.871500   4.950925   6.297229   6.842166   6.223553
    27  H    6.725249   6.809728   8.097047   8.540168   7.814224
    28  H    7.270194   7.147116   8.214408   8.474640   7.731277
    29  H    6.192537   5.773984   6.544117   6.631027   5.970822
    30  H    4.090263   3.377965   4.103562   4.221115   3.653298
                    6          7          8          9         10
     6  C    0.000000
     7  C    1.507823   0.000000
     8  C    1.414043   2.553425   0.000000
     9  N    2.447107   2.913596   1.413281   0.000000
    10  C    3.209863   3.262625   2.489764   1.388211   0.000000
    11  C    4.464645   4.253382   3.745913   2.413627   1.404670
    12  C    5.495068   5.116582   4.913651   3.689251   2.427293
    13  C    5.575468   5.196885   5.164714   4.203939   2.815878
    14  C    4.630697   4.420457   4.337258   3.704029   2.425788
    15  C    3.339888   3.384752   2.945603   2.437704   1.405265
    16  H    4.377765   5.616302   3.139056   3.421242   4.004805
    17  H    4.572485   5.899242   3.386626   3.844813   4.871646
    18  H    4.119794   5.148120   2.716862   2.517038   3.387954
    19  H    3.899526   5.406655   3.407556   4.588033   5.591530
    20  H    3.418529   4.670997   3.888298   5.301460   6.201768
    21  H    2.151917   2.696649   3.407740   4.594493   5.264550
    22  H    2.166347   1.101570   3.164001   3.442236   3.382937
    23  H    2.169249   1.096679   2.691590   2.510080   2.764335
    24  H    2.157550   1.100164   3.370402   3.848568   4.316161
    25  H    3.170439   3.598651   2.084496   1.009857   2.048804
    26  H    4.854448   4.662438   4.048560   2.638823   2.162724
    27  H    6.470415   6.013953   5.865713   4.562793   3.412954
    28  H    6.589001   6.133371   6.235988   5.296368   3.908324
    29  H    5.121509   4.932049   4.987571   4.584926   3.411543
    30  H    2.822932   3.162378   2.617707   2.677769   2.162342
                   11         12         13         14         15
    11  C    0.000000
    12  C    1.392698   0.000000
    13  C    2.423553   1.396067   0.000000
    14  C    2.784074   2.405903   1.396126   0.000000
    15  C    2.419659   2.788042   2.426315   1.393470   0.000000
    16  H    4.949656   5.893146   6.065596   5.318474   4.240645
    17  H    5.752859   6.923580   7.334294   6.663251   5.431628
    18  H    4.067412   5.246982   5.806722   5.347529   4.193975
    19  H    6.835311   7.932595   8.007531   6.976695   5.689190
    20  H    7.559140   8.576313   8.470165   7.287302   6.048422
    21  H    6.531617   7.436220   7.302221   6.196866   5.070140
    22  H    4.364777   4.959329   4.761794   3.878677   3.080783
    23  H    3.479356   4.397183   4.716472   4.212199   3.247438
    24  H    5.216076   6.080671   6.195114   5.458468   4.476688
    25  H    2.563127   3.946301   4.731795   4.467219   3.313735
    26  H    1.094026   2.161337   3.414656   3.878094   3.410822
    27  H    2.151099   1.092547   2.159508   3.398989   3.880571
    28  H    3.414095   2.165314   1.092446   2.166222   3.416853
    29  H    3.876562   3.398419   2.158706   1.092508   2.150756
    30  H    3.409413   3.880355   3.416412   2.162581   1.092391
                   16         17         18         19         20
    16  H    0.000000
    17  H    1.774090   0.000000
    18  H    1.765239   1.774752   0.000000
    19  H    2.989855   2.521563   3.734769   0.000000
    20  H    5.014362   4.786410   5.550751   2.485333   0.000000
    21  H    5.854791   5.897226   5.943487   4.301812   2.485490
    22  H    5.969784   6.525612   5.724657   5.911846   5.057205
    23  H    5.684542   5.947271   4.927836   5.911110   5.531122
    24  H    6.480403   6.556535   5.963091   5.861563   4.762325
    25  H    3.624640   3.714585   2.255386   4.902055   5.846177
    26  H    5.222595   5.737145   4.008267   7.085484   7.934545
    27  H    6.744348   7.702541   5.967277   8.892898   9.603985
    28  H    7.008702   8.350554   6.828058   9.007935   9.430036
    29  H    5.825056   7.278800   6.123592   7.319598   7.460994
    30  H    3.944897   5.140326   4.225594   4.956969   5.132573
                   21         22         23         24         25
    21  H    0.000000
    22  H    2.990863   0.000000
    23  H    3.733601   1.770843   0.000000
    24  H    2.526691   1.775488   1.777820   0.000000
    25  H    5.277423   4.269662   3.023155   4.395877   0.000000
    26  H    6.967900   4.984165   3.756206   5.513487   2.356078
    27  H    8.432443   5.894815   5.195612   6.915529   4.643697
    28  H    8.217100   5.594101   5.672127   7.092355   5.806691
    29  H    6.396204   4.206554   4.917323   5.918337   5.423283
    30  H    4.291697   2.809438   3.378092   4.212529   3.661332
                   26         27         28         29         30
    26  H    0.000000
    27  H    2.480108   0.000000
    28  H    4.317133   2.494499   0.000000
    29  H    4.970583   4.305072   2.494600   0.000000
    30  H    4.312127   4.972870   4.319325   2.481475   0.000000
 Stoichiometry    C14H15N
[...]
               7          8          9         10         11         12
     1  C   -0.000225  -0.123900   0.048576  -0.007792  -0.005112  -0.000141
     2  C    0.019810   0.241445  -0.077899   0.010504   0.003253  -0.000005
     3  C   -0.005538   0.089962   0.010992  -0.000645  -0.000495   0.000008
     4  C    0.014107  -0.173540   0.000875  -0.000282   0.000047   0.000000
     5  C   -0.077156   0.072229   0.002056   0.001011  -0.000542   0.000008
     6  C    0.305774   0.149392  -0.021419  -0.000578  -0.003632   0.000150
     7  C    4.959205  -0.097752   0.001274   0.002650   0.001561   0.000556
     8  C   -0.097752   5.640056   0.201737  -0.076161   0.030895  -0.002559
     9  N    0.001274   0.201737   6.521885   0.298151  -0.043724   0.000351
    10  C    0.002650  -0.076161   0.298151   4.998310   0.321979   0.000086
    11  C    0.001561   0.030895  -0.043724   0.321979   5.196079   0.467058
    12  C    0.000556  -0.002559   0.000351   0.000086   0.467058   4.849792
    13  C   -0.000511   0.000691   0.002483  -0.082740   0.022038   0.448504
    14  C    0.001188  -0.007880   0.001843  -0.008519  -0.087050   0.012030
    15  C   -0.019683  -0.037523  -0.053956   0.406918   0.021687  -0.071838
    16  H    0.000065  -0.015668  -0.004503   0.002538   0.002015  -0.000206
    17  H   -0.000012   0.014108   0.002260  -0.000158  -0.000186   0.000004
    18  H    0.000032  -0.005956  -0.007150  -0.001918   0.000542  -0.000005
    19  H    0.000064   0.025658  -0.000596   0.000080   0.000010  -0.000000
    20  H    0.000032  -0.008523  -0.000000   0.000002   0.000001  -0.000000
    21  H   -0.013151   0.030237  -0.000216   0.000055  -0.000005   0.000000
    22  H    0.403208  -0.019933  -0.002813   0.004736  -0.001802   0.000461
    23  H    0.437364  -0.010084   0.010160  -0.006315   0.001723  -0.000131
    24  H    0.407706   0.018198   0.000801   0.000488   0.000097  -0.000011
    25  H   -0.000794  -0.042728   0.393864  -0.067602  -0.003914   0.001101
    26  H    0.000058   0.002042   0.004512  -0.086792   0.445947  -0.029871
    27  H    0.000004   0.000003  -0.000195   0.016931  -0.063389   0.445667
    28  H    0.000000  -0.000000   0.000022  -0.004083   0.012502  -0.059489
    29  H    0.000051   0.000143  -0.000227   0.012347  -0.002167   0.009724
    30  H   -0.004007   0.004325  -0.005000  -0.039202   0.006433  -0.001601
              13         14         15         16         17         18
     1  C    0.000099   0.000120   0.003221   0.436916   0.411982   0.408303
     2  C   -0.000062  -0.000168  -0.012989  -0.039724  -0.058030  -0.037855
     3  C    0.000008   0.000054   0.002268  -0.007984   0.000961   0.000519
     4  C   -0.000003   0.000045  -0.000473   0.001038   0.000243  -0.000879
     5  C    0.000004   0.000127   0.007759  -0.000673   0.000557   0.000257
     6  C   -0.000268   0.002821   0.024456   0.003013  -0.001178  -0.000643
     7  C   -0.000511   0.001188  -0.019683   0.000065  -0.000012   0.000032
     8  C    0.000691  -0.007880  -0.037523  -0.015668   0.014108  -0.005956
     9  N    0.002483   0.001843  -0.053956  -0.004503   0.002260  -0.007150
    10  C   -0.082740  -0.008519   0.406918   0.002538  -0.000158  -0.001918
    11  C    0.022038  -0.087050   0.021687   0.002015  -0.000186   0.000542
    12  C    0.448504   0.012030  -0.071838  -0.000206   0.000004  -0.000005
    13  C    4.963678   0.453714   0.013231   0.000058   0.000001  -0.000003
    14  C    0.453714   4.938356   0.426861  -0.000409   0.000012   0.000015
    15  C    0.013231   0.426861   5.191887  -0.000638   0.000118   0.000312
    16  H    0.000058  -0.000409  -0.000638   0.528638  -0.018944  -0.035355
    17  H    0.000001   0.000012   0.000118  -0.018944   0.540685  -0.020628
    18  H   -0.000003   0.000015   0.000312  -0.035355  -0.020628   0.568247
    19  H    0.000000  -0.000004  -0.000047  -0.000196   0.003585   0.000483
    20  H    0.000000  -0.000001  -0.000010   0.000015  -0.000067   0.000005
    21  H   -0.000000   0.000001   0.000054  -0.000004   0.000003  -0.000002
    22  H   -0.000483   0.003210  -0.000869  -0.000011  -0.000000   0.000006
    23  H    0.000194  -0.000476  -0.003786   0.000015  -0.000004   0.000004
    24  H    0.000008  -0.000062  -0.000346  -0.000000  -0.000001   0.000001
    25  H    0.000083  -0.000213   0.010374  -0.004663   0.000248   0.002246
    26  H    0.009767  -0.003145   0.006995   0.000104  -0.000005   0.000047
    27  H   -0.059687   0.011982  -0.004237  -0.000002   0.000000  -0.000000
    28  H    0.447562  -0.060110   0.013427  -0.000000  -0.000000  -0.000000
    29  H   -0.054786   0.436952  -0.054617  -0.000004  -0.000000   0.000000
    30  H    0.005765  -0.035349   0.425931   0.000345  -0.000029   0.000003
              19         20         21         22         23         24
     1  C   -0.013212  -0.000051   0.000054   0.000052  -0.000175  -0.000026
     2  C   -0.068869   0.018943  -0.007386  -0.000522   0.003285  -0.001168
     3  C    0.442252  -0.070166   0.015298   0.000162  -0.000596   0.000463
     4  C   -0.057733   0.460696  -0.064387  -0.000687   0.000724   0.000500
     5  C    0.012550  -0.069753   0.458797   0.000539  -0.004323  -0.003653
     6  C   -0.005023   0.018871  -0.083863  -0.015339  -0.053163  -0.058382
     7  C    0.000064   0.000032  -0.013151   0.403208   0.437364   0.407706
     8  C    0.025658  -0.008523   0.030237  -0.019933  -0.010084   0.018198
     9  N   -0.000596  -0.000000  -0.000216  -0.002813   0.010160   0.000801
    10  C    0.000080   0.000002   0.000055   0.004736  -0.006315   0.000488
    11  C    0.000010   0.000001  -0.000005  -0.001802   0.001723   0.000097
    12  C   -0.000000  -0.000000   0.000000   0.000461  -0.000131  -0.000011
    13  C    0.000000   0.000000  -0.000000  -0.000483   0.000194   0.000008
    14  C   -0.000004  -0.000001   0.000001   0.003210  -0.000476  -0.000062
    15  C   -0.000047  -0.000010   0.000054  -0.000869  -0.003786  -0.000346
    16  H   -0.000196   0.000015  -0.000004  -0.000011   0.000015  -0.000000
    17  H    0.003585  -0.000067   0.000003  -0.000000  -0.000004  -0.000001
    18  H    0.000483   0.000005  -0.000002   0.000006   0.000004   0.000001
    19  H    0.563516  -0.007572  -0.000189  -0.000003   0.000002   0.000003
    20  H   -0.007572   0.550980  -0.008124   0.000006   0.000014  -0.000055
    21  H   -0.000189  -0.008124   0.563000   0.000441  -0.000297   0.003891
    22  H   -0.000003   0.000006   0.000441   0.542545  -0.029067  -0.022034
    23  H    0.000002   0.000014  -0.000297  -0.029067   0.539169  -0.020358
    24  H    0.000003  -0.000055   0.003891  -0.022034  -0.020358   0.552502
    25  H    0.000003  -0.000003   0.000020  -0.000286   0.000551   0.000052
    26  H    0.000000   0.000000  -0.000000  -0.000053   0.000150   0.000004
    27  H   -0.000000  -0.000000  -0.000000   0.000004  -0.000004  -0.000000
    28  H    0.000000   0.000000  -0.000000  -0.000006  -0.000000  -0.000000
    29  H    0.000000  -0.000000   0.000000   0.000051   0.000002   0.000001
    30  H    0.000013   0.000003  -0.000023  -0.002734   0.000550   0.000125
              25         26         27         28         29         30
     1  C    0.010080  -0.000278   0.000002   0.000000  -0.000003  -0.000291
     2  C   -0.007014   0.000085  -0.000002   0.000000  -0.000006  -0.000851
     3  C    0.001156   0.000004   0.000000  -0.000000   0.000001  -0.000129
     4  C   -0.000098  -0.000002   0.000000   0.000000  -0.000001  -0.000100
     5  C   -0.000346  -0.000002   0.000000  -0.000000  -0.000001   0.001677
     6  C   -0.002119  -0.000493   0.000004  -0.000000   0.000009   0.003946
     7  C   -0.000794   0.000058   0.000004   0.000000   0.000051  -0.004007
     8  C   -0.042728   0.002042   0.000003  -0.000000   0.000143   0.004325
     9  N    0.393864   0.004512  -0.000195   0.000022  -0.000227  -0.005000
    10  C   -0.067602  -0.086792   0.016931  -0.004083   0.012347  -0.039202
    11  C   -0.003914   0.445947  -0.063389   0.012502  -0.002167   0.006433
    12  C    0.001101  -0.029871   0.445667  -0.059489   0.009724  -0.001601
    13  C    0.000083   0.009767  -0.059687   0.447562  -0.054786   0.005765
    14  C   -0.000213  -0.003145   0.011982  -0.060110   0.436952  -0.035349
    15  C    0.010374   0.006995  -0.004237   0.013427  -0.054617   0.425931
    16  H   -0.004663   0.000104  -0.000002  -0.000000  -0.000004   0.000345
    17  H    0.000248  -0.000005   0.000000  -0.000000  -0.000000  -0.000029
    18  H    0.002246   0.000047  -0.000000  -0.000000   0.000000   0.000003
    19  H    0.000003   0.000000  -0.000000   0.000000   0.000000   0.000013
    20  H   -0.000003   0.000000  -0.000000   0.000000  -0.000000   0.000003
    21  H    0.000020  -0.000000  -0.000000  -0.000000   0.000000  -0.000023
    22  H   -0.000286  -0.000053   0.000004  -0.000006   0.000051  -0.002734
    23  H    0.000551   0.000150  -0.000004  -0.000000   0.000002   0.000550
    24  H    0.000052   0.000004  -0.000000  -0.000000   0.000001   0.000125
    25  H    0.480355   0.004014  -0.000050  -0.000002   0.000017  -0.000390
    26  H    0.004014   0.548333  -0.008607  -0.000119   0.000042  -0.000119
    27  H   -0.000050  -0.008607   0.553692  -0.007027  -0.000170   0.000021
    28  H   -0.000002  -0.000119  -0.007027   0.550737  -0.007095  -0.000084
    29  H    0.000017   0.000042  -0.000170  -0.007095   0.548869  -0.005757
    30  H   -0.000390  -0.000119   0.000021  -0.000084  -0.005757   0.486727
 Mulliken charges:
               1
     1  C   -0.432893
     2  C    0.093846
     3  C   -0.184640
     4  C   -0.108915
     5  C   -0.182268
     6  C   -0.000812
     7  C   -0.335882
     8  C    0.101088
     9  N   -0.284147
    10  C    0.306002
    11  C   -0.321850
    12  C   -0.069644
    13  C   -0.169345
    14  C   -0.085946
    15  C   -0.294485
    16  H    0.154225
    17  H    0.124474
    18  H    0.129372
    19  H    0.105224
    20  H    0.114759
    21  H    0.105795
    22  H    0.141220
    23  H    0.134871
    24  H    0.121258
    25  H    0.226056
    26  H    0.107381
    27  H    0.115061
    28  H    0.113766
    29  H    0.116627
    30  H    0.159800
 Sum of Mulliken charges =  -0.00000
 Mulliken charges with hydrogens summed into heavy atoms:
               1
     1  C   -0.024822
     2  C    0.093846
     3  C   -0.079416
     4  C    0.005844
     5  C   -0.076473
     6  C   -0.000812
     7  C    0.061468
     8  C    0.101088
     9  N   -0.058091
    10  C    0.306002
    11  C   -0.214469
    12  C    0.045417
    13  C   -0.055579
    14  C    0.030682
    15  C   -0.134685
 Electronic spatial extent (au):  <R**2>=           3383.3393
 Charge=              0.0000 electrons
 Dipole moment (field-independent basis, Debye):
    X=              0.6640    Y=              0.7969    Z=             -0.5046  Tot=              1.1534
 Quadrupole moment (field-independent basis, Debye-Ang):
   XX=            -86.7293   YY=            -85.3660   ZZ=            -87.7946
   XY=             -0.3025   XZ=              2.5696   YZ=             -3.7285
 Traceless Quadrupole moment (field-independent basis, Debye-Ang):
   XX=             -0.0993   YY=              1.2639   ZZ=             -1.1646
   XY=             -0.3025   XZ=              2.5696   YZ=             -3.7285
 Octapole moment (field-independent basis, Debye-Ang**2):
  XXX=             -4.7073  YYY=              2.0959  ZZZ=             -6.7124  XYY=             18.7656
  XXY=              1.4590  XXZ=             12.5474  XZZ=             -9.0332  YZZ=              3.7597
  YYZ=             -4.2093  XYZ=             10.6654
 Hexadecapole moment (field-independent basis, Debye-Ang**3):
 XXXX=          -3108.3012 YYYY=           -955.6191 ZZZZ=           -453.4309 XXXY=            -18.7592
 XXXZ=             63.9003 YYYX=             -4.8733 YYYZ=              1.8095 ZZZX=             -7.5370
 ZZZY=            -25.6788 XXYY=           -709.3595 XXZZ=           -622.1654 YYZZ=           -231.2200
 XXYZ=            -25.3111 YYXZ=              8.2822 ZZXY=              9.3232
 N-N= 9.290800172971D+02 E-N=-3.243769620804D+03  KE= 5.938625563882D+02
 Breneman (CHELPG) radii used.
 Read replacement radii for each type of atom:
 Atom Element Radius
    1     6    1.50
    2     6    1.50
    3     6    1.50
    4     6    1.50
    5     6    1.50
    6     6    1.50
    7     6    1.50
    8     6    1.50
    9     7    1.70
   10     6    1.50
   11     6    1.50
   12     6    1.50
   13     6    1.50
   14     6    1.50
   15     6    1.50
   16     1    1.45
   17     1    1.45
   18     1    1.45
   19     1    1.45
   20     1    1.45
   21     1    1.45
   22     1    1.45
   23     1    1.45
   24     1    1.45
   25     1    1.45
   26     1    1.45
   27     1    1.45
   28     1    1.45
   29     1    1.45
   30     1    1.45
 Generate Potential Derived Charges using the Breneman model, NDens= 1.
 Grid spacing= 0.300 Box extension= 2.800
 NStep X,Y,Z=   52     42     35   Total possible points=       76440
 Number of Points to Fit=   18150

 **********************************************************************

            Electrostatic Properties Using The SCF Density.

 **********************************************************************

       Atomic Center    1 is at   1.412566  2.610645  0.063565
       Atomic Center    2 is at   1.894164  1.183952  0.084917
       Atomic Center    3 is at   3.142900  0.850105  0.614574
       Atomic Center    4 is at   3.566953 -0.475058  0.655966
       Atomic Center    5 is at   2.749094 -1.481809  0.151462
       Atomic Center    6 is at   1.502172 -1.186220 -0.407086
       Atomic Center    7 is at   0.635892 -2.269784 -0.987157
       Atomic Center    8 is at   1.078871  0.156782 -0.426485
       Atomic Center    9 is at  -0.179290  0.480007 -0.987790
       Atomic Center   10 is at  -1.397289  0.234928 -0.360798
       Atomic Center   11 is at  -2.590263  0.623023 -0.995876
       Atomic Center   12 is at  -3.821641  0.385978 -0.396373
       Atomic Center   13 is at  -3.900373 -0.251224  0.842963
       Atomic Center   14 is at  -2.720423 -0.635951  1.476159
       Atomic Center   15 is at  -1.478814 -0.393634  0.892140
       Atomic Center   16 is at   0.402957  2.694477  0.494403
       Atomic Center   17 is at   2.086271  3.263644  0.634505
       Atomic Center   18 is at   1.362716  3.010748 -0.963314
       Atomic Center   19 is at   3.783448  1.640987  1.013206
       Atomic Center   20 is at   4.541717 -0.724088  1.080904
       Atomic Center   21 is at   3.088553 -2.520590  0.173133
       Atomic Center   22 is at  -0.215281 -2.501827 -0.326718
       Atomic Center   23 is at   0.207017 -1.951262 -1.948354
       Atomic Center   24 is at   1.209035 -3.194307 -1.140035
       Atomic Center   25 is at  -0.186432  1.252705 -1.640535
       Atomic Center   26 is at  -2.542046  1.110045 -1.973718
       Atomic Center   27 is at  -4.733903  0.699052 -0.909759
       Atomic Center   28 is at  -4.868811 -0.441711  1.308762
       Atomic Center   29 is at  -2.759740 -1.127314  2.451342
       Atomic Center   30 is at  -0.563332 -0.680999  1.412880
   18150 points will be used for fitting atomic charges
 Fitting point charges to electrostatic potential
 Charges from ESP fit, RMS=   0.00369 RRMS=   0.36295:
 ESP charges:
               1
     1  C   -0.044568
     2  C    0.089024
     3  C   -0.258537
     4  C   -0.043530
     5  C   -0.265524
     6  C    0.163223
     7  C   -0.165899
     8  C    0.090078
     9  N   -0.586586
    10  C    0.464084
    11  C   -0.350432
    12  C   -0.000920
    13  C   -0.206167
    14  C   -0.081550
    15  C   -0.181795
    16  H   -0.012495
    17  H    0.045506
    18  H    0.015969
    19  H    0.127056
    20  H    0.096342
    21  H    0.130597
    22  H    0.046715
    23  H    0.032495
    24  H    0.058030
    25  H    0.328617
    26  H    0.130623
    27  H    0.086112
    28  H    0.108663
    29  H    0.102609
    30  H    0.082259
 Sum of ESP charges =  -0.00000
 ESP charges with hydrogens summed into heavy atoms:
               1
     1  C    0.004412
     2  C    0.089024
     3  C   -0.131481
     4  C    0.052812
     5  C   -0.134927
     6  C    0.163223
     7  C   -0.028660
     8  C    0.090078
     9  N   -0.257969
    10  C    0.464084
    11  C   -0.219809
    12  C    0.085192
    13  C   -0.097504
    14  C    0.021059
    15  C   -0.099536
 Charge=  -0.00000 Dipole=     0.7114     0.8091    -0.5105 Tot=     1.1922
 -----------------------------------------------------------------

              Electrostatic Properties (Atomic Units)

 -----------------------------------------------------------------
    Center     Electric         -------- Electric Field --------
               Potential          X             Y             Z
 -----------------------------------------------------------------
    1 Atom    -14.766042
    2 Atom    -14.758917
    3 Atom    -14.773547
    4 Atom    -14.772191
    5 Atom    -14.774507
    6 Atom    -14.761045
    7 Atom    -14.777135
    8 Atom    -14.734585
    9 Atom    -18.368755
   10 Atom    -14.726566
   11 Atom    -14.776045
   12 Atom    -14.772490
   13 Atom    -14.782743
   14 Atom    -14.773432
   15 Atom    -14.779118
   16 Atom     -1.112304
   17 Atom     -1.112945
   18 Atom     -1.108322
   19 Atom     -1.108680
   20 Atom     -1.109045
   21 Atom     -1.110281
   22 Atom     -1.120230
   23 Atom     -1.122388
   24 Atom     -1.121774
   25 Atom     -1.030488
   26 Atom     -1.105736
   27 Atom     -1.111827
   28 Atom     -1.116792
   29 Atom     -1.113591
   30 Atom     -1.111336
 -----------------------------------------------------------------
 Unable to Open any file for archive entry.
 1\1\GINC-NOTCH104\SP\RwB97XD\def2TZVP\C14H15N1\U1366379\17-Feb-2026\0\
 \#N Guess=Read Geom=Check Integral(Ultrafine) Density Pop=(ChelpG,Read
 Radii) NMR wB97XD def2TZVP\\prod_3l_2\\0,1\C,0,-1.5204025158,-2.539046
 1205,0.2407574524\C,0,-1.9481119472,-1.098764278,0.1382974306\C,0,-3.1
 927208185,-0.6784758232,0.6133131228\C,0,-3.5671308555,0.6601988391,0.
 5401209533\C,0,-2.702873774,1.5929033173,-0.0256438948\C,0,-1.45811169
 14,1.20846744,-0.5325367876\C,0,-0.5412124836,2.2098617512,-1.17870958
 85\C,0,-1.0855238454,-0.1461828191,-0.4360212519\N,0,0.1694738978,-0.5
 587747963,-0.9432240842\C,0,1.3843305998,-0.3083317154,-0.3122689429\C
 ,0,2.5730822978,-0.7891111974,-0.8891989753\C,0,3.8014998519,-0.549364
 0818,-0.2847181986\C,0,3.8818280038,0.1821003352,0.9013200659\C,0,2.70
 59958986,0.6589017718,1.4769173145\C,0,1.4668768392,0.4155176657,0.888
 0718652\H,0,-0.5226248433,-2.6244583249,0.6980364578\H,0,-2.2284792773
 ,-3.1192508785,0.8475923881\H,0,-1.4671495497,-3.0219134588,-0.7497221
 89\H,0,-3.8697613759,-1.4110736331,1.0601031645\H,0,-4.5393170213,0.97
 76737595,0.9232873155\H,0,-3.0032174683,2.6416649885,-0.0939055944\H,0
 ,0.3060439544,2.4632777382,-0.5210955769\H,0,-0.1073732791,1.799823211
 4,-2.102258655\H,0,-1.0761945381,3.1392387224,-1.4167427062\H,0,0.1592
 342408,-1.3811775657,-1.5320688505\H,0,2.5241880129,-1.3510710771,-1.8
 259489973\H,0,4.7104195937,-0.9354796481,-0.7522466582\H,0,4.848194067
 3,0.3742394437,1.3707301573\H,0,2.7462100097,1.2252944075,2.4104844541
 \H,0,0.5536380165,0.7767320264,1.3649088091\\Version=ES64L-G16RevC.01\
 State=1-A\HF=-597.2952818\RMSD=5.881e-09\Dipole=-0.2692399,-0.318802,-
 0.1783567\Quadrupole=-0.0244313,1.3978203,-1.3733889,-0.3803901,-1.764
 3318,2.6506418\PG=C01 [X(C14H15N1)]\\@
 The archive entry for this job was punched.


 HE WHO LAUGHS LAST PROBABLY DIDN'T GET THE JOKE.
 Job cpu time:       0 days  1 hours 29 minutes 11.3 seconds.
 Elapsed time:       0 days  0 hours 11 minutes 31.2 seconds.
 File lengths (MBytes):  RWF=    190 Int=      0 D2E=      0 Chk=     29 Scr=      2
 Normal termination of Gaussian 16 at Tue Feb 17 17:01:12 2026.
