 Entering Gaussian System, Link 0=g16
 Input=prod_3f_5.com
 Output=prod_3f_5.log
 Initial command:
 /uufs/chpc.utah.edu/sys/installdir/gaussian16/C01/AVX/g16/l1.exe "/scratch/general/vast/u1366379/GAUSSSCRDIR/11028610-notchpeak.peaks/Gau-76831.inp" -scrdir="/scratch/general/vast/u1366379/GAUSSSCRDIR/11028610-notchpeak.peaks/"
 Entering Link 1 = /uufs/chpc.utah.edu/sys/installdir/gaussian16/C01/AVX/g16/l1.exe PID=     76833.
  
 Copyright (c) 1988-2019, Gaussian, Inc.  All Rights Reserved.
  
 This is part of the Gaussian(R) 16 program.  It is based on
 the Gaussian(R) 09 system (copyright 2009, Gaussian, Inc.),
 the Gaussian(R) 03 system (copyright 2003, Gaussian, Inc.),
 the Gaussian(R) 98 system (copyright 1998, Gaussian, Inc.),
 the Gaussian(R) 94 system (copyright 1995, Gaussian, Inc.),
 the Gaussian 92(TM) system (copyright 1992, Gaussian, Inc.),
 the Gaussian 90(TM) system (copyright 1990, Gaussian, Inc.),
 the Gaussian 88(TM) system (copyright 1988, Gaussian, Inc.),
 the Gaussian 86(TM) system (copyright 1986, Carnegie Mellon
 University), and the Gaussian 82(TM) system (copyright 1983,
 Carnegie Mellon University). Gaussian is a federally registered
 trademark of Gaussian, Inc.
  
 This software contains proprietary and confidential information,
 including trade secrets, belonging to Gaussian, Inc.
  
 This software is provided under written license and may be
 used, copied, transmitted, or stored only in accord with that
 written license.
  
 The following legend is applicable only to US Government
 contracts under FAR:
  
                    RESTRICTED RIGHTS LEGEND
  
 Use, reproduction and disclosure by the US Government is
 subject to restrictions as set forth in subparagraphs (a)
 and (c) of the Commercial Computer Software - Restricted
 Rights clause in FAR 52.227-19.
  
 Gaussian, Inc.
 340 Quinnipiac St., Bldg. 40, Wallingford CT 06492
  
  
 ---------------------------------------------------------------
 Warning -- This program may not be used in any manner that
 competes with the business of Gaussian, Inc. or will provide
 assistance to any competitor of Gaussian, Inc.  The licensee
 of this program is prohibited from giving any competitor of
 Gaussian, Inc. access to this program.  By using this program,
 the user acknowledges that Gaussian, Inc. is engaged in the
 business of creating and licensing software in the field of
 computational chemistry and represents and warrants to the
 licensee that it is not a competitor of Gaussian, Inc. and that
 it will not use this program in any manner prohibited above.
 ---------------------------------------------------------------
  

 Cite this work as:
 Gaussian 16, Revision C.01,
 M. J. Frisch, G. W. Trucks, H. B. Schlegel, G. E. Scuseria, 
 M. A. Robb, J. R. Cheeseman, G. Scalmani, V. Barone, 
 G. A. Petersson, H. Nakatsuji, X. Li, M. Caricato, A. V. Marenich, 
 J. Bloino, B. G. Janesko, R. Gomperts, B. Mennucci, H. P. Hratchian, 
 J. V. Ortiz, A. F. Izmaylov, J. L. Sonnenberg, D. Williams-Young, 
 F. Ding, F. Lipparini, F. Egidi, J. Goings, B. Peng, A. Petrone, 
 T. Henderson, D. Ranasinghe, V. G. Zakrzewski, J. Gao, N. Rega, 
 G. Zheng, W. Liang, M. Hada, M. Ehara, K. Toyota, R. Fukuda, 
 J. Hasegawa, M. Ishida, T. Nakajima, Y. Honda, O. Kitao, H. Nakai, 
 T. Vreven, K. Throssell, J. A. Montgomery, Jr., J. E. Peralta, 
 F. Ogliaro, M. J. Bearpark, J. J. Heyd, E. N. Brothers, K. N. Kudin, 
 V. N. Staroverov, T. A. Keith, R. Kobayashi, J. Normand, 
 K. Raghavachari, A. P. Rendell, J. C. Burant, S. S. Iyengar, 
 J. Tomasi, M. Cossi, J. M. Millam, M. Klene, C. Adamo, R. Cammi, 
 J. W. Ochterski, R. L. Martin, K. Morokuma, O. Farkas, 
 J. B. Foresman, and D. J. Fox, Gaussian, Inc., Wallingford CT, 2019.
 
 ******************************************
 Gaussian 16:  ES64L-G16RevC.01  3-Jul-2019
                17-Feb-2026 
 ******************************************
 %NProcShared=8
 Will use up to    8 processors via shared memory.
 %Mem=8GB
 %chk=prod_3f_5.chk
 ------------------------------------------------------
 #N OPT FREQ=NORAMAN Integral(Ultrafine) wB97XD def2SVP
 ------------------------------------------------------
 1/18=20,19=15,26=4,38=1/1,3;
 2/9=110,12=2,17=6,18=5,40=1/2;
 3/5=43,7=101,11=2,25=1,30=1,71=1,74=-58,75=-5/1,2,3;
 4//1;
 5/5=2,38=5/2;
 6/7=2,8=2,9=2,10=2,28=1/1;
 7//1,2,3,16;
 1/18=20,19=15,26=4/3(2);
 2/9=110/2;
 99//99;
 2/9=110/2;
 3/5=43,7=101,11=2,25=1,30=1,71=1,74=-58,75=-5/1,2,3;
 4/5=5,16=3,69=1/1;
 5/5=2,38=5/2;
 7//1,2,3,16;
 1/18=20,19=15,26=4/3(-5);
 2/9=110/2;
 6/7=2,8=2,9=2,10=2,19=2,28=1/1;
 99/9=1/99;
 ---------
 prod_3f_5
 ---------
 Symbolic Z-matrix:
 Charge =  0 Multiplicity = 1
 C                    -1.43731  -2.46838   0.3124 
 O                    -2.39531  -1.52402   0.74293 
 C                    -2.23245  -0.24362   0.1698 
 C                    -3.32595   0.38561  -0.41308 
 C                    -3.19805   1.61886  -1.01886 
 C                    -1.97418   2.25272  -1.04362 
 C                    -0.87692   1.65848  -0.45298 
 C                    -0.98024   0.41868   0.16072 
 N                     0.1168   -0.14851   0.85661 
 C                     1.46712  -0.16241   0.45948 
 C                     2.46111  -0.51291   1.37279 
 C                     3.78374  -0.54471   0.99261 
 C                     4.14009  -0.23435  -0.30577 
 C                     3.16627   0.10432  -1.22548 
 C                     1.84282   0.13827  -0.84898 
 H                    -1.90502  -3.45289   0.27869 
 H                    -0.60163  -2.49729   1.011 
 H                    -1.07639  -2.20758  -0.68341 
 H                    -4.27465  -0.12059  -0.39413 
 H                    -4.05644   2.08653  -1.47255 
 H                    -1.87631   3.21824  -1.51213 
 H                     0.06869   2.17098  -0.4296 
 H                    -0.09792  -0.5573    1.76254 
 H                     2.17962  -0.75383   2.383 
 H                     4.54301  -0.81275   1.709 
 H                     5.17605  -0.25995  -0.60169 
 H                     3.44316   0.33907  -2.24026 
 H                     1.081     0.37695  -1.56944 
 

 GradGradGradGradGradGradGradGradGradGradGradGradGradGradGradGradGradGrad
 Berny optimization.
 Initialization pass.
                           ----------------------------
                           !    Initial Parameters    !
                           ! (Angstroms and Degrees)  !
 --------------------------                            --------------------------
 ! Name  Definition              Value          Derivative Info.                !
 --------------------------------------------------------------------------------
 ! R1    R(1,2)                  1.4124         estimate D2E/DX2                !
 ! R2    R(1,16)                 1.0905         estimate D2E/DX2                !
 ! R3    R(1,17)                 1.0896         estimate D2E/DX2                !
 ! R4    R(1,18)                 1.0908         estimate D2E/DX2                !
 ! R5    R(2,3)                  1.4122         estimate D2E/DX2                !
 ! R6    R(3,4)                  1.3898         estimate D2E/DX2                !
 ! R7    R(3,8)                  1.4166         estimate D2E/DX2                !
 ! R8    R(4,5)                  1.3799         estimate D2E/DX2                !
 ! R9    R(4,19)                 1.0755         estimate D2E/DX2                !
 ! R10   R(5,6)                  1.3785         estimate D2E/DX2                !
 ! R11   R(5,20)                 1.0777         estimate D2E/DX2                !
 ! R12   R(6,7)                  1.3806         estimate D2E/DX2                !
 ! R13   R(6,21)                 1.0776         estimate D2E/DX2                !
 ! R14   R(7,8)                  1.3872         estimate D2E/DX2                !
 ! R15   R(7,22)                 1.0758         estimate D2E/DX2                !
 ! R16   R(8,9)                  1.4176         estimate D2E/DX2                !
 ! R17   R(9,10)                 1.4076         estimate D2E/DX2                !
 ! R18   R(9,23)                 1.0168         estimate D2E/DX2                !
 ! R19   R(10,11)                1.3946         estimate D2E/DX2                !
 ! R20   R(10,15)                1.3941         estimate D2E/DX2                !
 ! R21   R(11,12)                1.3766         estimate D2E/DX2                !
 ! R22   R(11,24)                1.076          estimate D2E/DX2                !
 ! R23   R(12,13)                1.3817         estimate D2E/DX2                !
 ! R24   R(12,25)                1.0778         estimate D2E/DX2                !
 ! R25   R(13,14)                1.3816         estimate D2E/DX2                !
 ! R26   R(13,26)                1.0777         estimate D2E/DX2                !
 ! R27   R(14,15)                1.3764         estimate D2E/DX2                !
 ! R28   R(14,27)                1.0778         estimate D2E/DX2                !
 ! R29   R(15,28)                1.0754         estimate D2E/DX2                !
 ! A1    A(2,1,16)             108.7929         estimate D2E/DX2                !
 ! A2    A(2,1,17)             110.0298         estimate D2E/DX2                !
 ! A3    A(2,1,18)             110.0492         estimate D2E/DX2                !
 ! A4    A(16,1,17)            108.9544         estimate D2E/DX2                !
 ! A5    A(16,1,18)            109.2408         estimate D2E/DX2                !
 ! A6    A(17,1,18)            109.7479         estimate D2E/DX2                !
 ! A7    A(1,2,3)              113.8454         estimate D2E/DX2                !
 ! A8    A(2,3,4)              119.3384         estimate D2E/DX2                !
 ! A9    A(2,3,8)              121.8988         estimate D2E/DX2                !
 ! A10   A(4,3,8)              118.7608         estimate D2E/DX2                !
 ! A11   A(3,4,5)              121.0525         estimate D2E/DX2                !
 ! A12   A(3,4,19)             118.2674         estimate D2E/DX2                !
 ! A13   A(5,4,19)             120.6732         estimate D2E/DX2                !
 ! A14   A(4,5,6)              120.0738         estimate D2E/DX2                !
 ! A15   A(4,5,20)             119.9217         estimate D2E/DX2                !
 ! A16   A(6,5,20)             120.0046         estimate D2E/DX2                !
 ! A17   A(5,6,7)              120.0022         estimate D2E/DX2                !
 ! A18   A(5,6,21)             120.0278         estimate D2E/DX2                !
 ! A19   A(7,6,21)             119.9647         estimate D2E/DX2                !
 ! A20   A(6,7,8)              120.9814         estimate D2E/DX2                !
 ! A21   A(6,7,22)             120.1884         estimate D2E/DX2                !
 ! A22   A(8,7,22)             118.7903         estimate D2E/DX2                !
 ! A23   A(3,8,7)              119.1116         estimate D2E/DX2                !
 ! A24   A(3,8,9)              119.5956         estimate D2E/DX2                !
 ! A25   A(7,8,9)              121.1399         estimate D2E/DX2                !
 ! A26   A(8,9,10)             127.4352         estimate D2E/DX2                !
 ! A27   A(8,9,23)             115.7731         estimate D2E/DX2                !
 ! A28   A(10,9,23)            116.7422         estimate D2E/DX2                !
 ! A29   A(9,10,11)            120.096          estimate D2E/DX2                !
 ! A30   A(9,10,15)            121.4122         estimate D2E/DX2                !
 ! A31   A(11,10,15)           118.4742         estimate D2E/DX2                !
 ! A32   A(10,11,12)           120.647          estimate D2E/DX2                !
 ! A33   A(10,11,24)           118.9892         estimate D2E/DX2                !
 ! A34   A(12,11,24)           120.3631         estimate D2E/DX2                !
 ! A35   A(11,12,13)           120.1419         estimate D2E/DX2                !
 ! A36   A(11,12,25)           119.9379         estimate D2E/DX2                !
 ! A37   A(13,12,25)           119.9202         estimate D2E/DX2                !
 ! A38   A(12,13,14)           119.9212         estimate D2E/DX2                !
 ! A39   A(12,13,26)           120.0403         estimate D2E/DX2                !
 ! A40   A(14,13,26)           120.0382         estimate D2E/DX2                !
 ! A41   A(13,14,15)           120.1117         estimate D2E/DX2                !
 ! A42   A(13,14,27)           119.9395         estimate D2E/DX2                !
 ! A43   A(15,14,27)           119.9485         estimate D2E/DX2                !
 ! A44   A(10,15,14)           120.6994         estimate D2E/DX2                !
 ! A45   A(10,15,28)           119.0619         estimate D2E/DX2                !
 ! A46   A(14,15,28)           120.225          estimate D2E/DX2                !
 ! D1    D(16,1,2,3)          -146.8825         estimate D2E/DX2                !
 ! D2    D(17,1,2,3)            93.8262         estimate D2E/DX2                !
 ! D3    D(18,1,2,3)           -27.23           estimate D2E/DX2                !
 ! D4    D(1,2,3,4)            129.8095         estimate D2E/DX2                !
 ! D5    D(1,2,3,8)            -49.6709         estimate D2E/DX2                !
 ! D6    D(2,3,4,5)           -178.028          estimate D2E/DX2                !
 ! D7    D(2,3,4,19)             1.0282         estimate D2E/DX2                !
 ! D8    D(8,3,4,5)              1.4688         estimate D2E/DX2                !
 ! D9    D(8,3,4,19)          -179.4751         estimate D2E/DX2                !
 ! D10   D(2,3,8,7)            178.1114         estimate D2E/DX2                !
 ! D11   D(2,3,8,9)             -6.3292         estimate D2E/DX2                !
 ! D12   D(4,3,8,7)             -1.3719         estimate D2E/DX2                !
 ! D13   D(4,3,8,9)            174.1875         estimate D2E/DX2                !
 ! D14   D(3,4,5,6)             -0.5408         estimate D2E/DX2                !
 ! D15   D(3,4,5,20)           179.4834         estimate D2E/DX2                !
 ! D16   D(19,4,5,6)          -179.5743         estimate D2E/DX2                !
 ! D17   D(19,4,5,20)            0.4499         estimate D2E/DX2                !
 ! D18   D(4,5,6,7)             -0.4974         estimate D2E/DX2                !
 ! D19   D(4,5,6,21)          -179.6633         estimate D2E/DX2                !
 ! D20   D(20,5,6,7)           179.4783         estimate D2E/DX2                !
 ! D21   D(20,5,6,21)            0.3125         estimate D2E/DX2                !
 ! D22   D(5,6,7,8)              0.5721         estimate D2E/DX2                !
 ! D23   D(5,6,7,22)          -177.0995         estimate D2E/DX2                !
 ! D24   D(21,6,7,8)           179.7385         estimate D2E/DX2                !
 ! D25   D(21,6,7,22)            2.0669         estimate D2E/DX2                !
 ! D26   D(6,7,8,3)              0.3719         estimate D2E/DX2                !
 ! D27   D(6,7,8,9)           -175.1166         estimate D2E/DX2                !
 ! D28   D(22,7,8,3)           178.0755         estimate D2E/DX2                !
 ! D29   D(22,7,8,9)             2.587          estimate D2E/DX2                !
 ! D30   D(3,8,9,10)           142.1219         estimate D2E/DX2                !
 ! D31   D(3,8,9,23)           -40.5393         estimate D2E/DX2                !
 ! D32   D(7,8,9,10)           -42.4111         estimate D2E/DX2                !
 ! D33   D(7,8,9,23)           134.9277         estimate D2E/DX2                !
 ! D34   D(8,9,10,11)          166.7854         estimate D2E/DX2                !
 ! D35   D(8,9,10,15)          -14.7636         estimate D2E/DX2                !
 ! D36   D(23,9,10,11)         -10.5311         estimate D2E/DX2                !
 ! D37   D(23,9,10,15)         167.9199         estimate D2E/DX2                !
 ! D38   D(9,10,11,12)         179.2719         estimate D2E/DX2                !
 ! D39   D(9,10,11,24)          -1.0462         estimate D2E/DX2                !
 ! D40   D(15,10,11,12)          0.7758         estimate D2E/DX2                !
 ! D41   D(15,10,11,24)       -179.5423         estimate D2E/DX2                !
 ! D42   D(9,10,15,14)        -179.2008         estimate D2E/DX2                !
 ! D43   D(9,10,15,28)          -0.5462         estimate D2E/DX2                !
 ! D44   D(11,10,15,14)         -0.7254         estimate D2E/DX2                !
 ! D45   D(11,10,15,28)        177.9292         estimate D2E/DX2                !
 ! D46   D(10,11,12,13)         -0.3148         estimate D2E/DX2                !
 ! D47   D(10,11,12,25)        179.7173         estimate D2E/DX2                !
 ! D48   D(24,11,12,13)       -179.9922         estimate D2E/DX2                !
 ! D49   D(24,11,12,25)          0.0398         estimate D2E/DX2                !
 ! D50   D(11,12,13,14)         -0.2141         estimate D2E/DX2                !
 ! D51   D(11,12,13,26)       -179.9884         estimate D2E/DX2                !
 ! D52   D(25,12,13,14)        179.7539         estimate D2E/DX2                !
 ! D53   D(25,12,13,26)         -0.0204         estimate D2E/DX2                !
 ! D54   D(12,13,14,15)          0.2646         estimate D2E/DX2                !
 ! D55   D(12,13,14,27)       -179.5291         estimate D2E/DX2                !
 ! D56   D(26,13,14,15)       -179.961          estimate D2E/DX2                !
 ! D57   D(26,13,14,27)          0.2452         estimate D2E/DX2                !
 ! D58   D(13,14,15,10)          0.2134         estimate D2E/DX2                !
 ! D59   D(13,14,15,28)       -178.4255         estimate D2E/DX2                !
 ! D60   D(27,14,15,10)       -179.9928         estimate D2E/DX2                !
 ! D61   D(27,14,15,28)          1.3682         estimate D2E/DX2                !
 --------------------------------------------------------------------------------
 Trust Radius=3.00D-01 FncErr=1.00D-07 GrdErr=1.00D-06 EigMax=2.50D+02 EigMin=1.00D-04
 Number of steps in this run=    146 maximum allowed number of steps=    168.
 GradGradGradGradGradGradGradGradGradGradGradGradGradGradGradGradGradGrad

                          Input orientation:                          
 ---------------------------------------------------------------------
 Center     Atomic      Atomic             Coordinates (Angstroms)
 Number     Number       Type             X           Y           Z
 ---------------------------------------------------------------------
      1          6           0       -1.437310   -2.468380    0.312400
      2          8           0       -2.395310   -1.524020    0.742930
      3          6           0       -2.232450   -0.243620    0.169800
      4          6           0       -3.325950    0.385610   -0.413080
      5          6           0       -3.198050    1.618860   -1.018860
      6          6           0       -1.974180    2.252720   -1.043620
      7          6           0       -0.876920    1.658480   -0.452980
      8          6           0       -0.980240    0.418680    0.160720
      9          7           0        0.116800   -0.148510    0.856610
     10          6           0        1.467120   -0.162410    0.459480
     11          6           0        2.461110   -0.512910    1.372790
     12          6           0        3.783740   -0.544710    0.992610
     13          6           0        4.140090   -0.234350   -0.305770
     14          6           0        3.166270    0.104320   -1.225480
     15          6           0        1.842820    0.138270   -0.848980
     16          1           0       -1.905020   -3.452890    0.278690
     17          1           0       -0.601630   -2.497290    1.011000
     18          1           0       -1.076390   -2.207580   -0.683410
     19          1           0       -4.274650   -0.120590   -0.394130
     20          1           0       -4.056440    2.086530   -1.472550
     21          1           0       -1.876310    3.218240   -1.512130
     22          1           0        0.068690    2.170980   -0.429600
     23          1           0       -0.097920   -0.557300    1.762540
     24          1           0        2.179620   -0.753830    2.383000
     25          1           0        4.543010   -0.812750    1.709000
     26          1           0        5.176050   -0.259950   -0.601690
     27          1           0        3.443160    0.339070   -2.240260
     28          1           0        1.081000    0.376950   -1.569440
 ---------------------------------------------------------------------
                    Distance matrix (angstroms):
                    1          2          3          4          5
     1  C    0.000000
     2  O    1.412422   0.000000
     3  C    2.366884   1.412241   0.000000
     4  C    3.498363   2.418499   1.389756   0.000000
     5  C    4.645211   3.691340   2.411250   1.379940   0.000000
     6  C    4.941235   4.199152   2.787616   2.389762   1.378495
     7  C    4.234480   3.723441   2.417292   2.760351   2.389442
     8  C    2.926950   2.472949   1.416599   2.415097   2.783976
     9  N    2.844858   2.866295   2.449435   3.708089   4.198716
    10  C    3.711448   4.105203   3.711782   4.902571   5.207900
    11  C    4.488426   5.000388   4.852753   6.122641   6.503117
    12  C    5.605582   6.261154   6.079656   7.306788   7.581058
    13  C    6.039902   6.743476   6.390268   7.492504   7.602051
    14  C    5.493342   6.120237   5.586953   6.548896   6.545311
    15  C    4.347721   4.822772   4.218006   5.193012   5.256556
    16  H    1.090481   2.043635   3.227767   4.151105   5.392422
    17  H    1.089605   2.058253   2.906238   4.214384   5.272990
    18  H    1.090833   2.059430   2.433430   3.443578   4.388122
    19  H    3.749907   2.606615   2.122200   1.075467   2.138935
    20  H    5.549153   4.550140   3.384354   2.132890   1.077675
    21  H    5.988262   5.276712   3.865255   3.366476   2.132681
    22  H    4.933788   4.593381   3.388926   3.835544   3.365064
    23  H    2.747562   2.692982   2.681685   4.005319   4.699220
    24  H    4.506578   4.920671   4.962351   6.279147   6.791292
    25  H    6.360490   7.041270   6.971363   8.237707   8.560255
    26  H    7.032016   7.793033   7.448579   8.528559   8.592410
    27  H    6.181977   6.816030   6.193583   7.011534   6.872798
    28  H    4.240178   4.587535   3.793285   4.556144   4.489515
                    6          7          8          9         10
     6  C    0.000000
     7  C    1.380564   0.000000
     8  C    2.408745   1.387230   0.000000
     9  N    3.707961   2.442891   1.417556   0.000000
    10  C    4.464830   3.105277   2.533080   1.407576   0.000000
    11  C    5.758432   4.380732   3.765616   2.427966   1.394633
    12  C    6.717551   5.354020   4.931092   3.690788   2.407719
    13  C    6.641855   5.364221   5.182841   4.188718   2.781286
    14  C    5.574309   4.399949   4.383368   3.701120   2.407768
    15  C    4.367868   3.140834   3.011277   2.443445   1.394140
    16  H    5.857241   5.264830   3.982234   3.916717   4.715005
    17  H    5.354246   4.414685   3.060915   2.461046   3.167896
    18  H    4.563995   3.878054   2.760261   2.834631   3.458086
    19  H    3.368471   3.835769   3.384052   4.566176   5.805026
    20  H    2.132465   3.366318   3.861645   5.276014   6.268986
    21  H    1.077640   2.133877   3.382145   4.573666   5.147287
    22  H    2.134718   1.075817   2.125862   2.652675   2.861954
    23  H    4.392163   3.228785   2.072885   1.016820   2.074429
    24  H    6.167262   4.817101   4.037081   2.636571   2.134798
    25  H    7.710239   6.336937   5.866846   4.556218   3.383096
    26  H    7.591746   6.351451   6.240330   5.266409   3.858984
    27  H    5.868695   4.857809   5.033638   4.570887   3.383018
    28  H    3.623413   2.592731   2.691450   2.662989   2.134599
                   11         12         13         14         15
    11  C    0.000000
    12  C    1.376553   0.000000
    13  C    2.390425   1.381702   0.000000
    14  C    2.762106   2.392161   1.381626   0.000000
    15  C    2.396368   2.761356   2.389848   1.376381   0.000000
    16  H    5.376209   6.428778   6.873423   6.374500   5.311720
    17  H    3.667292   4.800456   5.416520   5.095811   4.047349
    18  H    4.428744   5.403244   5.589983   4.861984   3.748628
    19  H    6.974696   8.187831   8.415973   7.490595   6.139816
    20  H    7.571757   8.629534   8.598312   7.493847   6.243863
    21  H    6.407609   7.243596   7.040792   5.933488   4.874209
    22  H    4.021884   4.816560   4.730459   3.807822   2.730444
    23  H    2.588921   3.957301   4.726831   4.474477   3.327210
    24  H    1.076013   2.133100   3.367905   3.838102   3.369714
    25  H    2.130082   1.077753   2.134523   3.368620   3.839105
    26  H    3.366520   2.135745   1.077700   2.135655   3.366029
    27  H    3.839847   3.368755   2.134660   1.077754   2.130040
    28  H    3.369462   3.836452   3.365796   2.130959   1.075361
                   16         17         18         19         20
    16  H    0.000000
    17  H    1.774338   0.000000
    18  H    1.778500   1.783355   0.000000
    19  H    4.143918   4.595016   3.829893   0.000000
    20  H    6.195210   6.254210   5.286097   2.466168   0.000000
    21  H    6.907375   6.376384   5.546726   4.260252   2.456685
    22  H    6.002093   4.931268   4.532926   4.910922   4.255769
    23  H    3.721809   2.140583   3.108617   4.720912   5.755478
    24  H    5.328914   3.557722   4.702963   7.054860   7.862656
    25  H    7.112891   5.458223   6.264729   9.091390   9.616581
    26  H    7.817384   6.402191   6.549271   9.454006   9.565732
    27  H    7.023325   5.914047   5.416229   7.948841   7.738669
    28  H    5.196111   4.213214   3.481261   5.505623   5.415288
                   21         22         23         24         25
    21  H    0.000000
    22  H    2.460010   0.000000
    23  H    5.304794   3.503819   0.000000
    24  H    6.884762   4.573976   2.368709   0.000000
    25  H    8.236032   5.787555   4.648263   2.458325   0.000000
    26  H    7.915964   5.658989   5.787293   4.258038   2.458783
    27  H    6.092336   4.245166   5.418961   4.915841   4.258288
    28  H    4.101450   2.354262   3.655785   4.255280   4.914170
                   26         27         28
    26  H    0.000000
    27  H    2.458993   0.000000
    28  H    4.255774   2.455857   0.000000
 Stoichiometry    C13H13NO
 Framework group  C1[X(C13H13NO)]
 Deg. of freedom    78
 Full point group                 C1      NOp   1
 Largest Abelian subgroup         C1      NOp   1
 Largest concise Abelian subgroup C1      NOp   1
                         Standard orientation:                         
 ---------------------------------------------------------------------
 Center     Atomic      Atomic             Coordinates (Angstroms)
 Number     Number       Type             X           Y           Z
 ---------------------------------------------------------------------
      1          6           0       -1.125095    2.487178    0.887005
      2          8           0       -2.149030    2.006622    0.041097
      3          6           0       -2.181378    0.599418   -0.073603
      4          6           0       -3.383008   -0.071960    0.118121
      5          6           0       -3.447088   -1.448933    0.054319
      6          6           0       -2.310695   -2.181658   -0.213963
      7          6           0       -1.108782   -1.537471   -0.429335
      8          6           0       -1.018981   -0.154467   -0.368975
      9          7           0        0.187893    0.516461   -0.689559
     10          6           0        1.495118    0.150688   -0.317212
     11          6           0        2.592030    0.751617   -0.934198
     12          6           0        3.875251    0.413326   -0.568410
     13          6           0        4.089576   -0.524857    0.423042
     14          6           0        3.013501   -1.121386    1.051615
     15          6           0        1.728928   -0.786601    0.687999
     16          1           0       -1.476794    3.390790    1.385947
     17          1           0       -0.239144    2.728734    0.300507
     18          1           0       -0.876605    1.735641    1.637580
     19          1           0       -4.262198    0.508798    0.333473
     20          1           0       -4.387011   -1.951317    0.214128
     21          1           0       -2.362649   -3.256638   -0.268986
     22          1           0       -0.230039   -2.103080   -0.684830
     23          1           0        0.094204    1.333167   -1.288004
     24          1           0        2.421019    1.481681   -1.705927
     25          1           0        4.714655    0.881558   -1.055966
     26          1           0        5.094896   -0.788339    0.708256
     27          1           0        3.180310   -1.847632    1.830264
     28          1           0        0.890079   -1.230937    1.193269
 ---------------------------------------------------------------------
 Rotational constants (GHZ):           1.2083567           0.3780436           0.3144259
 Standard basis: def2SVP (5D, 7F)
 There are   290 symmetry adapted cartesian basis functions of A   symmetry.
 There are   275 symmetry adapted basis functions of A   symmetry.
   275 basis functions,   466 primitive gaussians,   290 cartesian basis functions
    53 alpha electrons       53 beta electrons
       nuclear repulsion energy       927.5176488561 Hartrees.
 NAtoms=   28 NActive=   28 NUniq=   28 SFac= 1.00D+00 NAtFMM=   60 NAOKFM=F Big=F
 Integral buffers will be    131072 words long.
 Raffenetti 2 integral format.
 Two-electron integral symmetry is turned on.
 Nuclear repulsion after empirical dispersion term =      927.4995824656 Hartrees.
 One-electron integrals computed using PRISM.
   1 Symmetry operations used in ECPInt.
 ECPInt:  NShTT=    8385 NPrTT=   30369 LenC2=    7966 LenP2D=   21102.
 LDataN:  DoStor=T MaxTD1= 4 Len=   56
 NBasis=   275 RedAO= T EigKep=  1.99D-04  NBF=   275
 NBsUse=   275 1.00D-06 EigRej= -1.00D+00 NBFU=   275
 ExpMin= 1.22D-01 ExpMax= 2.27D+03 ExpMxC= 3.41D+02 IAcc=3 IRadAn=         5 AccDes= 0.00D+00
 Harris functional with IExCor= 4639 and IRadAn=       5 diagonalized for initial guess.
 HarFok:  IExCor= 4639 AccDes= 0.00D+00 IRadAn=         5 IDoV= 1 UseB2=F ITyADJ=14
 ICtDFT=  3500011 ScaDFX=  1.000000  1.000000  1.000000  1.000000
 FoFCou: FMM=F IPFlag=           0 FMFlag=      100000 FMFlg1=           0
         NFxFlg=           0 DoJE=T BraDBF=F KetDBF=T FulRan=T
         wScrn=  0.000000 ICntrl=       500 IOpCl=  0 I1Cent=   200000004 NGrid=           0
         NMat0=    1 NMatS0=      1 NMatT0=    0 NMatD0=    1 NMtDS0=    0 NMtDT0=    0
 Petite list used in FoFCou.
 Requested convergence on RMS density matrix=1.00D-08 within 128 cycles.
 Requested convergence on MAX density matrix=1.00D-06.
 Requested convergence on             energy=1.00D-06.
 No special actions if energy rises.
 Integral accuracy reduced to 1.0D-05 until final iterations.
 Initial convergence to 1.0D-05 achieved.  Increase integral accuracy.
 SCF Done:  E(RwB97XD) =  -632.502502572     A.U. after   15 cycles
            NFock= 15  Conv=0.88D-08     -V/T= 2.0103

 **********************************************************************

            Population analysis using the SCF Density.

 **********************************************************************

 Orbital symmetries:
       Occupied  (A) (A) (A) (A) (A) (A) (A) (A) (A) (A) (A) (A)
                 (A) (A) (A) (A) (A) (A) (A) (A) (A) (A) (A) (A)
                 (A) (A) (A) (A) (A) (A) (A) (A) (A) (A) (A) (A)
                 (A) (A) (A) (A) (A) (A) (A) (A) (A) (A) (A) (A)
                 (A) (A) (A) (A) (A)
       Virtual   (A) (A) (A) (A) (A) (A) (A) (A) (A) (A) (A) (A)
                 (A) (A) (A) (A) (A) (A) (A) (A) (A) (A) (A) (A)
                 (A) (A) (A) (A) (A) (A) (A) (A) (A) (A) (A) (A)
                 (A) (A) (A) (A) (A) (A) (A) (A) (A) (A) (A) (A)
                 (A) (A) (A) (A) (A) (A) (A) (A) (A) (A) (A) (A)
                 (A) (A) (A) (A) (A) (A) (A) (A) (A) (A) (A) (A)
                 (A) (A) (A) (A) (A) (A) (A) (A) (A) (A) (A) (A)
                 (A) (A) (A) (A) (A) (A) (A) (A) (A) (A) (A) (A)
                 (A) (A) (A) (A) (A) (A) (A) (A) (A) (A) (A) (A)
                 (A) (A) (A) (A) (A) (A) (A) (A) (A) (A) (A) (A)
                 (A) (A) (A) (A) (A) (A) (A) (A) (A) (A) (A) (A)
                 (A) (A) (A) (A) (A) (A) (A) (A) (A) (A) (A) (A)
                 (A) (A) (A) (A) (A) (A) (A) (A) (A) (A) (A) (A)
                 (A) (A) (A) (A) (A) (A) (A) (A) (A) (A) (A) (A)
                 (A) (A) (A) (A) (A) (A) (A) (A) (A) (A) (A) (A)
                 (A) (A) (A) (A) (A) (A) (A) (A) (A) (A) (A) (A)
                 (A) (A) (A) (A) (A) (A) (A) (A) (A) (A) (A) (A)
                 (A) (A) (A) (A) (A) (A) (A) (A) (A) (A) (A) (A)
                 (A) (A) (A) (A) (A) (A)
 The electronic state is 1-A.
 Alpha  occ. eigenvalues --  -19.27786 -14.46937 -10.35908 -10.34650 -10.34637
 Alpha  occ. eigenvalues --  -10.34219 -10.30063 -10.29969 -10.29892 -10.29867
 Alpha  occ. eigenvalues --  -10.29811 -10.29801 -10.29551 -10.29196 -10.28781
 Alpha  occ. eigenvalues --   -1.14130  -1.03933  -0.95886  -0.93979  -0.85447
 Alpha  occ. eigenvalues --   -0.84977  -0.84227  -0.81493  -0.77540  -0.71846
 Alpha  occ. eigenvalues --   -0.71413  -0.68977  -0.67641  -0.62964  -0.62504
 Alpha  occ. eigenvalues --   -0.59604  -0.57785  -0.56702  -0.55230  -0.54952
 Alpha  occ. eigenvalues --   -0.53087  -0.52458  -0.51868  -0.51565  -0.50983
 Alpha  occ. eigenvalues --   -0.48564  -0.46710  -0.45751  -0.45116  -0.43983
 Alpha  occ. eigenvalues --   -0.42830  -0.42501  -0.40432  -0.37612  -0.33959
 Alpha  occ. eigenvalues --   -0.33549  -0.31588  -0.26964
 Alpha virt. eigenvalues --    0.05124   0.06073   0.06686   0.09053   0.13155
 Alpha virt. eigenvalues --    0.14641   0.15474   0.16979   0.18917   0.19482
 Alpha virt. eigenvalues --    0.20072   0.20539   0.21717   0.22115   0.23464
 Alpha virt. eigenvalues --    0.23871   0.24139   0.24500   0.25451   0.26388
 Alpha virt. eigenvalues --    0.28867   0.32950   0.34285   0.35854   0.37733
 Alpha virt. eigenvalues --    0.37908   0.38244   0.39850   0.40223   0.40402
 Alpha virt. eigenvalues --    0.42664   0.44476   0.45109   0.47166   0.48618
 Alpha virt. eigenvalues --    0.48966   0.49680   0.51550   0.52838   0.53619
 Alpha virt. eigenvalues --    0.54384   0.54829   0.55948   0.56931   0.57064
 Alpha virt. eigenvalues --    0.58141   0.58654   0.59187   0.59777   0.61310
 Alpha virt. eigenvalues --    0.61837   0.63208   0.63884   0.65133   0.65559
 Alpha virt. eigenvalues --    0.66805   0.68790   0.69777   0.70314   0.72036
 Alpha virt. eigenvalues --    0.72857   0.73680   0.74270   0.74667   0.75295
 Alpha virt. eigenvalues --    0.75668   0.76075   0.77114   0.78379   0.79006
 Alpha virt. eigenvalues --    0.79722   0.80012   0.80721   0.81487   0.82375
 Alpha virt. eigenvalues --    0.82912   0.83143   0.83973   0.84299   0.85820
 Alpha virt. eigenvalues --    0.87078   0.88866   0.89926   0.91730   0.93411
 Alpha virt. eigenvalues --    0.94654   0.96105   0.99036   1.01697   1.03314
 Alpha virt. eigenvalues --    1.04778   1.05457   1.10330   1.13425   1.15334
 Alpha virt. eigenvalues --    1.17340   1.19760   1.20430   1.25560   1.27506
 Alpha virt. eigenvalues --    1.29909   1.30632   1.31515   1.32597   1.33320
 Alpha virt. eigenvalues --    1.33867   1.34805   1.37619   1.37808   1.39106
 Alpha virt. eigenvalues --    1.40020   1.40386   1.41485   1.43838   1.48645
 Alpha virt. eigenvalues --    1.52527   1.54997   1.58152   1.60858   1.61691
 Alpha virt. eigenvalues --    1.66162   1.73196   1.73894   1.75178   1.75900
 Alpha virt. eigenvalues --    1.77306   1.78061   1.79237   1.79694   1.80932
 Alpha virt. eigenvalues --    1.82670   1.83420   1.83653   1.84794   1.84920
 Alpha virt. eigenvalues --    1.85911   1.86359   1.86961   1.87371   1.88614
 Alpha virt. eigenvalues --    1.89066   1.89420   1.90967   1.91734   1.93178
 Alpha virt. eigenvalues --    1.96044   1.96367   1.97557   2.00495   2.02165
 Alpha virt. eigenvalues --    2.03276   2.04347   2.04757   2.06847   2.08171
 Alpha virt. eigenvalues --    2.09253   2.10817   2.11864   2.13721   2.17660
 Alpha virt. eigenvalues --    2.18521   2.20472   2.21464   2.23449   2.24204
 Alpha virt. eigenvalues --    2.24517   2.26225   2.26479   2.28488   2.29964
 Alpha virt. eigenvalues --    2.31827   2.34503   2.36291   2.37846   2.38793
 Alpha virt. eigenvalues --    2.40667   2.41120   2.42331   2.43919   2.45418
 Alpha virt. eigenvalues --    2.45889   2.48026   2.48660   2.50854   2.56399
 Alpha virt. eigenvalues --    2.59866   2.63221   2.66830   2.70288   2.71428
 Alpha virt. eigenvalues --    2.73258   2.73740   2.75275   2.77582   2.79135
 Alpha virt. eigenvalues --    2.81513   2.84185   2.84825   2.85198   2.86479
 Alpha virt. eigenvalues --    2.91944   2.92913   2.95056   2.98183   3.00136
 Alpha virt. eigenvalues --    3.00949   3.02837   3.05234   3.08749   3.12438
 Alpha virt. eigenvalues --    3.14115   3.16101   3.22313   3.23854   3.28359
 Alpha virt. eigenvalues --    3.31122   3.35175   3.46058   3.54986   3.58453
 Alpha virt. eigenvalues --    3.80042   3.81295
          Condensed to atoms (all electrons):
               1          2          3          4          5          6
     1  C    4.413358   0.296394  -0.062674  -0.000490   0.000080   0.000023
     2  O    0.296394   7.939881   0.391964  -0.061206   0.005273  -0.000398
     3  C   -0.062674   0.391964   5.177173   0.312032   0.116365  -0.172068
     4  C   -0.000490  -0.061206   0.312032   5.126498   0.237337   0.105761
     5  C    0.000080   0.005273   0.116365   0.237337   5.137850   0.249240
     6  C    0.000023  -0.000398  -0.172068   0.105761   0.249240   5.106710
     7  C    0.000300   0.005475   0.107656  -0.129484   0.089446   0.257270
     8  C   -0.009074  -0.093312   0.100797   0.067450  -0.163202   0.132546
     9  N    0.003316  -0.007192  -0.092655   0.007626  -0.000304   0.008013
    10  C   -0.000383  -0.000370   0.005775  -0.000357   0.000058   0.000123
    11  C   -0.000180   0.000001  -0.000054  -0.000007   0.000001  -0.000005
    12  C   -0.000019  -0.000000  -0.000006   0.000000  -0.000000   0.000000
    13  C    0.000004  -0.000000   0.000000  -0.000000   0.000000   0.000000
    14  C   -0.000013   0.000000  -0.000022   0.000001   0.000000   0.000000
    15  C   -0.000458  -0.000011   0.000141   0.000065  -0.000025  -0.000672
    16  H    0.398500  -0.023840   0.004374   0.000527   0.000001  -0.000008
    17  H    0.402239  -0.038312  -0.009896  -0.000877   0.000067   0.000019
    18  H    0.399653  -0.031116   0.000422   0.002965  -0.000552  -0.000010
    19  H   -0.000568   0.000966  -0.068695   0.451051  -0.080177   0.015722
    20  H    0.000005  -0.000074   0.015772  -0.070636   0.458041  -0.073495
    21  H    0.000001   0.000004  -0.001964   0.014253  -0.073022   0.455181
    22  H   -0.000005  -0.000051   0.016999  -0.002969   0.015517  -0.071188
    23  H   -0.002847   0.010142  -0.009334   0.000698  -0.000096  -0.000003
    24  H    0.000008  -0.000023   0.000023  -0.000002   0.000000  -0.000001
    25  H   -0.000000   0.000000  -0.000000   0.000000  -0.000000  -0.000000
    26  H    0.000000   0.000000   0.000000  -0.000000  -0.000000  -0.000000
    27  H   -0.000001  -0.000000   0.000001  -0.000000   0.000000  -0.000002
    28  H    0.000050  -0.000001  -0.000539  -0.000058  -0.000064   0.000673
               7          8          9         10         11         12
     1  C    0.000300  -0.009074   0.003316  -0.000383  -0.000180  -0.000019
     2  O    0.005475  -0.093312  -0.007192  -0.000370   0.000001  -0.000000
     3  C    0.107656   0.100797  -0.092655   0.005775  -0.000054  -0.000006
     4  C   -0.129484   0.067450   0.007626  -0.000357  -0.000007   0.000000
     5  C    0.089446  -0.163202  -0.000304   0.000058   0.000001  -0.000000
     6  C    0.257270   0.132546   0.008013   0.000123  -0.000005   0.000000
     7  C    5.145878   0.237970  -0.067931  -0.012441  -0.000092   0.000040
     8  C    0.237970   5.410409   0.332323  -0.035880   0.008733  -0.000357
     9  N   -0.067931   0.332323   6.476460   0.369575  -0.093435   0.007281
    10  C   -0.012441  -0.035880   0.369575   5.072613   0.263893   0.120111
    11  C   -0.000092   0.008733  -0.093435   0.263893   5.199083   0.301609
    12  C    0.000040  -0.000357   0.007281   0.120111   0.301609   5.006484
    13  C   -0.000039   0.000077  -0.000401  -0.162804   0.081291   0.288491
    14  C    0.000116  -0.000132   0.007703   0.122600  -0.147776   0.096857
    15  C   -0.004138  -0.006552  -0.088114   0.239619   0.053864  -0.145998
    16  H    0.000077  -0.000875   0.001019  -0.000126  -0.000019   0.000001
    17  H   -0.000249   0.005946   0.008346   0.002339   0.000228   0.000045
    18  H   -0.001213   0.006527  -0.003949   0.000556  -0.000092  -0.000007
    19  H   -0.003804   0.023349  -0.000093   0.000007  -0.000000   0.000000
    20  H    0.016016  -0.002872   0.000005   0.000000   0.000000  -0.000000
    21  H   -0.068530   0.016106  -0.000129  -0.000017   0.000000  -0.000000
    22  H    0.464742  -0.071829  -0.011986   0.003482  -0.000593   0.000012
    23  H    0.004643  -0.037591   0.367836  -0.018021  -0.018545   0.000330
    24  H   -0.000038   0.000047  -0.012023  -0.078187   0.450479  -0.062489
    25  H    0.000000   0.000005  -0.000106   0.015192  -0.067756   0.451454
    26  H    0.000000  -0.000000   0.000010  -0.001603   0.014757  -0.070571
    27  H    0.000019  -0.000014  -0.000103   0.015298  -0.001939   0.014239
    28  H    0.003236   0.006348  -0.014236  -0.073660   0.015481  -0.002462
              13         14         15         16         17         18
     1  C    0.000004  -0.000013  -0.000458   0.398500   0.402239   0.399653
     2  O   -0.000000   0.000000  -0.000011  -0.023840  -0.038312  -0.031116
     3  C    0.000000  -0.000022   0.000141   0.004374  -0.009896   0.000422
     4  C   -0.000000   0.000001   0.000065   0.000527  -0.000877   0.002965
     5  C    0.000000   0.000000  -0.000025   0.000001   0.000067  -0.000552
     6  C    0.000000   0.000000  -0.000672  -0.000008   0.000019  -0.000010
     7  C   -0.000039   0.000116  -0.004138   0.000077  -0.000249  -0.001213
     8  C    0.000077  -0.000132  -0.006552  -0.000875   0.005946   0.006527
     9  N   -0.000401   0.007703  -0.088114   0.001019   0.008346  -0.003949
    10  C   -0.162804   0.122600   0.239619  -0.000126   0.002339   0.000556
    11  C    0.081291  -0.147776   0.053864  -0.000019   0.000228  -0.000092
    12  C    0.288491   0.096857  -0.145998   0.000001   0.000045  -0.000007
    13  C    5.105564   0.285855   0.080692   0.000000   0.000005  -0.000010
    14  C    0.285855   5.022246   0.288148   0.000001  -0.000025  -0.000001
    15  C    0.080692   0.288148   5.230516  -0.000010  -0.000442   0.000826
    16  H    0.000000   0.000001  -0.000010   0.624442  -0.030567  -0.020206
    17  H    0.000005  -0.000025  -0.000442  -0.030567   0.690640  -0.038959
    18  H   -0.000010  -0.000001   0.000826  -0.020206  -0.038959   0.647058
    19  H   -0.000000  -0.000000   0.000000  -0.000241   0.000100   0.000318
    20  H    0.000000  -0.000000  -0.000000  -0.000000  -0.000001   0.000008
    21  H    0.000000  -0.000001   0.000034   0.000000   0.000000  -0.000003
    22  H   -0.000060   0.000492   0.002411  -0.000001   0.000010  -0.000000
    23  H   -0.000055  -0.000167   0.009901   0.000353  -0.008210   0.001502
    24  H    0.015133  -0.002541   0.017237  -0.000004   0.000236  -0.000026
    25  H   -0.069308   0.013958  -0.001831   0.000000  -0.000002   0.000000
    26  H    0.453157  -0.069962   0.015072  -0.000000  -0.000000  -0.000000
    27  H   -0.071359   0.454147  -0.068904  -0.000000  -0.000000   0.000001
    28  H    0.014933  -0.066750   0.460870  -0.000008  -0.000024   0.000195
              19         20         21         22         23         24
     1  C   -0.000568   0.000005   0.000001  -0.000005  -0.002847   0.000008
     2  O    0.000966  -0.000074   0.000004  -0.000051   0.010142  -0.000023
     3  C   -0.068695   0.015772  -0.001964   0.016999  -0.009334   0.000023
     4  C    0.451051  -0.070636   0.014253  -0.002969   0.000698  -0.000002
     5  C   -0.080177   0.458041  -0.073022   0.015517  -0.000096   0.000000
     6  C    0.015722  -0.073495   0.455181  -0.071188  -0.000003  -0.000001
     7  C   -0.003804   0.016016  -0.068530   0.464742   0.004643  -0.000038
     8  C    0.023349  -0.002872   0.016106  -0.071829  -0.037591   0.000047
     9  N   -0.000093   0.000005  -0.000129  -0.011986   0.367836  -0.012023
    10  C    0.000007   0.000000  -0.000017   0.003482  -0.018021  -0.078187
    11  C   -0.000000   0.000000   0.000000  -0.000593  -0.018545   0.450479
    12  C    0.000000  -0.000000  -0.000000   0.000012   0.000330  -0.062489
    13  C   -0.000000   0.000000   0.000000  -0.000060  -0.000055   0.015133
    14  C   -0.000000  -0.000000  -0.000001   0.000492  -0.000167  -0.002541
    15  C    0.000000  -0.000000   0.000034   0.002411   0.009901   0.017237
    16  H   -0.000241  -0.000000   0.000000  -0.000001   0.000353  -0.000004
    17  H    0.000100  -0.000001   0.000000   0.000010  -0.008210   0.000236
    18  H    0.000318   0.000008  -0.000003  -0.000000   0.001502  -0.000026
    19  H    0.666378  -0.012978  -0.000242   0.000012  -0.000020   0.000000
    20  H   -0.012978   0.669538  -0.012370  -0.000246   0.000001  -0.000000
    21  H   -0.000242  -0.012370   0.671112  -0.012416   0.000006   0.000000
    22  H    0.000012  -0.000246  -0.012416   0.656999  -0.000191   0.000000
    23  H   -0.000020   0.000001   0.000006  -0.000191   0.546746   0.006093
    24  H    0.000000  -0.000000   0.000000   0.000000   0.006093   0.694184
    25  H   -0.000000   0.000000   0.000000  -0.000001  -0.000014  -0.013158
    26  H    0.000000  -0.000000   0.000000  -0.000000  -0.000001  -0.000244
    27  H    0.000000   0.000000  -0.000000   0.000034   0.000011   0.000023
    28  H   -0.000002  -0.000002   0.000049  -0.002700  -0.000110  -0.000190
              25         26         27         28
     1  C   -0.000000   0.000000  -0.000001   0.000050
     2  O    0.000000   0.000000  -0.000000  -0.000001
     3  C   -0.000000   0.000000   0.000001  -0.000539
     4  C    0.000000  -0.000000  -0.000000  -0.000058
     5  C   -0.000000  -0.000000   0.000000  -0.000064
     6  C   -0.000000  -0.000000  -0.000002   0.000673
     7  C    0.000000   0.000000   0.000019   0.003236
     8  C    0.000005  -0.000000  -0.000014   0.006348
     9  N   -0.000106   0.000010  -0.000103  -0.014236
    10  C    0.015192  -0.001603   0.015298  -0.073660
    11  C   -0.067756   0.014757  -0.001939   0.015481
    12  C    0.451454  -0.070571   0.014239  -0.002462
    13  C   -0.069308   0.453157  -0.071359   0.014933
    14  C    0.013958  -0.069962   0.454147  -0.066750
    15  C   -0.001831   0.015072  -0.068904   0.460870
    16  H    0.000000  -0.000000  -0.000000  -0.000008
    17  H   -0.000002  -0.000000  -0.000000  -0.000024
    18  H    0.000000  -0.000000   0.000001   0.000195
    19  H   -0.000000   0.000000   0.000000  -0.000002
    20  H    0.000000  -0.000000   0.000000  -0.000002
    21  H    0.000000   0.000000  -0.000000   0.000049
    22  H   -0.000001  -0.000000   0.000034  -0.002700
    23  H   -0.000014  -0.000001   0.000011  -0.000110
    24  H   -0.013158  -0.000244   0.000023  -0.000190
    25  H    0.672664  -0.012433  -0.000261   0.000021
    26  H   -0.012433   0.678134  -0.012402  -0.000236
    27  H   -0.000261  -0.012402   0.673151  -0.013055
    28  H    0.000021  -0.000236  -0.013055   0.664724
 Mulliken charges:
               1
     1  C    0.162778
     2  O   -0.394196
     3  C    0.168414
     4  C   -0.060178
     5  C    0.008166
     6  C   -0.013432
     7  C   -0.044923
     8  C    0.073058
     9  N   -0.196852
    10  C    0.152607
    11  C   -0.058926
    12  C   -0.005046
    13  C   -0.021167
    14  C   -0.004736
    15  C   -0.082242
    16  H    0.046610
    17  H    0.017345
    18  H    0.036113
    19  H    0.008916
    20  H    0.013287
    21  H    0.011948
    22  H    0.013524
    23  H    0.146944
    24  H   -0.014538
    25  H    0.011575
    26  H    0.006324
    27  H    0.011113
    28  H    0.007516
 Sum of Mulliken charges =  -0.00000
 Mulliken charges with hydrogens summed into heavy atoms:
               1
     1  C    0.262846
     2  O   -0.394196
     3  C    0.168414
     4  C   -0.051262
     5  C    0.021453
     6  C   -0.001485
     7  C   -0.031400
     8  C    0.073058
     9  N   -0.049908
    10  C    0.152607
    11  C   -0.073464
    12  C    0.006529
    13  C   -0.014843
    14  C    0.006377
    15  C   -0.074725
 Electronic spatial extent (au):  <R**2>=           3509.0072
 Charge=             -0.0000 electrons
 Dipole moment (field-independent basis, Debye):
    X=              0.4703    Y=              0.0951    Z=              0.3263  Tot=              0.5803
 Quadrupole moment (field-independent basis, Debye-Ang):
   XX=            -85.4483   YY=            -82.8705   ZZ=            -87.7573
   XY=              3.8980   XZ=             -2.4919   YZ=             -2.0914
 Traceless Quadrupole moment (field-independent basis, Debye-Ang):
   XX=             -0.0896   YY=              2.4882   ZZ=             -2.3986
   XY=              3.8980   XZ=             -2.4919   YZ=             -2.0914
 Octapole moment (field-independent basis, Debye-Ang**2):
  XXX=             -3.5519  YYY=              7.7780  ZZZ=              0.7910  XYY=             -4.3024
  XXY=             -9.7131  XXZ=              6.3088  XZZ=              2.8651  YZZ=             11.2550
  YYZ=              3.9818  XYZ=            -13.7513
 Hexadecapole moment (field-independent basis, Debye-Ang**3):
 XXXX=          -3219.8275 YYYY=           -959.7825 ZZZZ=           -308.0150 XXXY=             30.9404
 XXXZ=            -33.2642 YYYX=             13.6168 YYYZ=             14.2273 ZZZX=             -4.1593
 ZZZY=            -11.8483 XXYY=           -753.2685 XXZZ=           -650.9819 YYZZ=           -207.2702
 XXYZ=            -33.8029 YYXZ=             -8.4263 ZZXY=            -19.8380
 N-N= 9.274995824656D+02 E-N=-3.322261451168D+03  KE= 6.260689986042D+02
   1 Symmetry operations used in ECPInt.
 ECPInt:  NShTT=    8385 NPrTT=   30369 LenC2=    7966 LenP2D=   21102.
 LDataN:  DoStor=T MaxTD1= 5 Len=  102
 Calling FoFJK, ICntrl=      2127 FMM=F ISym2X=0 I1Cent= 0 IOpClX= 0 NMat=1 NMatS=1 NMatT=0.
 ***** Axes restored to original set *****
 -------------------------------------------------------------------
 Center     Atomic                   Forces (Hartrees/Bohr)
 Number     Number              X              Y              Z
 -------------------------------------------------------------------
      1        6          -0.005563656    0.001951134    0.003948447
      2        8           0.002330897    0.035634538   -0.015378526
      3        6           0.005554649   -0.023252436    0.010726365
      4        6           0.002291210   -0.009048515    0.005525668
      5        6          -0.003518507    0.001251054    0.000024046
      6        6           0.003113436    0.001667401   -0.002303242
      7        6          -0.002055446    0.001952865    0.000002264
      8        6           0.006972594   -0.016952732    0.016090610
      9        7           0.004066066    0.003191872   -0.002224550
     10        6          -0.021955721    0.001696428    0.003563927
     11        6          -0.007367186    0.000866555    0.001948855
     12        6           0.001292537   -0.000718415   -0.001687408
     13        6           0.008384979    0.000214385   -0.002499142
     14        6           0.002715980   -0.000432966    0.001815081
     15        6          -0.006936679   -0.000761252   -0.000299994
     16        1          -0.004973851   -0.004274897    0.000382952
     17        1           0.007395307   -0.004838941    0.000690302
     18        1           0.005029429   -0.001651150   -0.006138659
     19        1          -0.009851065   -0.006683576    0.000441723
     20        1          -0.008618298    0.003694028   -0.004085579
     21        1           0.001679469    0.009242278   -0.004253920
     22        1           0.009715971    0.005322671    0.000457547
     23        1           0.001167691    0.002608722   -0.005196955
     24        1          -0.002678623   -0.002614882    0.012206644
     25        1           0.006746452   -0.002736275    0.007430006
     26        1           0.010005324   -0.000113216   -0.002697392
     27        1           0.001840247    0.002149074   -0.010008695
     28        1          -0.006783207    0.002636247   -0.008480377
 -------------------------------------------------------------------
 Cartesian Forces:  Max     0.035634538 RMS     0.007746377

 GradGradGradGradGradGradGradGradGradGradGradGradGradGradGradGradGradGrad
 Berny optimization.
 FormGI is forming the generalized inverse of G from B-inverse, IUseBI=4.
 Internal  Forces:  Max     0.031494632 RMS     0.006556208
 Search for a local minimum.
 Step number   1 out of a maximum of  146
 All quantities printed in internal units (Hartrees-Bohrs-Radians)
 Mixed Optimization -- RFO/linear search
 Second derivative matrix not updated -- first step.
 ITU=  0
     Eigenvalues ---    0.01460   0.01527   0.01530   0.01530   0.01592
     Eigenvalues ---    0.01898   0.01967   0.01996   0.02042   0.02190
     Eigenvalues ---    0.02269   0.02285   0.02290   0.02293   0.02304
     Eigenvalues ---    0.02331   0.02336   0.02351   0.02353   0.02358
     Eigenvalues ---    0.02365   0.02367   0.02372   0.10322   0.10487
     Eigenvalues ---    0.15988   0.15992   0.15996   0.15998   0.15999
     Eigenvalues ---    0.16000   0.16000   0.16000   0.16000   0.16000
     Eigenvalues ---    0.16000   0.16000   0.16000   0.22000   0.22000
     Eigenvalues ---    0.22000   0.22003   0.22480   0.23467   0.24442
     Eigenvalues ---    0.24919   0.24991   0.24999   0.25000   0.34717
     Eigenvalues ---    0.34757   0.34858   0.36267   0.36267   0.36274
     Eigenvalues ---    0.36277   0.36281   0.36480   0.36505   0.36548
     Eigenvalues ---    0.36561   0.41093   0.42831   0.43081   0.43555
     Eigenvalues ---    0.43622   0.43651   0.43803   0.44388   0.44849
     Eigenvalues ---    0.46362   0.47367   0.47897   0.48180   0.48473
     Eigenvalues ---    0.49040   0.49181   0.49754
 RFO step:  Lambda=-1.93646966D-02 EMin= 1.45955219D-02
 Linear search not attempted -- first point.
 Iteration  1 RMS(Cart)=  0.13453816 RMS(Int)=  0.00994021
 Iteration  2 RMS(Cart)=  0.03194712 RMS(Int)=  0.00061090
 Iteration  3 RMS(Cart)=  0.00093003 RMS(Int)=  0.00026113
 Iteration  4 RMS(Cart)=  0.00000126 RMS(Int)=  0.00026113
 Iteration  5 RMS(Cart)=  0.00000000 RMS(Int)=  0.00026113
 Variable       Old X    -DE/DX   Delta X   Delta X   Delta X     New X
                                 (Linear)    (Quad)   (Total)
    R1        2.66909   0.00751   0.00000   0.01649   0.01649   2.68558
    R2        2.06071   0.00598   0.00000   0.01630   0.01630   2.07701
    R3        2.05905   0.00624   0.00000   0.01697   0.01697   2.07603
    R4        2.06138   0.00687   0.00000   0.01875   0.01875   2.08012
    R5        2.66875  -0.03149   0.00000  -0.06909  -0.06909   2.59966
    R6        2.62626   0.00262   0.00000   0.00425   0.00426   2.63052
    R7        2.67698  -0.00215   0.00000  -0.00626  -0.00625   2.67074
    R8        2.60771   0.01196   0.00000   0.02369   0.02370   2.63141
    R9        2.03234   0.01184   0.00000   0.03078   0.03078   2.06311
   R10        2.60498   0.01430   0.00000   0.02915   0.02915   2.63413
   R11        2.03651   0.01019   0.00000   0.02666   0.02666   2.06317
   R12        2.60889   0.01111   0.00000   0.02285   0.02283   2.63172
   R13        2.03645   0.01028   0.00000   0.02691   0.02691   2.06335
   R14        2.62148   0.01322   0.00000   0.02635   0.02634   2.64782
   R15        2.03300   0.01109   0.00000   0.02884   0.02884   2.06184
   R16        2.67879  -0.01276   0.00000  -0.02851  -0.02851   2.65029
   R17        2.65993  -0.01450   0.00000  -0.03130  -0.03130   2.62863
   R18        1.92151  -0.00593   0.00000  -0.01267  -0.01267   1.90885
   R19        2.63547   0.00937   0.00000   0.01894   0.01894   2.65441
   R20        2.63454   0.01114   0.00000   0.02272   0.02272   2.65726
   R21        2.60131   0.01545   0.00000   0.02975   0.02975   2.63105
   R22        2.03337   0.01275   0.00000   0.03318   0.03318   2.06655
   R23        2.61104   0.01291   0.00000   0.02569   0.02569   2.63673
   R24        2.03666   0.01037   0.00000   0.02715   0.02715   2.06381
   R25        2.61089   0.01317   0.00000   0.02633   0.02634   2.63723
   R26        2.03656   0.01036   0.00000   0.02712   0.02712   2.06367
   R27        2.60098   0.01648   0.00000   0.03202   0.03203   2.63301
   R28        2.03666   0.01037   0.00000   0.02713   0.02713   2.06379
   R29        2.03214   0.01107   0.00000   0.02876   0.02876   2.06090
    A1        1.89879  -0.00741   0.00000  -0.04503  -0.04477   1.85402
    A2        1.92038   0.00958   0.00000   0.05588   0.05536   1.97574
    A3        1.92072   0.00579   0.00000   0.03357   0.03293   1.95365
    A4        1.90161  -0.00215   0.00000  -0.01448  -0.01411   1.88750
    A5        1.90661  -0.00152   0.00000  -0.01341  -0.01328   1.89333
    A6        1.91546  -0.00445   0.00000  -0.01767  -0.01887   1.89659
    A7        1.98698   0.02425   0.00000   0.09004   0.09004   2.07702
    A8        2.08285  -0.01475   0.00000  -0.05252  -0.05269   2.03016
    A9        2.12754   0.00836   0.00000   0.03329   0.03307   2.16060
   A10        2.07277   0.00640   0.00000   0.01953   0.01927   2.09204
   A11        2.11277  -0.00063   0.00000  -0.00417  -0.00423   2.10853
   A12        2.06416  -0.00092   0.00000  -0.00487  -0.00487   2.05928
   A13        2.10614   0.00154   0.00000   0.00883   0.00879   2.11494
   A14        2.09568  -0.00231   0.00000  -0.00615  -0.00619   2.08950
   A15        2.09303   0.00023   0.00000  -0.00208  -0.00207   2.09096
   A16        2.09447   0.00208   0.00000   0.00823   0.00823   2.10270
   A17        2.09443  -0.00186   0.00000  -0.00264  -0.00276   2.09168
   A18        2.09488   0.00171   0.00000   0.00558   0.00555   2.10043
   A19        2.09378   0.00014   0.00000  -0.00320  -0.00323   2.09055
   A20        2.11152   0.00002   0.00000   0.00193   0.00184   2.11336
   A21        2.09768   0.00003   0.00000  -0.00087  -0.00084   2.09685
   A22        2.07328  -0.00006   0.00000  -0.00130  -0.00126   2.07202
   A23        2.07889  -0.00166   0.00000  -0.00938  -0.00946   2.06943
   A24        2.08734   0.00031   0.00000   0.00218   0.00215   2.08949
   A25        2.11429   0.00130   0.00000   0.00578   0.00570   2.11999
   A26        2.22416   0.00395   0.00000   0.01654   0.01654   2.24070
   A27        2.02062  -0.00215   0.00000  -0.00919  -0.00920   2.01143
   A28        2.03754  -0.00179   0.00000  -0.00719  -0.00719   2.03035
   A29        2.09607  -0.00675   0.00000  -0.02463  -0.02464   2.07143
   A30        2.11904   0.00552   0.00000   0.02096   0.02093   2.13997
   A31        2.06776   0.00122   0.00000   0.00333   0.00329   2.07105
   A32        2.10569  -0.00005   0.00000  -0.00123  -0.00124   2.10444
   A33        2.07675   0.00068   0.00000   0.00428   0.00429   2.08104
   A34        2.10073  -0.00063   0.00000  -0.00305  -0.00304   2.09769
   A35        2.09687   0.00198   0.00000   0.00854   0.00853   2.10540
   A36        2.09331  -0.00179   0.00000  -0.00874  -0.00874   2.08457
   A37        2.09300  -0.00019   0.00000   0.00020   0.00020   2.09320
   A38        2.09302  -0.00415   0.00000  -0.01598  -0.01597   2.07705
   A39        2.09510   0.00196   0.00000   0.00735   0.00734   2.10244
   A40        2.09506   0.00219   0.00000   0.00862   0.00861   2.10367
   A41        2.09634   0.00297   0.00000   0.01360   0.01361   2.10996
   A42        2.09334  -0.00064   0.00000  -0.00209  -0.00210   2.09124
   A43        2.09350  -0.00233   0.00000  -0.01152  -0.01153   2.08196
   A44        2.10660  -0.00196   0.00000  -0.00831  -0.00831   2.09830
   A45        2.07802   0.00252   0.00000   0.01274   0.01273   2.09076
   A46        2.09832  -0.00056   0.00000  -0.00442  -0.00442   2.09390
    D1       -2.56358   0.00108   0.00000   0.02078   0.02058  -2.54300
    D2        1.63758   0.00252   0.00000   0.03262   0.03383   1.67141
    D3       -0.47525  -0.00186   0.00000  -0.00312  -0.00414  -0.47939
    D4        2.26560  -0.00676   0.00000  -0.19875  -0.19895   2.06665
    D5       -0.86692  -0.00838   0.00000  -0.23802  -0.23782  -1.10474
    D6       -3.10717  -0.00026   0.00000  -0.00594  -0.00509  -3.11226
    D7        0.01794  -0.00083   0.00000  -0.02068  -0.01986  -0.00191
    D8        0.02563   0.00132   0.00000   0.03218   0.03225   0.05788
    D9       -3.13243   0.00075   0.00000   0.01743   0.01748  -3.11495
   D10        3.10863   0.00011   0.00000   0.00485   0.00576   3.11439
   D11       -0.11047  -0.00061   0.00000  -0.01536  -0.01453  -0.12499
   D12       -0.02394  -0.00139   0.00000  -0.03383  -0.03405  -0.05800
   D13        3.04015  -0.00211   0.00000  -0.05404  -0.05434   2.98580
   D14       -0.00944  -0.00011   0.00000  -0.00442  -0.00403  -0.01347
   D15        3.13258  -0.00045   0.00000  -0.01201  -0.01183   3.12074
   D16       -3.13416   0.00050   0.00000   0.01081   0.01134  -3.12282
   D17        0.00785   0.00016   0.00000   0.00322   0.00354   0.01139
   D18       -0.00868  -0.00087   0.00000  -0.02135  -0.02132  -0.03000
   D19       -3.13572  -0.00004   0.00000  -0.00085  -0.00091  -3.13663
   D20        3.13249  -0.00052   0.00000  -0.01376  -0.01346   3.11903
   D21        0.00545   0.00030   0.00000   0.00675   0.00694   0.01240
   D22        0.00998   0.00078   0.00000   0.01916   0.01898   0.02897
   D23       -3.09097   0.00103   0.00000   0.02608   0.02599  -3.06498
   D24        3.13703  -0.00003   0.00000  -0.00125  -0.00123   3.13580
   D25        0.03607   0.00022   0.00000   0.00567   0.00578   0.04185
   D26        0.00649   0.00030   0.00000   0.00848   0.00852   0.01502
   D27       -3.05636   0.00108   0.00000   0.02919   0.02936  -3.02700
   D28        3.10800   0.00005   0.00000   0.00167   0.00162   3.10962
   D29        0.04515   0.00083   0.00000   0.02238   0.02246   0.06761
   D30        2.48049  -0.00114   0.00000  -0.03560  -0.03547   2.44503
   D31       -0.70754  -0.00099   0.00000  -0.03150  -0.03137  -0.73891
   D32       -0.74021  -0.00201   0.00000  -0.05692  -0.05705  -0.79727
   D33        2.35493  -0.00186   0.00000  -0.05282  -0.05295   2.30198
   D34        2.91095  -0.00083   0.00000  -0.02413  -0.02413   2.88682
   D35       -0.25767  -0.00139   0.00000  -0.03876  -0.03876  -0.29643
   D36       -0.18380  -0.00097   0.00000  -0.02822  -0.02823  -0.21203
   D37        2.93075  -0.00154   0.00000  -0.04286  -0.04286   2.88790
   D38        3.12889  -0.00045   0.00000  -0.01301  -0.01281   3.11608
   D39       -0.01826  -0.00043   0.00000  -0.01216  -0.01199  -0.03025
   D40        0.01354   0.00002   0.00000   0.00091   0.00094   0.01448
   D41       -3.13360   0.00005   0.00000   0.00177   0.00176  -3.13185
   D42       -3.12764   0.00043   0.00000   0.00879   0.00900  -3.11864
   D43       -0.00953   0.00041   0.00000   0.00925   0.00941  -0.00012
   D44       -0.01266  -0.00025   0.00000  -0.00604  -0.00604  -0.01870
   D45        3.10545  -0.00026   0.00000  -0.00559  -0.00564   3.09982
   D46       -0.00549   0.00027   0.00000   0.00575   0.00581   0.00032
   D47        3.13666   0.00005   0.00000   0.00086   0.00089   3.13755
   D48       -3.14146   0.00024   0.00000   0.00486   0.00496  -3.13650
   D49        0.00069   0.00001   0.00000  -0.00003   0.00003   0.00073
   D50       -0.00374  -0.00031   0.00000  -0.00722  -0.00723  -0.01097
   D51       -3.14139  -0.00020   0.00000  -0.00444  -0.00446   3.13733
   D52        3.13730  -0.00008   0.00000  -0.00234  -0.00228   3.13501
   D53       -0.00036   0.00003   0.00000   0.00045   0.00048   0.00013
   D54        0.00462   0.00007   0.00000   0.00208   0.00205   0.00666
   D55       -3.13337   0.00026   0.00000   0.00640   0.00641  -3.12697
   D56       -3.14091  -0.00004   0.00000  -0.00071  -0.00073   3.14155
   D57        0.00428   0.00016   0.00000   0.00361   0.00363   0.00791
   D58        0.00373   0.00019   0.00000   0.00456   0.00457   0.00829
   D59       -3.11411   0.00017   0.00000   0.00386   0.00393  -3.11018
   D60       -3.14147   0.00001   0.00000   0.00026   0.00025  -3.14122
   D61        0.02388  -0.00002   0.00000  -0.00043  -0.00039   0.02349
         Item               Value     Threshold  Converged?
 Maximum Force            0.031495     0.000450     NO 
 RMS     Force            0.006556     0.000300     NO 
 Maximum Displacement     0.707513     0.001800     NO 
 RMS     Displacement     0.160370     0.001200     NO 
 Predicted change in Energy=-1.128995D-02
 GradGradGradGradGradGradGradGradGradGradGradGradGradGradGradGradGradGrad

                          Input orientation:                          
 ---------------------------------------------------------------------
 Center     Atomic      Atomic             Coordinates (Angstroms)
 Number     Number       Type             X           Y           Z
 ---------------------------------------------------------------------
      1          6           0       -1.617512   -2.588191    0.175115
      2          8           0       -2.317935   -1.488604    0.740776
      3          6           0       -2.154543   -0.238837    0.189516
      4          6           0       -3.297656    0.359549   -0.332898
      5          6           0       -3.232737    1.608958   -0.944269
      6          6           0       -2.012311    2.278019   -1.021310
      7          6           0       -0.873620    1.709986   -0.455466
      8          6           0       -0.923210    0.454410    0.164483
      9          7           0        0.181534   -0.065487    0.854534
     10          6           0        1.513987   -0.092831    0.456121
     11          6           0        2.499222   -0.375342    1.416616
     12          6           0        3.842082   -0.442611    1.055112
     13          6           0        4.233836   -0.230384   -0.267138
     14          6           0        3.257422    0.037903   -1.227466
     15          6           0        1.909959    0.102729   -0.878889
     16          1           0       -2.279420   -3.459610    0.277785
     17          1           0       -0.674164   -2.812354    0.691580
     18          1           0       -1.405935   -2.434805   -0.894169
     19          1           0       -4.237408   -0.193094   -0.274790
     20          1           0       -4.135997    2.054403   -1.365802
     21          1           0       -1.950558    3.260183   -1.494321
     22          1           0        0.068269    2.260677   -0.449713
     23          1           0       -0.019295   -0.435947    1.772556
     24          1           0        2.200717   -0.538192    2.455976
     25          1           0        4.593014   -0.659816    1.817770
     26          1           0        5.288287   -0.279889   -0.546875
     27          1           0        3.547912    0.192522   -2.268819
     28          1           0        1.156768    0.284273   -1.646425
 ---------------------------------------------------------------------
                    Distance matrix (angstroms):
                    1          2          3          4          5
     1  C    0.000000
     2  O    1.421146   0.000000
     3  C    2.409995   1.375682   0.000000
     4  C    3.430763   2.351234   1.392009   0.000000
     5  C    4.634440   3.642956   2.421222   1.392484   0.000000
     6  C    5.026660   4.169629   2.796587   2.409679   1.393922
     7  C    4.407418   3.707832   2.419645   2.777527   2.411342
     8  C    3.120832   2.460218   1.413294   2.427835   2.810022
     9  N    3.172099   2.878463   2.435068   3.700732   4.206745
    10  C    4.013984   4.088133   3.681102   4.896847   5.233409
    11  C    4.835858   4.990101   4.814763   6.099563   6.508961
    12  C    5.931701   6.256095   6.062203   7.317507   7.632793
    13  C    6.324010   6.747199   6.404685   7.554847   7.719546
    14  C    5.712143   6.106455   5.601231   6.623651   6.683605
    15  C    4.560156   4.799035   4.216436   5.242453   5.359134
    16  H    1.099106   2.025020   3.224401   3.999464   5.300246
    17  H    1.098585   2.111093   3.011076   4.241844   5.363795
    18  H    1.100754   2.097638   2.560676   3.420826   4.437537
    19  H    3.578095   2.528656   2.134479   1.091753   2.169091
    20  H    5.501898   4.505100   3.406483   2.154585   1.091783
    21  H    6.091093   5.261331   3.888452   3.402537   2.161732
    22  H    5.171440   4.600907   3.405449   3.867478   3.400877
    23  H    3.120620   2.730642   2.665362   3.976607   4.678566
    24  H    4.897315   4.925790   4.918815   6.230238   6.759758
    25  H    6.707278   7.043296   6.953989   8.241794   8.603405
    26  H    7.317075   7.808562   7.479283   8.612380   8.736905
    27  H    6.355060   6.803823   6.224747   7.116003   7.052512
    28  H    4.389269   4.573333   3.822186   4.644665   4.638487
                    6          7          8          9         10
     6  C    0.000000
     7  C    1.392645   0.000000
     8  C    2.432652   1.401166   0.000000
     9  N    3.718033   2.445763   1.402471   0.000000
    10  C    4.498724   3.127588   2.514847   1.391011   0.000000
    11  C    5.773885   4.385128   3.737562   2.404916   1.404653
    12  C    6.781392   5.399386   4.930099   3.685386   2.429231
    13  C    6.773124   5.466864   5.220188   4.207907   2.817729
    14  C    5.729808   4.522980   4.425910   3.715709   2.427163
    15  C    4.487357   3.242048   3.039597   2.453671   1.406161
    16  H    5.888920   5.407278   4.143874   4.231903   5.075129
    17  H    5.535028   4.669803   3.318374   2.881675   3.498464
    18  H    4.753375   4.201799   3.114696   3.345399   3.979205
    19  H    3.408042   3.869035   3.405309   4.562752   5.798520
    20  H    2.163035   3.404473   3.901762   5.297631   6.312871
    21  H    1.091878   2.154559   3.417519   4.595978   5.200961
    22  H    2.157739   1.091076   2.150086   2.669256   2.906826
    23  H    4.375319   3.209203   2.048340   1.010118   2.049801
    24  H    6.145907   4.793990   3.999390   2.620146   2.160871
    25  H    7.766697   6.377120   5.865458   4.554361   3.414084
    26  H    7.750272   6.475883   6.295072   5.299891   3.909774
    27  H    6.068085   5.014069   5.097105   4.599392   3.412268
    28  H    3.795899   2.752002   2.763085   2.707066   2.165759
                   11         12         13         14         15
    11  C    0.000000
    12  C    1.392294   0.000000
    13  C    2.421760   1.395298   0.000000
    14  C    2.781512   2.404763   1.395561   0.000000
    15  C    2.417669   2.787626   2.426027   1.393329   0.000000
    16  H    5.800437   6.868720   7.290222   6.719747   5.619524
    17  H    4.066336   5.113152   5.627981   5.221501   4.200211
    18  H    4.983108   5.942241   6.087664   5.288882   4.175460
    19  H    6.948112   8.192013   8.471329   7.558665   6.184057
    20  H    7.594184   8.703198   8.745365   7.664727   6.371789
    21  H    6.441361   7.332460   7.206716   6.130036   5.025123
    22  H    4.042439   4.879952   4.857023   3.964382   2.869278
    23  H    2.544267   3.927468   4.721411   4.467834   3.323003
    24  H    1.093570   2.160008   3.412282   3.875081   3.408319
    25  H    2.150771   1.092119   2.158765   3.397659   3.879721
    26  H    3.412227   2.164336   1.092049   2.165320   3.416099
    27  H    3.873584   3.396829   2.157792   1.092112   2.150084
    28  H    3.408738   3.877832   3.411107   2.156147   1.090581
                   16         17         18         19         20
    16  H    0.000000
    17  H    1.779610   0.000000
    18  H    1.785126   1.786794   0.000000
    19  H    3.848270   4.526710   3.664170   0.000000
    20  H    6.045874   6.316837   5.275288   2.500367   0.000000
    21  H    6.957307   6.578985   5.752364   4.317645   2.499313
    22  H    6.225960   5.252562   4.941495   4.958875   4.307855
    23  H    4.060178   2.691593   3.609658   4.695007   5.744421
    24  H    5.775017   4.068150   5.275277   7.001831   7.841012
    25  H    7.578968   5.800422   6.818548   9.086969   9.679760
    26  H    8.249902   6.595299   7.041086   9.529976   9.743546
    27  H    7.333557   5.968180   5.773484   8.045873   7.957669
    28  H    5.433841   4.290417   3.811394   5.586268   5.587975
                   21         22         23         24         25
    21  H    0.000000
    22  H    2.483119   0.000000
    23  H    5.297513   3.495415   0.000000
    24  H    6.874996   4.563335   2.325074   0.000000
    25  H    8.315929   5.843294   4.617960   2.478948   0.000000
    26  H    8.113608   5.806248   5.794354   4.314733   2.493852
    27  H    6.343781   4.437830   5.427030   4.967149   4.303363
    28  H    4.305188   2.554040   3.686634   4.312304   4.969884
                   26         27         28
    26  H    0.000000
    27  H    2.493425   0.000000
    28  H    4.312394   2.472522   0.000000
 Stoichiometry    C13H13NO
 Framework group  C1[X(C13H13NO)]
 Deg. of freedom    78
 Full point group                 C1      NOp   1
 Largest Abelian subgroup         C1      NOp   1
 Largest concise Abelian subgroup C1      NOp   1
                         Standard orientation:                         
 ---------------------------------------------------------------------
 Center     Atomic      Atomic             Coordinates (Angstroms)
 Number     Number       Type             X           Y           Z
 ---------------------------------------------------------------------
      1          6           0       -1.373548    2.590685    0.938832
      2          8           0       -2.133070    1.938771   -0.070025
      3          6           0       -2.134956    0.563994   -0.119873
      4          6           0       -3.367448   -0.058330    0.057232
      5          6           0       -3.471582   -1.446914    0.059010
      6          6           0       -2.331783   -2.225619   -0.134626
      7          6           0       -1.103346   -1.611040   -0.364179
      8          6           0       -0.982747   -0.215088   -0.370559
      9          7           0        0.216737    0.414452   -0.733658
     10          6           0        1.511345    0.104777   -0.329920
     11          6           0        2.589585    0.654027   -1.043202
     12          6           0        3.901226    0.394742   -0.654804
     13          6           0        4.168767   -0.415344    0.449297
     14          6           0        3.100682   -0.952890    1.168902
     15          6           0        1.783731   -0.696468    0.793067
     16          1           0       -1.937401    3.493548    1.212586
     17          1           0       -0.376310    2.900445    0.597577
     18          1           0       -1.259828    1.964614    1.837032
     19          1           0       -4.241548    0.574206    0.223882
     20          1           0       -4.443454   -1.917990    0.218829
     21          1           0       -2.402428   -3.315197   -0.139771
     22          1           0       -0.222083   -2.214413   -0.587261
     23          1           0        0.123405    1.167507   -1.400393
     24          1           0        2.388257    1.286109   -1.912589
     25          1           0        4.725553    0.828307   -1.225094
     26          1           0        5.198694   -0.620116    0.749116
     27          1           0        3.294710   -1.577515    2.043490
     28          1           0        0.960277   -1.100028    1.383346
 ---------------------------------------------------------------------
 Rotational constants (GHZ):           1.1781138           0.3663147           0.3092889
 Standard basis: def2SVP (5D, 7F)
 There are   290 symmetry adapted cartesian basis functions of A   symmetry.
 There are   275 symmetry adapted basis functions of A   symmetry.
   275 basis functions,   466 primitive gaussians,   290 cartesian basis functions
    53 alpha electrons       53 beta electrons
       nuclear repulsion energy       918.6350657536 Hartrees.
 NAtoms=   28 NActive=   28 NUniq=   28 SFac= 1.00D+00 NAtFMM=   60 NAOKFM=F Big=F
 Integral buffers will be    131072 words long.
 Raffenetti 2 integral format.
 Two-electron integral symmetry is turned on.
 Nuclear repulsion after empirical dispersion term =      918.6175822757 Hartrees.
 One-electron integrals computed using PRISM.
   1 Symmetry operations used in ECPInt.
 ECPInt:  NShTT=    8385 NPrTT=   30369 LenC2=    7931 LenP2D=   20916.
 LDataN:  DoStor=T MaxTD1= 4 Len=   56
 NBasis=   275 RedAO= T EigKep=  2.10D-04  NBF=   275
 NBsUse=   275 1.00D-06 EigRej= -1.00D+00 NBFU=   275
 Initial guess from the checkpoint file:  "prod_3f_5.chk"
 B after Tr=     0.000000   -0.000000   -0.000000
         Rot=    0.999654    0.025146    0.002182   -0.007428 Ang=   3.02 deg.
 ExpMin= 1.22D-01 ExpMax= 2.27D+03 ExpMxC= 3.41D+02 IAcc=3 IRadAn=         5 AccDes= 0.00D+00
 Harris functional with IExCor= 4639 and IRadAn=       5 diagonalized for initial guess.
 HarFok:  IExCor= 4639 AccDes= 0.00D+00 IRadAn=         5 IDoV= 1 UseB2=F ITyADJ=14
 ICtDFT=  3500011 ScaDFX=  1.000000  1.000000  1.000000  1.000000
 FoFCou: FMM=F IPFlag=           0 FMFlag=      100000 FMFlg1=           0
         NFxFlg=           0 DoJE=T BraDBF=F KetDBF=T FulRan=T
         wScrn=  0.000000 ICntrl=       500 IOpCl=  0 I1Cent=   200000004 NGrid=           0
         NMat0=    1 NMatS0=      1 NMatT0=    0 NMatD0=    1 NMtDS0=    0 NMtDT0=    0
 Petite list used in FoFCou.
 Requested convergence on RMS density matrix=1.00D-08 within 128 cycles.
 Requested convergence on MAX density matrix=1.00D-06.
 Requested convergence on             energy=1.00D-06.
 No special actions if energy rises.
 Integral accuracy reduced to 1.0D-05 until final iterations.
 Initial convergence to 1.0D-05 achieved.  Increase integral accuracy.
 SCF Done:  E(RwB97XD) =  -632.509356201     A.U. after   15 cycles
            NFock= 15  Conv=0.81D-08     -V/T= 2.0110
   1 Symmetry operations used in ECPInt.
 ECPInt:  NShTT=    8385 NPrTT=   30369 LenC2=    7931 LenP2D=   20916.
 LDataN:  DoStor=T MaxTD1= 5 Len=  102
 Calling FoFJK, ICntrl=      2127 FMM=F ISym2X=0 I1Cent= 0 IOpClX= 0 NMat=1 NMatS=1 NMatT=0.
 ***** Axes restored to original set *****
 -------------------------------------------------------------------
 Center     Atomic                   Forces (Hartrees/Bohr)
 Number     Number              X              Y              Z
 -------------------------------------------------------------------
      1        6          -0.006026521    0.003703489    0.000529775
      2        8           0.009726186    0.006460716    0.000127797
      3        6          -0.001057554   -0.010216014    0.000288186
      4        6          -0.001509837    0.002956007   -0.004325137
      5        6          -0.000892627   -0.000076624    0.000401674
      6        6           0.001044217   -0.001032750    0.000260234
      7        6          -0.002219346    0.001528227   -0.000190232
[...]
     8  C   -0.011459  -0.070445   0.128252   0.158172  -0.179186   0.089093
     9  N    0.011643  -0.001673  -0.091089   0.012804  -0.001803   0.004671
    10  C    0.001743   0.004295   0.002528   0.000869  -0.000580   0.000269
    11  C   -0.000195  -0.001844  -0.002680  -0.000012   0.000058  -0.000144
    12  C   -0.000019  -0.000044  -0.000059  -0.000021   0.000009  -0.000047
    13  C    0.000014  -0.000002   0.000025   0.000009  -0.000004   0.000026
    14  C   -0.000049   0.000016  -0.000319  -0.000049   0.000028   0.000054
    15  C    0.000432   0.000188   0.002961   0.000935  -0.000739   0.005077
    16  H    0.405812  -0.029936   0.004766  -0.001813   0.000255  -0.000100
    17  H    0.409560  -0.050481  -0.013439   0.014576  -0.001297   0.001230
    18  H    0.406781  -0.037169   0.006124  -0.005880  -0.001680  -0.000104
    19  H   -0.002009   0.003948  -0.089694   0.457841  -0.065166   0.015699
    20  H   -0.000003  -0.000211   0.017743  -0.062358   0.451013  -0.066394
    21  H    0.000005   0.000015  -0.004131   0.012287  -0.060019   0.446121
    22  H   -0.000067  -0.000165   0.003314  -0.001124   0.005553  -0.026494
    23  H   -0.008844   0.029035  -0.020823  -0.000117  -0.000640   0.000203
    24  H    0.000034  -0.000116  -0.000129   0.000011  -0.000001   0.000006
    25  H    0.000000   0.000000   0.000000   0.000000  -0.000000   0.000000
    26  H    0.000000   0.000000   0.000000   0.000000  -0.000000  -0.000000
    27  H   -0.000000   0.000000   0.000007  -0.000001   0.000001  -0.000012
    28  H    0.000095  -0.000000  -0.000530   0.000097  -0.000104   0.000959
               7          8          9         10         11         12
     1  C   -0.004013  -0.011459   0.011643   0.001743  -0.000195  -0.000019
     2  O    0.008964  -0.070445  -0.001673   0.004295  -0.001844  -0.000044
     3  C    0.211657   0.128252  -0.091089   0.002528  -0.002680  -0.000059
     4  C   -0.200236   0.158172   0.012804   0.000869  -0.000012  -0.000021
     5  C    0.114947  -0.179186  -0.001803  -0.000580   0.000058   0.000009
     6  C    0.333961   0.089093   0.004671   0.000269  -0.000144  -0.000047
     7  C    5.379264   0.185080  -0.045114  -0.003999   0.005196   0.000876
     8  C    0.185080   5.254751   0.292579  -0.082459   0.007410   0.000784
     9  N   -0.045114   0.292579   6.528258   0.276961  -0.039864   0.009495
    10  C   -0.003999  -0.082459   0.276961   4.908151   0.409949  -0.031429
    11  C    0.005196   0.007410  -0.039864   0.409949   5.114489   0.459427
    12  C    0.000876   0.000784   0.009495  -0.031429   0.459427   4.878105
    13  C   -0.000601  -0.000390   0.001103  -0.071009   0.008357   0.460409
    14  C    0.004736  -0.000707   0.002197  -0.015001  -0.066262   0.002201
    15  C   -0.010524  -0.002592  -0.035548   0.379700   0.027383  -0.077583
    16  H    0.000377  -0.001327  -0.001097  -0.000287   0.000096   0.000004
    17  H   -0.005653   0.010672   0.007838  -0.000316   0.000252  -0.000013
    18  H    0.000027  -0.000643   0.000590   0.000092  -0.000054  -0.000001
    19  H   -0.008269   0.028555  -0.000187   0.000011   0.000003   0.000000
    20  H    0.016006  -0.006312   0.000015  -0.000004  -0.000000   0.000000
    21  H   -0.062713   0.016575  -0.000176   0.000031   0.000006  -0.000001
    22  H    0.423555  -0.042029   0.001363   0.001375  -0.000484   0.000181
    23  H    0.008019  -0.042805   0.395680  -0.062166   0.002456   0.001112
    24  H    0.000090   0.000824   0.004158  -0.077189   0.438572  -0.027694
    25  H   -0.000004   0.000012  -0.000235   0.014768  -0.057101   0.440217
    26  H   -0.000003  -0.000002  -0.000001  -0.003978   0.012274  -0.057121
    27  H    0.000053   0.000044  -0.000205   0.013239  -0.002549   0.009769
    28  H   -0.004592   0.001813   0.001815  -0.045497   0.002298  -0.000777
              13         14         15         16         17         18
     1  C    0.000014  -0.000049   0.000432   0.405812   0.409560   0.406781
     2  O   -0.000002   0.000016   0.000188  -0.029936  -0.050481  -0.037169
     3  C    0.000025  -0.000319   0.002961   0.004766  -0.013439   0.006124
     4  C    0.000009  -0.000049   0.000935  -0.001813   0.014576  -0.005880
     5  C   -0.000004   0.000028  -0.000739   0.000255  -0.001297  -0.001680
     6  C    0.000026   0.000054   0.005077  -0.000100   0.001230  -0.000104
     7  C   -0.000601   0.004736  -0.010524   0.000377  -0.005653   0.000027
     8  C   -0.000390  -0.000707  -0.002592  -0.001327   0.010672  -0.000643
     9  N    0.001103   0.002197  -0.035548  -0.001097   0.007838   0.000590
    10  C   -0.071009  -0.015001   0.379700  -0.000287  -0.000316   0.000092
    11  C    0.008357  -0.066262   0.027383   0.000096   0.000252  -0.000054
    12  C    0.460409   0.002201  -0.077583   0.000004  -0.000013  -0.000001
    13  C    4.946071   0.460325   0.021206  -0.000000   0.000025  -0.000000
    14  C    0.460325   4.884893   0.435913   0.000000  -0.000092   0.000002
    15  C    0.021206   0.435913   5.215715  -0.000038   0.000791   0.000012
    16  H   -0.000000   0.000000  -0.000038   0.543171  -0.027252  -0.022006
    17  H    0.000025  -0.000092   0.000791  -0.027252   0.574282  -0.042561
    18  H   -0.000000   0.000002   0.000012  -0.022006  -0.042561   0.579479
    19  H    0.000000  -0.000000  -0.000001  -0.000381   0.001044  -0.001750
    20  H   -0.000000   0.000000  -0.000002   0.000001  -0.000019   0.000046
    21  H    0.000001  -0.000011   0.000085  -0.000000   0.000004   0.000000
    22  H   -0.000135   0.000987  -0.005727   0.000002  -0.000017  -0.000003
    23  H   -0.000078  -0.000026   0.005279  -0.000202  -0.003698   0.001154
    24  H    0.008376  -0.002093   0.006177   0.000001   0.000048  -0.000003
    25  H   -0.056926   0.010626  -0.003392  -0.000000  -0.000000   0.000000
    26  H    0.444829  -0.058835   0.013004  -0.000000   0.000000   0.000000
    27  H   -0.054266   0.438440  -0.056491   0.000000  -0.000001   0.000000
    28  H    0.004800  -0.024882   0.426301  -0.000002   0.000123  -0.000005
              19         20         21         22         23         24
     1  C   -0.002009  -0.000003   0.000005  -0.000067  -0.008844   0.000034
     2  O    0.003948  -0.000211   0.000015  -0.000165   0.029035  -0.000116
     3  C   -0.089694   0.017743  -0.004131   0.003314  -0.020823  -0.000129
     4  C    0.457841  -0.062358   0.012287  -0.001124  -0.000117   0.000011
     5  C   -0.065166   0.451013  -0.060019   0.005553  -0.000640  -0.000001
     6  C    0.015699  -0.066394   0.446121  -0.026494   0.000203   0.000006
     7  C   -0.008269   0.016006  -0.062713   0.423555   0.008019   0.000090
     8  C    0.028555  -0.006312   0.016575  -0.042029  -0.042805   0.000824
     9  N   -0.000187   0.000015  -0.000176   0.001363   0.395680   0.004158
    10  C    0.000011  -0.000004   0.000031   0.001375  -0.062166  -0.077189
    11  C    0.000003  -0.000000   0.000006  -0.000484   0.002456   0.438572
    12  C    0.000000   0.000000  -0.000001   0.000181   0.001112  -0.027694
    13  C    0.000000  -0.000000   0.000001  -0.000135  -0.000078   0.008376
    14  C   -0.000000   0.000000  -0.000011   0.000987  -0.000026  -0.002093
    15  C   -0.000001  -0.000002   0.000085  -0.005727   0.005279   0.006177
    16  H   -0.000381   0.000001  -0.000000   0.000002  -0.000202   0.000001
    17  H    0.001044  -0.000019   0.000004  -0.000017  -0.003698   0.000048
    18  H   -0.001750   0.000046   0.000000  -0.000003   0.001154  -0.000003
    19  H    0.542759  -0.007749  -0.000086   0.000015  -0.000008   0.000000
    20  H   -0.007749   0.548815  -0.007458  -0.000093   0.000006  -0.000000
    21  H   -0.000086  -0.007458   0.546424  -0.005920   0.000012   0.000000
    22  H    0.000015  -0.000093  -0.005920   0.480348  -0.000330   0.000006
    23  H   -0.000008   0.000006   0.000012  -0.000330   0.450878   0.003583
    24  H    0.000000  -0.000000   0.000000   0.000006   0.003583   0.535927
    25  H   -0.000000   0.000000   0.000000  -0.000001  -0.000046  -0.007982
    26  H    0.000000  -0.000000   0.000000   0.000000  -0.000002  -0.000122
    27  H   -0.000000   0.000000  -0.000000   0.000084   0.000019   0.000039
    28  H   -0.000000  -0.000000   0.000065  -0.006796  -0.000270  -0.000189
              25         26         27         28
     1  C    0.000000   0.000000  -0.000000   0.000095
     2  O    0.000000   0.000000   0.000000  -0.000000
     3  C    0.000000   0.000000   0.000007  -0.000530
     4  C    0.000000   0.000000  -0.000001   0.000097
     5  C   -0.000000  -0.000000   0.000001  -0.000104
     6  C    0.000000  -0.000000  -0.000012   0.000959
     7  C   -0.000004  -0.000003   0.000053  -0.004592
     8  C    0.000012  -0.000002   0.000044   0.001813
     9  N   -0.000235  -0.000001  -0.000205   0.001815
    10  C    0.014768  -0.003978   0.013239  -0.045497
    11  C   -0.057101   0.012274  -0.002549   0.002298
    12  C    0.440217  -0.057121   0.009769  -0.000777
    13  C   -0.056926   0.444829  -0.054266   0.004800
    14  C    0.010626  -0.058835   0.438440  -0.024882
    15  C   -0.003392   0.013004  -0.056491   0.426301
    16  H   -0.000000  -0.000000   0.000000  -0.000002
    17  H   -0.000000   0.000000  -0.000001   0.000123
    18  H    0.000000   0.000000   0.000000  -0.000005
    19  H   -0.000000   0.000000  -0.000000  -0.000000
    20  H    0.000000  -0.000000   0.000000  -0.000000
    21  H    0.000000   0.000000  -0.000000   0.000065
    22  H   -0.000001   0.000000   0.000084  -0.006796
    23  H   -0.000046  -0.000002   0.000019  -0.000270
    24  H   -0.007982  -0.000122   0.000039  -0.000189
    25  H    0.548332  -0.006707  -0.000175   0.000034
    26  H   -0.006707   0.546441  -0.006925  -0.000087
    27  H   -0.000175  -0.006925   0.545343  -0.005876
    28  H    0.000034  -0.000087  -0.005876   0.482168
 Mulliken charges:
               1
     1  C   -0.181330
     2  O   -0.368315
     3  C    0.158220
     4  C   -0.143439
     5  C   -0.160876
     6  C   -0.081445
     7  C   -0.347087
     8  C    0.265741
     9  N   -0.334179
    10  C    0.379934
    11  C   -0.317037
    12  C   -0.067780
    13  C   -0.172164
    14  C   -0.072091
    15  C   -0.348525
    16  H    0.129956
    17  H    0.124394
    18  H    0.117552
    19  H    0.125424
    20  H    0.116959
    21  H    0.118883
    22  H    0.172602
    23  H    0.242620
    24  H    0.117665
    25  H    0.118580
    26  H    0.117234
    27  H    0.119464
    28  H    0.169040
 Sum of Mulliken charges =  -0.00000
 Mulliken charges with hydrogens summed into heavy atoms:
               1
     1  C    0.190573
     2  O   -0.368315
     3  C    0.158220
     4  C   -0.018015
     5  C   -0.043917
     6  C    0.037438
     7  C   -0.174485
     8  C    0.265741
     9  N   -0.091559
    10  C    0.379934
    11  C   -0.199372
    12  C    0.050799
    13  C   -0.054930
    14  C    0.047373
    15  C   -0.179485
 Electronic spatial extent (au):  <R**2>=           3676.8440
 Charge=             -0.0000 electrons
 Dipole moment (field-independent basis, Debye):
    X=             -0.0837    Y=              0.7061    Z=              0.9178  Tot=              1.1610
 Quadrupole moment (field-independent basis, Debye-Ang):
   XX=            -82.5560   YY=            -81.3217   ZZ=            -90.3367
   XY=             -0.1927   XZ=             -3.4338   YZ=             -1.3608
 Traceless Quadrupole moment (field-independent basis, Debye-Ang):
   XX=              2.1821   YY=              3.4164   ZZ=             -5.5986
   XY=             -0.1927   XZ=             -3.4338   YZ=             -1.3608
 Octapole moment (field-independent basis, Debye-Ang**2):
  XXX=             -7.9937  YYY=             12.5731  ZZZ=              1.6232  XYY=            -11.1517
  XXY=              1.0376  XXZ=              6.3370  XZZ=              2.1373  YZZ=             10.3577
  YYZ=              5.5378  XYZ=            -19.0123
 Hexadecapole moment (field-independent basis, Debye-Ang**3):
 XXXX=          -3411.2290 YYYY=           -981.3179 ZZZZ=           -304.5723 XXXY=             -5.9774
 XXXZ=            -29.1110 YYYX=            -13.3987 YYYZ=              6.5077 ZZZX=             -5.7649
 ZZZY=            -12.0634 XXYY=           -775.1468 XXZZ=           -698.2163 YYZZ=           -223.4598
 XXYZ=            -30.2796 YYXZ=            -16.3124 ZZXY=            -22.3435
 N-N= 9.176445507584D+02 E-N=-3.307686756203D+03  KE= 6.297606857054D+02
 Breneman (CHELPG) radii used.
 Read replacement radii for each type of atom:
 Atom Element Radius
    1     6    1.50
    2     8    1.70
    3     6    1.50
    4     6    1.50
    5     6    1.50
    6     6    1.50
    7     6    1.50
    8     6    1.50
    9     7    1.70
   10     6    1.50
   11     6    1.50
   12     6    1.50
   13     6    1.50
   14     6    1.50
   15     6    1.50
   16     1    1.45
   17     1    1.45
   18     1    1.45
   19     1    1.45
   20     1    1.45
   21     1    1.45
   22     1    1.45
   23     1    1.45
   24     1    1.45
   25     1    1.45
   26     1    1.45
   27     1    1.45
   28     1    1.45
 Generate Potential Derived Charges using the Breneman model, NDens= 1.
 Grid spacing= 0.300 Box extension= 2.800
 NStep X,Y,Z=   52     43     31   Total possible points=       69316
 Number of Points to Fit=   17620

 **********************************************************************

            Electrostatic Properties Using The SCF Density.

 **********************************************************************

       Atomic Center    1 is at  -2.067356  2.468761  1.031561
       Atomic Center    2 is at  -2.124789  1.847388 -0.234898
       Atomic Center    3 is at  -2.151402  0.477067 -0.191629
       Atomic Center    4 is at  -3.354236 -0.211769 -0.108801
       Atomic Center    5 is at  -3.364860 -1.607006 -0.090454
       Atomic Center    6 is at  -2.158008 -2.296957 -0.174276
       Atomic Center    7 is at  -0.947197 -1.612848 -0.274781
       Atomic Center    8 is at  -0.921339 -0.211647 -0.269230
       Atomic Center    9 is at   0.222784  0.563020 -0.398291
       Atomic Center   10 is at   1.552961  0.221431 -0.175238
       Atomic Center   11 is at   2.555286  0.924788 -0.864373
       Atomic Center   12 is at   3.899632  0.649821 -0.638278
       Atomic Center   13 is at   4.278823 -0.341839  0.266278
       Atomic Center   14 is at   3.288707 -1.040061  0.955463
       Atomic Center   15 is at   1.939657 -0.761651  0.750184
       Atomic Center   16 is at  -2.037419  3.553100  0.862832
       Atomic Center   17 is at  -1.164953  2.163416  1.589870
       Atomic Center   18 is at  -2.956729  2.223768  1.637113
       Atomic Center   19 is at  -4.280058  0.365627 -0.062249
       Atomic Center   20 is at  -4.310243 -2.147854 -0.021234
       Atomic Center   21 is at  -2.152051 -3.389071 -0.178706
       Atomic Center   22 is at  -0.016312 -2.170689 -0.379559
       Atomic Center   23 is at   0.042189  1.495524 -0.749634
       Atomic Center   24 is at   2.266609  1.690836 -1.588732
       Atomic Center   25 is at   4.659649  1.211742 -1.186017
       Atomic Center   26 is at   5.333929 -0.564202  0.435260
       Atomic Center   27 is at   3.566986 -1.808760  1.680257
       Atomic Center   28 is at   1.183220 -1.292227  1.329448
   17620 points will be used for fitting atomic charges
 Fitting point charges to electrostatic potential
 Charges from ESP fit, RMS=   0.00397 RRMS=   0.38997:
 ESP charges:
               1
     1  C    0.199327
     2  O   -0.408111
     3  C    0.229968
     4  C   -0.206725
     5  C   -0.154157
     6  C   -0.104475
     7  C   -0.185123
     8  C    0.231447
     9  N   -0.556711
    10  C    0.406820
    11  C   -0.307108
    12  C   -0.011234
    13  C   -0.179955
    14  C   -0.068559
    15  C   -0.199218
    16  H    0.038645
    17  H   -0.029329
    18  H   -0.003243
    19  H    0.151744
    20  H    0.108669
    21  H    0.107496
    22  H    0.101454
    23  H    0.325753
    24  H    0.125250
    25  H    0.086462
    26  H    0.101328
    27  H    0.098161
    28  H    0.101424
 Sum of ESP charges =   0.00000
 ESP charges with hydrogens summed into heavy atoms:
               1
     1  C    0.205400
     2  O   -0.408111
     3  C    0.229968
     4  C   -0.054981
     5  C   -0.045488
     6  C    0.003021
     7  C   -0.083669
     8  C    0.231447
     9  N   -0.230957
    10  C    0.406820
    11  C   -0.181859
    12  C    0.075228
    13  C   -0.078627
    14  C    0.029603
    15  C   -0.097794
 Charge=   0.00000 Dipole=    -0.0835     0.6770     0.8208 Tot=     1.0673
 -----------------------------------------------------------------

              Electrostatic Properties (Atomic Units)

 -----------------------------------------------------------------
    Center     Electric         -------- Electric Field --------
               Potential          X             Y             Z
 -----------------------------------------------------------------
    1 Atom    -14.716028
    2 Atom    -22.332997
    3 Atom    -14.717390
    4 Atom    -14.769434
    5 Atom    -14.773797
    6 Atom    -14.769875
    7 Atom    -14.770666
    8 Atom    -14.721747
    9 Atom    -18.358690
   10 Atom    -14.719875
   11 Atom    -14.770578
   12 Atom    -14.767729
   13 Atom    -14.775983
   14 Atom    -14.768105
   15 Atom    -14.771875
   16 Atom     -1.105660
   17 Atom     -1.110068
   18 Atom     -1.110238
   19 Atom     -1.100898
   20 Atom     -1.109993
   21 Atom     -1.109396
   22 Atom     -1.104907
   23 Atom     -1.025511
   24 Atom     -1.101527
   25 Atom     -1.107168
   26 Atom     -1.111131
   27 Atom     -1.108197
   28 Atom     -1.105294
 -----------------------------------------------------------------
 Unable to Open any file for archive entry.
 1\1\GINC-NOTCH206\SP\RwB97XD\def2TZVP\C13H13N1O1\U1366379\17-Feb-2026\
 0\\#N Guess=Read Geom=Check Integral(Ultrafine) Density Pop=(ChelpG,Re
 adRadii) NMR wB97XD def2TZVP\\prod_3f_5\\0,1\C,0,-2.0900679782,-2.5802
 826774,0.2065514172\O,0,-2.1588098915,-1.4097864489,0.9930197782\C,0,-
 2.1004692206,-0.2425056822,0.2757931227\C,0,-3.2551326467,0.3536194,-0
 .213646355\C,0,-3.1803009609,1.5543603734,-0.9205811509\C,0,-1.9379504
 815,2.1538467701,-1.1122394848\C,0,-0.7757298299,1.5703447544,-0.60931
 01322\C,0,-0.8348020012,0.3520378253,0.0808381937\N,0,0.254296059,-0.2
 935361376,0.6490641321\C,0,1.6104173364,-0.1527959597,0.3716943304\C,0
 ,2.5406641202,-0.4532431249,1.3809738411\C,0,3.9069898067,-0.372242778
 8,1.1348359392\C,0,4.38053818,0.0248339558,-0.1155560444\C,0,3.4621584
 005,0.3203970109,-1.1215588199\C,0,2.0917399879,0.2262156765,-0.892058
 0556\H,0,-2.1326009191,-3.4373577311,0.8912189749\H,0,-1.1497882174,-2
 .6234233793,-0.3707606592\H,0,-2.9387334341,-2.6393849678,-0.496280749
 3\H,0,-4.2117976326,-0.1391435117,-0.0274295677\H,0,-4.0876969325,2.02
 03663513,-1.3085608592\H,0,-1.8658692334,3.1025898923,-1.6483923979\H,
 0,0.1825351542,2.0749482688,-0.7350652438\H,0,0.0039050478,-0.92112582
 26,1.4034229554\H,0,2.1780914203,-0.7473903857,2.3693458153\H,0,4.6096
 376231,-0.6123143252,1.9361163517\H,0,5.452964448,0.098302652,-0.30464
 12615\H,0,3.8145376243,0.6169738033,-2.1122828112\H,0,1.3919841712,0.4
 23316199,-1.7049212595\\Version=ES64L-G16RevC.01\State=1-A\HF=-633.186
 9335\RMSD=1.290e-09\Dipole=-0.0356963,-0.4193285,-0.1775929\Quadrupole
 =1.4413692,-0.0846867,-1.3566825,1.5569502,2.2247546,-3.3808411\PG=C01
  [X(C13H13N1O1)]\\@
 The archive entry for this job was punched.


 IN-LAWS ARE LIKE SEEDS. YOU DON'T NEED THEM
 BUT THEY COME WITH THE TOMATO.
 Job cpu time:       0 days  1 hours  0 minutes 40.9 seconds.
 Elapsed time:       0 days  0 hours  7 minutes 49.1 seconds.
 File lengths (MBytes):  RWF=    183 Int=      0 D2E=      0 Chk=     28 Scr=      2
 Normal termination of Gaussian 16 at Tue Feb 17 16:33:20 2026.
