 Entering Gaussian System, Link 0=g16
 Input=prod_5l_34.com
 Output=prod_5l_34.log
 Initial command:
 /uufs/chpc.utah.edu/sys/installdir/gaussian16/C01/AVX/g16/l1.exe "/scratch/general/vast/u1366379/GAUSSSCRDIR/11028710-notchpeak.peaks/Gau-3984362.inp" -scrdir="/scratch/general/vast/u1366379/GAUSSSCRDIR/11028710-notchpeak.peaks/"
 Entering Link 1 = /uufs/chpc.utah.edu/sys/installdir/gaussian16/C01/AVX/g16/l1.exe PID=   3984366.
  
 Copyright (c) 1988-2019, Gaussian, Inc.  All Rights Reserved.
  
 This is part of the Gaussian(R) 16 program.  It is based on
 the Gaussian(R) 09 system (copyright 2009, Gaussian, Inc.),
 the Gaussian(R) 03 system (copyright 2003, Gaussian, Inc.),
 the Gaussian(R) 98 system (copyright 1998, Gaussian, Inc.),
 the Gaussian(R) 94 system (copyright 1995, Gaussian, Inc.),
 the Gaussian 92(TM) system (copyright 1992, Gaussian, Inc.),
 the Gaussian 90(TM) system (copyright 1990, Gaussian, Inc.),
 the Gaussian 88(TM) system (copyright 1988, Gaussian, Inc.),
 the Gaussian 86(TM) system (copyright 1986, Carnegie Mellon
 University), and the Gaussian 82(TM) system (copyright 1983,
 Carnegie Mellon University). Gaussian is a federally registered
 trademark of Gaussian, Inc.
  
 This software contains proprietary and confidential information,
 including trade secrets, belonging to Gaussian, Inc.
  
 This software is provided under written license and may be
 used, copied, transmitted, or stored only in accord with that
 written license.
  
 The following legend is applicable only to US Government
 contracts under FAR:
  
                    RESTRICTED RIGHTS LEGEND
  
 Use, reproduction and disclosure by the US Government is
 subject to restrictions as set forth in subparagraphs (a)
 and (c) of the Commercial Computer Software - Restricted
 Rights clause in FAR 52.227-19.
  
 Gaussian, Inc.
 340 Quinnipiac St., Bldg. 40, Wallingford CT 06492
  
  
 ---------------------------------------------------------------
 Warning -- This program may not be used in any manner that
 competes with the business of Gaussian, Inc. or will provide
 assistance to any competitor of Gaussian, Inc.  The licensee
 of this program is prohibited from giving any competitor of
 Gaussian, Inc. access to this program.  By using this program,
 the user acknowledges that Gaussian, Inc. is engaged in the
 business of creating and licensing software in the field of
 computational chemistry and represents and warrants to the
 licensee that it is not a competitor of Gaussian, Inc. and that
 it will not use this program in any manner prohibited above.
 ---------------------------------------------------------------
  

 Cite this work as:
 Gaussian 16, Revision C.01,
 M. J. Frisch, G. W. Trucks, H. B. Schlegel, G. E. Scuseria, 
 M. A. Robb, J. R. Cheeseman, G. Scalmani, V. Barone, 
 G. A. Petersson, H. Nakatsuji, X. Li, M. Caricato, A. V. Marenich, 
 J. Bloino, B. G. Janesko, R. Gomperts, B. Mennucci, H. P. Hratchian, 
 J. V. Ortiz, A. F. Izmaylov, J. L. Sonnenberg, D. Williams-Young, 
 F. Ding, F. Lipparini, F. Egidi, J. Goings, B. Peng, A. Petrone, 
 T. Henderson, D. Ranasinghe, V. G. Zakrzewski, J. Gao, N. Rega, 
 G. Zheng, W. Liang, M. Hada, M. Ehara, K. Toyota, R. Fukuda, 
 J. Hasegawa, M. Ishida, T. Nakajima, Y. Honda, O. Kitao, H. Nakai, 
 T. Vreven, K. Throssell, J. A. Montgomery, Jr., J. E. Peralta, 
 F. Ogliaro, M. J. Bearpark, J. J. Heyd, E. N. Brothers, K. N. Kudin, 
 V. N. Staroverov, T. A. Keith, R. Kobayashi, J. Normand, 
 K. Raghavachari, A. P. Rendell, J. C. Burant, S. S. Iyengar, 
 J. Tomasi, M. Cossi, J. M. Millam, M. Klene, C. Adamo, R. Cammi, 
 J. W. Ochterski, R. L. Martin, K. Morokuma, O. Farkas, 
 J. B. Foresman, and D. J. Fox, Gaussian, Inc., Wallingford CT, 2019.
 
 ******************************************
 Gaussian 16:  ES64L-G16RevC.01  3-Jul-2019
                17-Feb-2026 
 ******************************************
 %NProcShared=8
 Will use up to    8 processors via shared memory.
 %Mem=8GB
 %chk=prod_5l_34.chk
 ------------------------------------------------------
 #N OPT FREQ=NORAMAN Integral(Ultrafine) wB97XD def2SVP
 ------------------------------------------------------
 1/18=20,19=15,26=4,38=1/1,3;
 2/9=110,12=2,17=6,18=5,40=1/2;
 3/5=43,7=101,11=2,25=1,30=1,71=1,74=-58,75=-5/1,2,3;
 4//1;
 5/5=2,38=5/2;
 6/7=2,8=2,9=2,10=2,28=1/1;
 7//1,2,3,16;
 1/18=20,19=15,26=4/3(2);
 2/9=110/2;
 99//99;
 2/9=110/2;
 3/5=43,7=101,11=2,25=1,30=1,71=1,74=-58,75=-5/1,2,3;
 4/5=5,16=3,69=1/1;
 5/5=2,38=5/2;
 7//1,2,3,16;
 1/18=20,19=15,26=4/3(-5);
 2/9=110/2;
 6/7=2,8=2,9=2,10=2,19=2,28=1/1;
 99/9=1/99;
 ----------
 prod_5l_34
 ----------
 Symbolic Z-matrix:
 Charge =  0 Multiplicity = 1
 O                     0.42661   1.61785   1.51888 
 S                     0.01288   1.57065   0.0769 
 N                     1.07185   0.72004  -0.96 
 C                     2.10893  -0.07321  -0.4706 
 C                     2.23213  -0.43065   0.87663 
 C                     3.25106  -1.24676   1.30558 
 C                     4.17843  -1.72912   0.40405 
 C                     4.08222  -1.38756  -0.93028 
 C                     3.06352  -0.57202  -1.36411 
 C                    -1.39875   0.46019   0.02819 
 C                    -2.48927   0.74262   0.81464 
 C                    -3.58701  -0.09415   0.79707 
 C                    -3.60552  -1.21898  -0.01523 
 C                    -4.77768  -2.13537  -0.01837 
 C                    -2.49263  -1.49408  -0.79643 
 C                    -1.39717  -0.65558  -0.77416 
 O                    -0.37239   2.81963  -0.66029 
 H                     1.30743   1.38521  -1.66871 
 H                     1.53143  -0.02655   1.58362 
 H                     3.33095  -1.50321   2.34922 
 H                     4.97855  -2.3668    0.74195 
 H                     4.80742  -1.76193  -1.63392 
 H                     2.98095  -0.31112  -2.40448 
 H                    -2.47173   1.61842   1.44295 
 H                    -4.43936   0.12218   1.41771 
 H                    -5.6907   -1.60823   0.25981 
 H                    -4.93423  -2.56842  -1.00674 
 H                    -4.63169  -2.95231   0.68879 
 H                    -2.49051  -2.37041  -1.42135 
 H                    -0.53239  -0.86547  -1.37891 
 

 GradGradGradGradGradGradGradGradGradGradGradGradGradGradGradGradGradGrad
 Berny optimization.
 Initialization pass.
                           ----------------------------
                           !    Initial Parameters    !
                           ! (Angstroms and Degrees)  !
 --------------------------                            --------------------------
 ! Name  Definition              Value          Derivative Info.                !
 --------------------------------------------------------------------------------
 ! R1    R(1,2)                  1.5009         estimate D2E/DX2                !
 ! R2    R(2,3)                  1.7088         estimate D2E/DX2                !
 ! R3    R(2,10)                 1.7967         estimate D2E/DX2                !
 ! R4    R(2,17)                 1.5006         estimate D2E/DX2                !
 ! R5    R(3,4)                  1.3944         estimate D2E/DX2                !
 ! R6    R(3,18)                 1.0001         estimate D2E/DX2                !
 ! R7    R(4,5)                  1.3993         estimate D2E/DX2                !
 ! R8    R(4,9)                  1.3994         estimate D2E/DX2                !
 ! R9    R(5,6)                  1.3741         estimate D2E/DX2                !
 ! R10   R(5,19)                 1.0743         estimate D2E/DX2                !
 ! R11   R(6,7)                  1.3804         estimate D2E/DX2                !
 ! R12   R(6,20)                 1.0777         estimate D2E/DX2                !
 ! R13   R(7,8)                  1.3807         estimate D2E/DX2                !
 ! R14   R(7,21)                 1.0775         estimate D2E/DX2                !
 ! R15   R(8,9)                  1.3752         estimate D2E/DX2                !
 ! R16   R(8,22)                 1.0776         estimate D2E/DX2                !
 ! R17   R(9,23)                 1.0758         estimate D2E/DX2                !
 ! R18   R(10,11)                1.3739         estimate D2E/DX2                !
 ! R19   R(10,16)                1.3743         estimate D2E/DX2                !
 ! R20   R(11,12)                1.3804         estimate D2E/DX2                !
 ! R21   R(11,24)                1.078          estimate D2E/DX2                !
 ! R22   R(12,13)                1.3876         estimate D2E/DX2                !
 ! R23   R(12,25)                1.0763         estimate D2E/DX2                !
 ! R24   R(13,14)                1.4879         estimate D2E/DX2                !
 ! R25   R(13,15)                1.3873         estimate D2E/DX2                !
 ! R26   R(14,26)                1.0904         estimate D2E/DX2                !
 ! R27   R(14,27)                1.0904         estimate D2E/DX2                !
 ! R28   R(14,28)                1.0903         estimate D2E/DX2                !
 ! R29   R(15,16)                1.3797         estimate D2E/DX2                !
 ! R30   R(15,29)                1.0763         estimate D2E/DX2                !
 ! R31   R(16,30)                1.0759         estimate D2E/DX2                !
 ! A1    A(1,2,3)              115.3278         estimate D2E/DX2                !
 ! A2    A(1,2,10)             105.1921         estimate D2E/DX2                !
 ! A3    A(1,2,17)             121.1026         estimate D2E/DX2                !
 ! A4    A(3,2,10)              99.3686         estimate D2E/DX2                !
 ! A5    A(3,2,17)             105.9809         estimate D2E/DX2                !
 ! A6    A(10,2,17)            107.4202         estimate D2E/DX2                !
 ! A7    A(2,3,4)              122.0809         estimate D2E/DX2                !
 ! A8    A(2,3,18)             104.1757         estimate D2E/DX2                !
 ! A9    A(4,3,18)             116.8649         estimate D2E/DX2                !
 ! A10   A(3,4,5)              123.2801         estimate D2E/DX2                !
 ! A11   A(3,4,9)              119.0791         estimate D2E/DX2                !
 ! A12   A(5,4,9)              117.6212         estimate D2E/DX2                !
 ! A13   A(4,5,6)              121.1679         estimate D2E/DX2                !
 ! A14   A(4,5,19)             118.6922         estimate D2E/DX2                !
 ! A15   A(6,5,19)             120.1065         estimate D2E/DX2                !
 ! A16   A(5,6,7)              120.1207         estimate D2E/DX2                !
 ! A17   A(5,6,20)             119.9081         estimate D2E/DX2                !
 ! A18   A(7,6,20)             119.9689         estimate D2E/DX2                !
 ! A19   A(6,7,8)              119.8617         estimate D2E/DX2                !
 ! A20   A(6,7,21)             120.0576         estimate D2E/DX2                !
 ! A21   A(8,7,21)             120.0801         estimate D2E/DX2                !
 ! A22   A(7,8,9)              120.2124         estimate D2E/DX2                !
 ! A23   A(7,8,22)             119.8816         estimate D2E/DX2                !
 ! A24   A(9,8,22)             119.906          estimate D2E/DX2                !
 ! A25   A(4,9,8)              121.0155         estimate D2E/DX2                !
 ! A26   A(4,9,23)             118.5988         estimate D2E/DX2                !
 ! A27   A(8,9,23)             120.3837         estimate D2E/DX2                !
 ! A28   A(2,10,11)            118.7548         estimate D2E/DX2                !
 ! A29   A(2,10,16)            121.1116         estimate D2E/DX2                !
 ! A30   A(11,10,16)           120.1334         estimate D2E/DX2                !
 ! A31   A(10,11,12)           119.9551         estimate D2E/DX2                !
 ! A32   A(10,11,24)           119.192          estimate D2E/DX2                !
 ! A33   A(12,11,24)           120.8524         estimate D2E/DX2                !
 ! A34   A(11,12,13)           120.6269         estimate D2E/DX2                !
 ! A35   A(11,12,25)           120.0377         estimate D2E/DX2                !
 ! A36   A(13,12,25)           119.3354         estimate D2E/DX2                !
 ! A37   A(12,13,14)           120.7319         estimate D2E/DX2                !
 ! A38   A(12,13,15)           118.6662         estimate D2E/DX2                !
 ! A39   A(14,13,15)           120.5757         estimate D2E/DX2                !
 ! A40   A(13,14,26)           111.185          estimate D2E/DX2                !
 ! A41   A(13,14,27)           111.0778         estimate D2E/DX2                !
 ! A42   A(13,14,28)           110.7707         estimate D2E/DX2                !
 ! A43   A(26,14,27)           107.6407         estimate D2E/DX2                !
 ! A44   A(26,14,28)           107.9924         estimate D2E/DX2                !
 ! A45   A(27,14,28)           108.0325         estimate D2E/DX2                !
 ! A46   A(13,15,16)           120.4868         estimate D2E/DX2                !
 ! A47   A(13,15,29)           119.3399         estimate D2E/DX2                !
 ! A48   A(16,15,29)           120.1732         estimate D2E/DX2                !
 ! A49   A(10,16,15)           120.127          estimate D2E/DX2                !
 ! A50   A(10,16,30)           119.1735         estimate D2E/DX2                !
 ! A51   A(15,16,30)           120.6993         estimate D2E/DX2                !
 ! D1    D(1,2,3,4)             11.0938         estimate D2E/DX2                !
 ! D2    D(1,2,3,18)          -124.0119         estimate D2E/DX2                !
 ! D3    D(10,2,3,4)          -100.741          estimate D2E/DX2                !
 ! D4    D(10,2,3,18)          124.1534         estimate D2E/DX2                !
 ! D5    D(17,2,3,4)           147.9824         estimate D2E/DX2                !
 ! D6    D(17,2,3,18)           12.8767         estimate D2E/DX2                !
 ! D7    D(1,2,10,11)           56.7656         estimate D2E/DX2                !
 ! D8    D(1,2,10,16)         -123.0586         estimate D2E/DX2                !
 ! D9    D(3,2,10,11)          176.3748         estimate D2E/DX2                !
 ! D10   D(3,2,10,16)           -3.4493         estimate D2E/DX2                !
 ! D11   D(17,2,10,11)         -73.491          estimate D2E/DX2                !
 ! D12   D(17,2,10,16)         106.6848         estimate D2E/DX2                !
 ! D13   D(2,3,4,5)             11.5718         estimate D2E/DX2                !
 ! D14   D(2,3,4,9)           -170.0822         estimate D2E/DX2                !
 ! D15   D(18,3,4,5)           141.4777         estimate D2E/DX2                !
 ! D16   D(18,3,4,9)           -40.1762         estimate D2E/DX2                !
 ! D17   D(3,4,5,6)            178.1091         estimate D2E/DX2                !
 ! D18   D(3,4,5,19)            -3.9902         estimate D2E/DX2                !
 ! D19   D(9,4,5,6)             -0.2596         estimate D2E/DX2                !
 ! D20   D(9,4,5,19)           177.6411         estimate D2E/DX2                !
 ! D21   D(3,4,9,8)           -178.2347         estimate D2E/DX2                !
 ! D22   D(3,4,9,23)             1.2578         estimate D2E/DX2                !
 ! D23   D(5,4,9,8)              0.2048         estimate D2E/DX2                !
 ! D24   D(5,4,9,23)           179.6973         estimate D2E/DX2                !
 ! D25   D(4,5,6,7)              0.09           estimate D2E/DX2                !
 ! D26   D(4,5,6,20)           179.5425         estimate D2E/DX2                !
 ! D27   D(19,5,6,7)          -177.7813         estimate D2E/DX2                !
 ! D28   D(19,5,6,20)            1.6712         estimate D2E/DX2                !
 ! D29   D(5,6,7,8)              0.1422         estimate D2E/DX2                !
 ! D30   D(5,6,7,21)           179.8329         estimate D2E/DX2                !
 ! D31   D(20,6,7,8)          -179.31           estimate D2E/DX2                !
 ! D32   D(20,6,7,21)            0.3808         estimate D2E/DX2                !
 ! D33   D(6,7,8,9)             -0.1964         estimate D2E/DX2                !
 ! D34   D(6,7,8,22)           179.8472         estimate D2E/DX2                !
 ! D35   D(21,7,8,9)          -179.887          estimate D2E/DX2                !
 ! D36   D(21,7,8,22)            0.1566         estimate D2E/DX2                !
 ! D37   D(7,8,9,4)              0.0191         estimate D2E/DX2                !
 ! D38   D(7,8,9,23)          -179.4644         estimate D2E/DX2                !
 ! D39   D(22,8,9,4)           179.9755         estimate D2E/DX2                !
 ! D40   D(22,8,9,23)            0.492          estimate D2E/DX2                !
 ! D41   D(2,10,11,12)        -179.9657         estimate D2E/DX2                !
 ! D42   D(2,10,11,24)          -0.2147         estimate D2E/DX2                !
 ! D43   D(16,10,11,12)         -0.1397         estimate D2E/DX2                !
 ! D44   D(16,10,11,24)        179.6113         estimate D2E/DX2                !
 ! D45   D(2,10,16,15)        -179.9582         estimate D2E/DX2                !
 ! D46   D(2,10,16,30)           0.2212         estimate D2E/DX2                !
 ! D47   D(11,10,16,15)          0.22           estimate D2E/DX2                !
 ! D48   D(11,10,16,30)       -179.6006         estimate D2E/DX2                !
 ! D49   D(10,11,12,13)         -0.3659         estimate D2E/DX2                !
 ! D50   D(10,11,12,25)        179.5819         estimate D2E/DX2                !
 ! D51   D(24,11,12,13)        179.8874         estimate D2E/DX2                !
 ! D52   D(24,11,12,25)         -0.1649         estimate D2E/DX2                !
 ! D53   D(11,12,13,14)        178.9276         estimate D2E/DX2                !
 ! D54   D(11,12,13,15)          0.7756         estimate D2E/DX2                !
 ! D55   D(25,12,13,14)         -1.0205         estimate D2E/DX2                !
 ! D56   D(25,12,13,15)       -179.1725         estimate D2E/DX2                !
 ! D57   D(12,13,14,26)         26.8986         estimate D2E/DX2                !
 ! D58   D(12,13,14,27)        146.7463         estimate D2E/DX2                !
 ! D59   D(12,13,14,28)        -93.1878         estimate D2E/DX2                !
 ! D60   D(15,13,14,26)       -154.9848         estimate D2E/DX2                !
 ! D61   D(15,13,14,27)        -35.1371         estimate D2E/DX2                !
 ! D62   D(15,13,14,28)         84.9288         estimate D2E/DX2                !
 ! D63   D(12,13,15,16)         -0.6943         estimate D2E/DX2                !
 ! D64   D(12,13,15,29)        179.248          estimate D2E/DX2                !
 ! D65   D(14,13,15,16)       -178.8493         estimate D2E/DX2                !
 ! D66   D(14,13,15,29)          1.093          estimate D2E/DX2                !
 ! D67   D(13,15,16,10)          0.2043         estimate D2E/DX2                !
 ! D68   D(13,15,16,30)       -179.9778         estimate D2E/DX2                !
 ! D69   D(29,15,16,10)       -179.7375         estimate D2E/DX2                !
 ! D70   D(29,15,16,30)          0.0804         estimate D2E/DX2                !
 --------------------------------------------------------------------------------
 Trust Radius=3.00D-01 FncErr=1.00D-07 GrdErr=1.00D-06 EigMax=2.50D+02 EigMin=1.00D-04
 Number of steps in this run=    162 maximum allowed number of steps=    180.
 GradGradGradGradGradGradGradGradGradGradGradGradGradGradGradGradGradGrad

                          Input orientation:                          
 ---------------------------------------------------------------------
 Center     Atomic      Atomic             Coordinates (Angstroms)
 Number     Number       Type             X           Y           Z
 ---------------------------------------------------------------------
      1          8           0        0.426610    1.617850    1.518880
      2         16           0        0.012880    1.570650    0.076900
      3          7           0        1.071850    0.720040   -0.960000
      4          6           0        2.108930   -0.073210   -0.470600
      5          6           0        2.232130   -0.430650    0.876630
      6          6           0        3.251060   -1.246760    1.305580
      7          6           0        4.178430   -1.729120    0.404050
      8          6           0        4.082220   -1.387560   -0.930280
      9          6           0        3.063520   -0.572020   -1.364110
     10          6           0       -1.398750    0.460190    0.028190
     11          6           0       -2.489270    0.742620    0.814640
     12          6           0       -3.587010   -0.094150    0.797070
     13          6           0       -3.605520   -1.218980   -0.015230
     14          6           0       -4.777680   -2.135370   -0.018370
     15          6           0       -2.492630   -1.494080   -0.796430
     16          6           0       -1.397170   -0.655580   -0.774160
     17          8           0       -0.372390    2.819630   -0.660290
     18          1           0        1.307430    1.385210   -1.668710
     19          1           0        1.531430   -0.026550    1.583620
     20          1           0        3.330950   -1.503210    2.349220
     21          1           0        4.978550   -2.366800    0.741950
     22          1           0        4.807420   -1.761930   -1.633920
     23          1           0        2.980950   -0.311120   -2.404480
     24          1           0       -2.471730    1.618420    1.442950
     25          1           0       -4.439360    0.122180    1.417710
     26          1           0       -5.690700   -1.608230    0.259810
     27          1           0       -4.934230   -2.568420   -1.006740
     28          1           0       -4.631690   -2.952310    0.688790
     29          1           0       -2.490510   -2.370410   -1.421350
     30          1           0       -0.532390   -0.865470   -1.378910
 ---------------------------------------------------------------------
                    Distance matrix (angstroms):
                    1          2          3          4          5
     1  O    0.000000
     2  S    1.500902   0.000000
     3  N    2.714267   1.708835   0.000000
     4  C    3.106109   2.719459   1.394379   0.000000
     5  C    2.805127   3.093516   2.458363   1.399275   0.000000
     6  C    4.028524   4.464668   3.708114   2.415884   1.374137
     7  C    5.149875   5.324220   4.184478   2.791036   2.386931
     8  C    5.328636   5.130784   3.674941   2.415097   2.757432
     9  C    4.478890   3.996742   2.408210   1.399433   2.394183
    10  C    2.625695   1.796717   2.673557   3.582894   3.833632
    11  C    3.124794   2.736905   3.978873   4.843642   4.865390
    12  C    4.422793   4.031056   5.045312   5.835337   5.829404
    13  C    5.163252   4.569830   5.150745   5.845946   5.957771
    14  C    6.598063   6.057485   6.577008   7.202945   7.269424
    15  C    4.854558   4.053746   4.199357   4.826944   5.123804
    16  C    3.708462   2.769232   2.832477   3.567077   3.993435
    17  O    2.613706   1.500611   2.565918   3.815947   4.439591
    18  H    3.315222   2.181147   1.000109   2.050575   3.260548
    19  H    1.982138   2.669690   2.690467   2.134362   1.074296
    20  H    4.343463   5.061782   4.582282   3.389634   2.127513
    21  H    6.099280   6.372102   5.261893   3.868534   3.362981
    22  H    6.368246   6.084456   4.535287   3.389238   3.835008
    23  H    5.063431   4.302063   2.606622   2.134692   3.367596
    24  H    2.899334   2.835782   4.374725   5.244591   5.161948
    25  H    5.091653   4.870141   6.031946   6.817917   6.716187
    26  H    7.029533   6.532194   7.255402   7.982732   8.033579
    27  H    7.255496   6.540648   6.847565   7.491303   7.711930
    28  H    6.867446   6.511805   6.981048   7.420873   7.314785
    29  H    5.749849   4.903434   4.738579   5.228375   5.598813
    30  H    3.934939   2.889876   2.294104   2.903321   3.594315
                    6          7          8          9         10
     6  C    0.000000
     7  C    1.380378   0.000000
     8  C    2.389502   1.380709   0.000000
     9  C    2.760016   2.389204   1.375160   0.000000
    10  C    5.115285   6.003273   5.862924   4.787046   0.000000
    11  C    6.095084   7.122942   7.125089   6.108085   1.373865
    12  C    6.953150   7.945417   7.967041   7.009180   2.384733
    13  C    6.982693   7.811909   7.743842   6.834774   2.773325
    14  C    8.185544   8.975265   8.938044   8.107990   4.261017
    15  C    6.121241   6.782289   6.577075   5.660676   2.386576
    16  C    5.126486   5.798964   5.530270   4.500309   1.374304
    17  O    5.790472   6.521803   6.133261   4.878948   2.663527
    18  H    4.421693   4.715721   3.991615   2.647146   3.325439
    19  H    2.126816   3.361062   3.831262   3.366593   3.352944
    20  H    1.077652   2.133763   3.366438   3.837636   5.622471
    21  H    2.134570   1.077499   2.135105   3.365125   7.012224
    22  H    3.365757   2.133079   1.077579   2.128349   6.798307
    23  H    3.835743   3.366381   2.131850   1.075759   5.068982
    24  H    6.401441   7.517311   7.590942   6.581535   2.119983
    25  H    7.812114   8.872492   8.967145   8.032039   3.360108
    26  H    9.009959   9.870924   9.847587   8.963661   4.769994
    27  H    8.607705   9.259337   9.093770   8.250899   4.768981
    28  H    8.088701   8.899185   9.000114   8.312427   4.746941
    29  H    6.454794   6.943925   6.663927   5.838213   3.362351
    30  H    4.654714   5.110446   4.665670   3.607894   2.118463
                   11         12         13         14         15
    11  C    0.000000
    12  C    1.380408   0.000000
    13  C    2.404698   1.387594   0.000000
    14  C    3.770087   2.499843   1.487864   0.000000
    15  C    2.756517   2.386779   1.387255   2.497616   0.000000
    16  C    2.381582   2.753065   2.402125   3.766808   1.379714
    17  O    3.312185   4.576876   5.213406   6.661131   4.808539
    18  H    4.582017   5.676629   5.801110   7.221265   4.846817
    19  H    4.165211   5.178963   5.510578   6.842395   4.900137
    20  H    6.424457   7.228609   7.333896   8.470832   6.618858
    21  H    8.089630   8.862099   8.693507   9.788548   7.677681
    22  H    8.093819   8.897059   8.584434   9.727466   7.352813
    23  H    6.434004   7.309931   7.065006   8.319720   5.826259
    24  H    1.078011   2.143340   3.385647   4.641530   3.834438
    25  H    2.133422   1.076333   2.132444   2.696909   3.362212
    26  H    4.010422   2.646998   2.138957   1.090351   3.369915
    27  H    4.500916   3.345257   2.137651   1.090374   2.675789
    28  H    4.272974   3.045022   2.133800   1.090312   2.984609
    29  H    3.832833   3.362300   2.132185   2.693463   1.076329
    30  H    3.350671   3.828907   3.380639   4.635321   2.139386
                   16         17         18         19         20
    16  C    0.000000
    17  O    3.624945   0.000000
    18  H    3.504269   2.428223   0.000000
    19  H    3.812021   4.093947   3.552590   0.000000
    20  H    5.729668   6.438853   5.346154   2.450498   0.000000
    21  H    6.773232   7.582736   5.776330   4.250625   2.458392
    22  H    6.360828   6.983486   4.706977   4.908790   4.255855
    23  H    4.684499   4.908022   2.493905   4.252885   4.913374
    24  H    3.352810   3.205269   4.900905   4.330243   6.651090
    25  H    3.829377   5.304203   6.644308   5.974946   7.992954
    26  H    4.517857   6.981185   7.851987   7.510882   9.261038
    27  H    4.027883   7.068345   7.418067   7.414569   8.983893
    28  H    4.228157   7.299106   7.723020   6.880759   8.261995
    29  H    2.134219   5.657045   5.346982   5.540715   6.989895
    30  H    1.075928   3.757922   2.921384   3.706713   5.406576
                   21         22         23         24         25
    21  H    0.000000
    22  H    2.457623   0.000000
    23  H    4.256319   2.456543   0.000000
    24  H    8.478210   8.595343   6.946766   0.000000
    25  H    9.764666   9.917926   8.358103   2.472031   0.000000
    26  H   10.707044  10.668663   9.163976   4.708806   2.429177
    27  H   10.067858   9.795077   8.348602   5.440084   3.655432
    28  H    9.628207   9.793303   8.631135   5.111336   3.165565
    29  H    7.776036   7.326337   5.928245   4.910736   4.251033
    30  H    6.092824   5.420539   3.701710   4.230088   4.905196
                   26         27         28         29         30
    26  H    0.000000
    27  H    1.760216   0.000000
    28  H    1.764108   1.764575   0.000000
    29  H    3.694379   2.486539   3.062017   0.000000
    30  H    5.463081   4.734421   5.043267   2.469996   0.000000
 Stoichiometry    C13H13NO2S
 Framework group  C1[X(C13H13NO2S)]
 Deg. of freedom    84
 Full point group                 C1      NOp   1
 Largest Abelian subgroup         C1      NOp   1
 Largest concise Abelian subgroup C1      NOp   1
                         Standard orientation:                         
 ---------------------------------------------------------------------
 Center     Atomic      Atomic             Coordinates (Angstroms)
 Number     Number       Type             X           Y           Z
 ---------------------------------------------------------------------
      1          8           0        0.402302    1.805310    1.372496
      2         16           0        0.031494    1.621608   -0.070231
      3          7           0        1.122163    0.682548   -0.991494
      4          6           0        2.145697   -0.056775   -0.399826
      5          6           0        2.229613   -0.286107    0.977975
      6          6           0        3.236834   -1.053925    1.511092
      7          6           0        4.191311   -1.614287    0.686222
      8          6           0        4.134019   -1.399438   -0.676464
      9          6           0        3.127174   -0.632643   -1.214378
     10          6           0       -1.376131    0.505103   -0.056108
     11          6           0       -2.489932    0.854917    0.668172
     12          6           0       -3.585206    0.015227    0.696860
     13          6           0       -3.577709   -1.180706   -0.006776
     14          6           0       -4.747658   -2.098652    0.041545
     15          6           0       -2.441716   -1.522630   -0.725863
     16          6           0       -1.348864   -0.680789   -0.750102
     17          8           0       -0.333984    2.794429   -0.932062
     18          1           0        1.377441    1.279586   -1.752150
     19          1           0        1.507599    0.179170    1.623207
     20          1           0        3.286264   -1.211295    2.576045
     21          1           0        4.982199   -2.213960    1.105618
     22          1           0        4.880372   -1.834691   -1.320428
     23          1           0        3.074961   -0.470549   -2.276572
     24          1           0       -2.492520    1.785704    1.211988
     25          1           0       -4.455921    0.284800    1.269293
     26          1           0       -5.669429   -1.551932    0.242299
     27          1           0       -4.874142   -2.622931   -0.906109
     28          1           0       -4.621223   -2.845217    0.826041
     29          1           0       -2.419577   -2.453539   -1.265679
     30          1           0       -0.466206   -0.942408   -1.306961
 ---------------------------------------------------------------------
 Rotational constants (GHZ):           0.7479900           0.2619703           0.2252402
 Standard basis: def2SVP (5D, 7F)
 There are   324 symmetry adapted cartesian basis functions of A   symmetry.
 There are   307 symmetry adapted basis functions of A   symmetry.
   307 basis functions,   528 primitive gaussians,   324 cartesian basis functions
    65 alpha electrons       65 beta electrons
       nuclear repulsion energy      1307.2231733795 Hartrees.
 NAtoms=   30 NActive=   30 NUniq=   30 SFac= 1.00D+00 NAtFMM=   60 NAOKFM=F Big=F
 Integral buffers will be    131072 words long.
 Raffenetti 2 integral format.
 Two-electron integral symmetry is turned on.
 Nuclear repulsion after empirical dispersion term =     1307.2043131529 Hartrees.
 One-electron integrals computed using PRISM.
   1 Symmetry operations used in ECPInt.
 ECPInt:  NShTT=   10296 NPrTT=   38220 LenC2=    9365 LenP2D=   24602.
 LDataN:  DoStor=T MaxTD1= 4 Len=   56
 NBasis=   307 RedAO= T EigKep=  2.37D-04  NBF=   307
 NBsUse=   307 1.00D-06 EigRej= -1.00D+00 NBFU=   307
 ExpMin= 1.22D-01 ExpMax= 9.18D+03 ExpMxC= 1.38D+03 IAcc=3 IRadAn=         5 AccDes= 0.00D+00
 Harris functional with IExCor= 4639 and IRadAn=       5 diagonalized for initial guess.
 HarFok:  IExCor= 4639 AccDes= 0.00D+00 IRadAn=         5 IDoV= 1 UseB2=F ITyADJ=14
 ICtDFT=  3500011 ScaDFX=  1.000000  1.000000  1.000000  1.000000
 FoFCou: FMM=F IPFlag=           0 FMFlag=      100000 FMFlg1=           0
         NFxFlg=           0 DoJE=T BraDBF=F KetDBF=T FulRan=T
         wScrn=  0.000000 ICntrl=       500 IOpCl=  0 I1Cent=   200000004 NGrid=           0
         NMat0=    1 NMatS0=      1 NMatT0=    0 NMatD0=    1 NMtDS0=    0 NMtDT0=    0
 Petite list used in FoFCou.
 Requested convergence on RMS density matrix=1.00D-08 within 128 cycles.
 Requested convergence on MAX density matrix=1.00D-06.
 Requested convergence on             energy=1.00D-06.
 No special actions if energy rises.
 Integral accuracy reduced to 1.0D-05 until final iterations.
 Initial convergence to 1.0D-05 achieved.  Increase integral accuracy.
 SCF Done:  E(RwB97XD) =  -1105.64159541     A.U. after   16 cycles
            NFock= 16  Conv=0.35D-08     -V/T= 2.0071

 **********************************************************************

            Population analysis using the SCF Density.

 **********************************************************************

 Orbital symmetries:
       Occupied  (A) (A) (A) (A) (A) (A) (A) (A) (A) (A) (A) (A)
                 (A) (A) (A) (A) (A) (A) (A) (A) (A) (A) (A) (A)
                 (A) (A) (A) (A) (A) (A) (A) (A) (A) (A) (A) (A)
                 (A) (A) (A) (A) (A) (A) (A) (A) (A) (A) (A) (A)
                 (A) (A) (A) (A) (A) (A) (A) (A) (A) (A) (A) (A)
                 (A) (A) (A) (A) (A)
       Virtual   (A) (A) (A) (A) (A) (A) (A) (A) (A) (A) (A) (A)
                 (A) (A) (A) (A) (A) (A) (A) (A) (A) (A) (A) (A)
                 (A) (A) (A) (A) (A) (A) (A) (A) (A) (A) (A) (A)
                 (A) (A) (A) (A) (A) (A) (A) (A) (A) (A) (A) (A)
                 (A) (A) (A) (A) (A) (A) (A) (A) (A) (A) (A) (A)
                 (A) (A) (A) (A) (A) (A) (A) (A) (A) (A) (A) (A)
                 (A) (A) (A) (A) (A) (A) (A) (A) (A) (A) (A) (A)
                 (A) (A) (A) (A) (A) (A) (A) (A) (A) (A) (A) (A)
                 (A) (A) (A) (A) (A) (A) (A) (A) (A) (A) (A) (A)
                 (A) (A) (A) (A) (A) (A) (A) (A) (A) (A) (A) (A)
                 (A) (A) (A) (A) (A) (A) (A) (A) (A) (A) (A) (A)
                 (A) (A) (A) (A) (A) (A) (A) (A) (A) (A) (A) (A)
                 (A) (A) (A) (A) (A) (A) (A) (A) (A) (A) (A) (A)
                 (A) (A) (A) (A) (A) (A) (A) (A) (A) (A) (A) (A)
                 (A) (A) (A) (A) (A) (A) (A) (A) (A) (A) (A) (A)
                 (A) (A) (A) (A) (A) (A) (A) (A) (A) (A) (A) (A)
                 (A) (A) (A) (A) (A) (A) (A) (A) (A) (A) (A) (A)
                 (A) (A) (A) (A) (A) (A) (A) (A) (A) (A) (A) (A)
                 (A) (A) (A) (A) (A) (A) (A) (A) (A) (A) (A) (A)
                 (A) (A) (A) (A) (A) (A) (A) (A) (A) (A) (A) (A)
                 (A) (A)
 The electronic state is 1-A.
 Alpha  occ. eigenvalues --  -89.25694 -19.25912 -19.25438 -14.50342 -10.35734
 Alpha  occ. eigenvalues --  -10.33369 -10.32455 -10.32204 -10.31983 -10.31376
 Alpha  occ. eigenvalues --  -10.31293 -10.30758 -10.30671 -10.30549 -10.30167
 Alpha  occ. eigenvalues --  -10.29738 -10.29502  -8.27449  -6.22901  -6.22767
 Alpha  occ. eigenvalues --   -6.22641  -1.20193  -1.08605  -1.05619  -0.98564
 Alpha  occ. eigenvalues --   -0.95528  -0.90172  -0.86350  -0.85217  -0.84802
 Alpha  occ. eigenvalues --   -0.81400  -0.75986  -0.72595  -0.71768  -0.70855
 Alpha  occ. eigenvalues --   -0.68124  -0.64780  -0.63634  -0.60345  -0.58970
 Alpha  occ. eigenvalues --   -0.57545  -0.56532  -0.54988  -0.54103  -0.53667
 Alpha  occ. eigenvalues --   -0.52982  -0.52895  -0.52617  -0.51566  -0.49488
 Alpha  occ. eigenvalues --   -0.48466  -0.47549  -0.46550  -0.46067  -0.44271
 Alpha  occ. eigenvalues --   -0.44187  -0.42837  -0.41278  -0.40939  -0.38841
 Alpha  occ. eigenvalues --   -0.38341  -0.35286  -0.34101  -0.33893  -0.31102
 Alpha virt. eigenvalues --    0.03134   0.04408   0.05819   0.06054   0.10915
 Alpha virt. eigenvalues --    0.13091   0.13686   0.14146   0.15271   0.15939
 Alpha virt. eigenvalues --    0.17097   0.17473   0.18776   0.19287   0.20644
 Alpha virt. eigenvalues --    0.20969   0.21337   0.22746   0.23700   0.23918
 Alpha virt. eigenvalues --    0.24563   0.25606   0.27401   0.29730   0.33248
 Alpha virt. eigenvalues --    0.35570   0.36013   0.37029   0.37395   0.37754
 Alpha virt. eigenvalues --    0.38999   0.39260   0.39858   0.41441   0.43661
 Alpha virt. eigenvalues --    0.45890   0.47160   0.47748   0.48522   0.48910
 Alpha virt. eigenvalues --    0.49018   0.51355   0.51849   0.52041   0.54037
 Alpha virt. eigenvalues --    0.54717   0.55003   0.56052   0.56431   0.57451
 Alpha virt. eigenvalues --    0.57675   0.58971   0.59886   0.60222   0.61947
 Alpha virt. eigenvalues --    0.62492   0.63500   0.64056   0.64998   0.65751
 Alpha virt. eigenvalues --    0.69425   0.69815   0.70496   0.71136   0.72277
 Alpha virt. eigenvalues --    0.72439   0.72782   0.73403   0.73735   0.74340
 Alpha virt. eigenvalues --    0.74702   0.75487   0.75756   0.76709   0.77016
 Alpha virt. eigenvalues --    0.77610   0.78097   0.79172   0.79840   0.80269
 Alpha virt. eigenvalues --    0.81306   0.81744   0.82920   0.83692   0.84253
 Alpha virt. eigenvalues --    0.84702   0.85641   0.88454   0.89260   0.89608
 Alpha virt. eigenvalues --    0.90860   0.91892   0.92829   0.95501   0.96990
 Alpha virt. eigenvalues --    0.98656   0.98843   1.02112   1.03589   1.06128
 Alpha virt. eigenvalues --    1.08804   1.09915   1.11186   1.12813   1.12866
 Alpha virt. eigenvalues --    1.15517   1.16771   1.19134   1.21055   1.21684
 Alpha virt. eigenvalues --    1.24744   1.26986   1.27540   1.28433   1.29646
 Alpha virt. eigenvalues --    1.30158   1.30953   1.31507   1.32495   1.33006
 Alpha virt. eigenvalues --    1.35008   1.35162   1.36415   1.37790   1.38240
 Alpha virt. eigenvalues --    1.39016   1.41383   1.42218   1.43205   1.47985
 Alpha virt. eigenvalues --    1.54856   1.56715   1.60435   1.60909   1.62394
 Alpha virt. eigenvalues --    1.63490   1.64395   1.70255   1.74070   1.75601
 Alpha virt. eigenvalues --    1.76506   1.77076   1.78709   1.80527   1.81728
 Alpha virt. eigenvalues --    1.82054   1.82557   1.82866   1.83750   1.83966
 Alpha virt. eigenvalues --    1.85007   1.85736   1.86136   1.87502   1.87822
 Alpha virt. eigenvalues --    1.87999   1.88652   1.89828   1.92228   1.92965
 Alpha virt. eigenvalues --    1.93921   1.94568   1.97641   1.98532   2.02356
 Alpha virt. eigenvalues --    2.04072   2.04744   2.06488   2.07122   2.08452
 Alpha virt. eigenvalues --    2.10161   2.11042   2.13322   2.14301   2.16652
 Alpha virt. eigenvalues --    2.17643   2.19855   2.20832   2.21748   2.22696
 Alpha virt. eigenvalues --    2.24528   2.25399   2.29179   2.31159   2.31564
 Alpha virt. eigenvalues --    2.33215   2.35431   2.35669   2.38537   2.38838
 Alpha virt. eigenvalues --    2.40489   2.43077   2.43877   2.44219   2.45765
 Alpha virt. eigenvalues --    2.46785   2.51959   2.55425   2.56410   2.57510
 Alpha virt. eigenvalues --    2.59746   2.62178   2.68565   2.70508   2.71810
 Alpha virt. eigenvalues --    2.72199   2.72686   2.73140   2.73699   2.73784
 Alpha virt. eigenvalues --    2.74526   2.75242   2.77750   2.78518   2.81435
 Alpha virt. eigenvalues --    2.82898   2.83177   2.84248   2.85528   2.85569
 Alpha virt. eigenvalues --    2.89950   2.94662   2.95170   2.96059   2.99530
 Alpha virt. eigenvalues --    3.00979   3.01540   3.03171   3.03774   3.04403
 Alpha virt. eigenvalues --    3.07550   3.09176   3.22867   3.23663   3.25351
 Alpha virt. eigenvalues --    3.31275   3.33685   3.35256   3.44872   3.47007
 Alpha virt. eigenvalues --    3.69689   3.78468
          Condensed to atoms (all electrons):
               1          2          3          4          5          6
     1  O    8.183585   0.375980  -0.035683   0.000187  -0.020494   0.001597
     2  S    0.375980  13.974711   0.191906  -0.029596   0.000760  -0.001264
     3  N   -0.035683   0.191906   6.876093   0.243286  -0.078235   0.007564
     4  C    0.000187  -0.029596   0.243286   5.207448   0.261138   0.106224
     5  C   -0.020494   0.000760  -0.078235   0.261138   5.198304   0.262540
     6  C    0.001597  -0.001264   0.007564   0.106224   0.262540   5.054644
     7  C   -0.000033   0.000068  -0.000409  -0.163518   0.087636   0.271700
     8  C   -0.000003  -0.000172   0.007019   0.109511  -0.146180   0.096964
     9  C    0.000280   0.000896  -0.071909   0.257697   0.074185  -0.146981
    10  C   -0.054280   0.246577  -0.075690   0.004157  -0.001261  -0.000203
    11  C    0.001223  -0.032533   0.009001  -0.000593  -0.000081  -0.000008
    12  C    0.000465  -0.000653  -0.000008  -0.000004   0.000015  -0.000000
    13  C   -0.000028   0.000878  -0.000063   0.000008  -0.000009   0.000000
    14  C   -0.000000   0.000010   0.000000  -0.000000  -0.000000   0.000000
    15  C   -0.000056   0.003697   0.000342  -0.000338  -0.000163  -0.000007
    16  C   -0.000575  -0.044683  -0.023032   0.001869   0.001400  -0.000044
    17  O   -0.027974   0.410277  -0.042591   0.000576   0.000171   0.000007
    18  H    0.001255  -0.004709   0.321553  -0.000988   0.003939  -0.000265
    19  H    0.035098  -0.005546  -0.010952  -0.071349   0.442688  -0.048160
    20  H    0.000017  -0.000010  -0.000110   0.015212  -0.066165   0.456915
    21  H    0.000000   0.000000   0.000011  -0.001435   0.014729  -0.067632
    22  H   -0.000000   0.000003  -0.000118   0.015588  -0.001879   0.013787
    23  H    0.000013  -0.000121  -0.009455  -0.082860   0.016661  -0.002170
    24  H    0.005270  -0.006294   0.000543  -0.000061   0.000022   0.000002
    25  H   -0.000000  -0.000184   0.000001   0.000000   0.000000   0.000000
    26  H    0.000000  -0.000000   0.000000  -0.000000   0.000000   0.000000
    27  H    0.000000  -0.000000   0.000000  -0.000000  -0.000000   0.000000
    28  H   -0.000000  -0.000000  -0.000000   0.000000   0.000000  -0.000000
    29  H    0.000001  -0.000153  -0.000005   0.000007   0.000006   0.000000
    30  H    0.000340  -0.020075   0.018466  -0.001365  -0.001170   0.000092
               7          8          9         10         11         12
     1  O   -0.000033  -0.000003   0.000280  -0.054280   0.001223   0.000465
     2  S    0.000068  -0.000172   0.000896   0.246577  -0.032533  -0.000653
     3  N   -0.000409   0.007019  -0.071909  -0.075690   0.009001  -0.000008
     4  C   -0.163518   0.109511   0.257697   0.004157  -0.000593  -0.000004
     5  C    0.087636  -0.146180   0.074185  -0.001261  -0.000081   0.000015
     6  C    0.271700   0.096964  -0.146981  -0.000203  -0.000008  -0.000000
     7  C    5.107559   0.284538   0.086200  -0.000005   0.000000   0.000000
     8  C    0.284538   5.011409   0.306829  -0.000000   0.000000  -0.000000
     9  C    0.086200   0.306829   5.149549  -0.000653  -0.000001   0.000000
    10  C   -0.000005  -0.000000  -0.000653   5.647321   0.156749   0.107091
    11  C    0.000000   0.000000  -0.000001   0.156749   5.067197   0.321090
    12  C    0.000000  -0.000000   0.000000   0.107091   0.321090   5.046029
    13  C   -0.000000   0.000000  -0.000001  -0.191167   0.100237   0.289785
    14  C   -0.000000   0.000000  -0.000000   0.000563   0.010384  -0.076886
    15  C    0.000001   0.000001  -0.000013   0.094890  -0.128975   0.054771
    16  C   -0.000002  -0.000037  -0.000277   0.299423   0.064965  -0.126073
    17  O   -0.000000   0.000000  -0.000105  -0.040760  -0.000932   0.000069
    18  H    0.000000   0.000270  -0.014456   0.003475  -0.000586  -0.000002
    19  H    0.013628  -0.002187   0.013397  -0.001642   0.000307   0.000008
    20  H   -0.074153   0.014032  -0.001904   0.000003  -0.000000  -0.000000
    21  H    0.451694  -0.070308   0.014451   0.000000  -0.000000  -0.000000
    22  H   -0.069176   0.453485  -0.068779   0.000000   0.000000   0.000000
    23  H    0.014805  -0.059575   0.452932  -0.000018   0.000001  -0.000000
    24  H   -0.000000   0.000000  -0.000000  -0.078414   0.451748  -0.049885
    25  H   -0.000000  -0.000000   0.000000   0.016633  -0.067829   0.460030
    26  H    0.000000  -0.000000   0.000000  -0.000011   0.000875  -0.009202
    27  H   -0.000000   0.000000   0.000000   0.000017  -0.000559   0.006895
    28  H    0.000000  -0.000000  -0.000000   0.000114  -0.000330  -0.002804
    29  H   -0.000000  -0.000000   0.000001   0.017071  -0.002069   0.014519
    30  H   -0.000006   0.000150  -0.000656  -0.063605   0.014068  -0.001881
              13         14         15         16         17         18
     1  O   -0.000028  -0.000000  -0.000056  -0.000575  -0.027974   0.001255
     2  S    0.000878   0.000010   0.003697  -0.044683   0.410277  -0.004709
     3  N   -0.000063   0.000000   0.000342  -0.023032  -0.042591   0.321553
     4  C    0.000008  -0.000000  -0.000338   0.001869   0.000576  -0.000988
     5  C   -0.000009  -0.000000  -0.000163   0.001400   0.000171   0.003939
     6  C    0.000000   0.000000  -0.000007  -0.000044   0.000007  -0.000265
     7  C   -0.000000  -0.000000   0.000001  -0.000002  -0.000000   0.000000
     8  C    0.000000   0.000000   0.000001  -0.000037   0.000000   0.000270
     9  C   -0.000001  -0.000000  -0.000013  -0.000277  -0.000105  -0.014456
    10  C   -0.191167   0.000563   0.094890   0.299423  -0.040760   0.003475
    11  C    0.100237   0.010384  -0.128975   0.064965  -0.000932  -0.000586
    12  C    0.289785  -0.076886   0.054771  -0.126073   0.000069  -0.000002
    13  C    5.257546   0.407928   0.285619   0.096730  -0.000022   0.000007
    14  C    0.407928   4.549749  -0.077041   0.009296  -0.000000  -0.000000
    15  C    0.285619  -0.077041   5.081544   0.305486  -0.000069   0.000043
    16  C    0.096730   0.009296   0.305486   4.995377  -0.001891   0.001760
    17  O   -0.000022  -0.000000  -0.000069  -0.001891   8.173209   0.013486
    18  H    0.000007  -0.000000   0.000043   0.001760   0.013486   0.502726
    19  H    0.000002  -0.000000  -0.000062  -0.000503   0.000425  -0.000507
    20  H    0.000000   0.000000  -0.000000  -0.000000  -0.000000   0.000011
    21  H    0.000000   0.000000   0.000000   0.000000   0.000000  -0.000001
    22  H   -0.000000  -0.000000  -0.000000   0.000000  -0.000000  -0.000023
    23  H   -0.000000   0.000000   0.000000  -0.000016  -0.000027   0.002967
    24  H    0.014223  -0.000239  -0.001701   0.012082   0.002000  -0.000041
    25  H   -0.074442  -0.014164   0.014382  -0.001798   0.000002  -0.000000
    26  H   -0.018629   0.392357   0.007647  -0.000518  -0.000000  -0.000000
    27  H   -0.019036   0.391997  -0.008382   0.000897  -0.000000   0.000000
    28  H   -0.012155   0.389563  -0.003752  -0.000208   0.000000   0.000000
    29  H   -0.078653  -0.013159   0.459526  -0.064511   0.000002  -0.000004
    30  H    0.014605  -0.000216  -0.068459   0.457781   0.000301  -0.000200
              19         20         21         22         23         24
     1  O    0.035098   0.000017   0.000000  -0.000000   0.000013   0.005270
     2  S   -0.005546  -0.000010   0.000000   0.000003  -0.000121  -0.006294
     3  N   -0.010952  -0.000110   0.000011  -0.000118  -0.009455   0.000543
     4  C   -0.071349   0.015212  -0.001435   0.015588  -0.082860  -0.000061
     5  C    0.442688  -0.066165   0.014729  -0.001879   0.016661   0.000022
     6  C   -0.048160   0.456915  -0.067632   0.013787  -0.002170   0.000002
     7  C    0.013628  -0.074153   0.451694  -0.069176   0.014805  -0.000000
     8  C   -0.002187   0.014032  -0.070308   0.453485  -0.059575   0.000000
     9  C    0.013397  -0.001904   0.014451  -0.068779   0.452932  -0.000000
    10  C   -0.001642   0.000003   0.000000   0.000000  -0.000018  -0.078414
    11  C    0.000307  -0.000000  -0.000000   0.000000   0.000001   0.451748
    12  C    0.000008  -0.000000  -0.000000   0.000000  -0.000000  -0.049885
    13  C    0.000002   0.000000   0.000000  -0.000000  -0.000000   0.014223
    14  C   -0.000000   0.000000   0.000000  -0.000000   0.000000  -0.000239
    15  C   -0.000062  -0.000000   0.000000  -0.000000   0.000000  -0.001701
    16  C   -0.000503  -0.000000   0.000000   0.000000  -0.000016   0.012082
    17  O    0.000425  -0.000000   0.000000  -0.000000  -0.000027   0.002000
    18  H   -0.000507   0.000011  -0.000001  -0.000023   0.002967  -0.000041
    19  H    0.616176  -0.012820  -0.000198   0.000015  -0.000105   0.000060
    20  H   -0.012820   0.663934  -0.011968  -0.000255   0.000024  -0.000000
    21  H   -0.000198  -0.011968   0.671449  -0.012299  -0.000231  -0.000000
    22  H    0.000015  -0.000255  -0.012299   0.667034  -0.013049   0.000000
    23  H   -0.000105   0.000024  -0.000231  -0.013049   0.687223  -0.000000
    24  H    0.000060  -0.000000  -0.000000   0.000000  -0.000000   0.633088
    25  H   -0.000001   0.000000   0.000000  -0.000000   0.000000  -0.011483
    26  H    0.000000  -0.000000  -0.000000   0.000000  -0.000000   0.000000
    27  H   -0.000000   0.000000  -0.000000  -0.000000  -0.000000   0.000007
    28  H    0.000000  -0.000000   0.000000   0.000000   0.000000   0.000004
    29  H   -0.000000  -0.000000   0.000000   0.000000   0.000000   0.000024
    30  H   -0.000141   0.000000  -0.000000  -0.000002   0.000032  -0.000200
              25         26         27         28         29         30
     1  O   -0.000000   0.000000   0.000000  -0.000000   0.000001   0.000340
     2  S   -0.000184  -0.000000  -0.000000  -0.000000  -0.000153  -0.020075
     3  N    0.000001   0.000000   0.000000  -0.000000  -0.000005   0.018466
     4  C    0.000000  -0.000000  -0.000000   0.000000   0.000007  -0.001365
     5  C    0.000000   0.000000  -0.000000   0.000000   0.000006  -0.001170
     6  C    0.000000   0.000000   0.000000  -0.000000   0.000000   0.000092
     7  C   -0.000000   0.000000  -0.000000   0.000000  -0.000000  -0.000006
     8  C   -0.000000  -0.000000   0.000000  -0.000000  -0.000000   0.000150
     9  C    0.000000   0.000000   0.000000  -0.000000   0.000001  -0.000656
    10  C    0.016633  -0.000011   0.000017   0.000114   0.017071  -0.063605
    11  C   -0.067829   0.000875  -0.000559  -0.000330  -0.002069   0.014068
    12  C    0.460030  -0.009202   0.006895  -0.002804   0.014519  -0.001881
    13  C   -0.074442  -0.018629  -0.019036  -0.012155  -0.078653   0.014605
    14  C   -0.014164   0.392357   0.391997   0.389563  -0.013159  -0.000216
    15  C    0.014382   0.007647  -0.008382  -0.003752   0.459526  -0.068459
    16  C   -0.001798  -0.000518   0.000897  -0.000208  -0.064511   0.457781
    17  O    0.000002  -0.000000  -0.000000   0.000000   0.000002   0.000301
    18  H   -0.000000  -0.000000   0.000000   0.000000  -0.000004  -0.000200
    19  H   -0.000001   0.000000  -0.000000   0.000000  -0.000000  -0.000141
    20  H    0.000000  -0.000000   0.000000  -0.000000  -0.000000   0.000000
    21  H    0.000000  -0.000000  -0.000000   0.000000   0.000000  -0.000000
    22  H   -0.000000   0.000000  -0.000000   0.000000   0.000000  -0.000002
    23  H    0.000000  -0.000000  -0.000000   0.000000   0.000000   0.000032
    24  H   -0.011483   0.000000   0.000007   0.000004   0.000024  -0.000200
    25  H    0.664912   0.004737   0.000174   0.000657  -0.000224   0.000024
    26  H    0.004737   0.621226  -0.022222  -0.017319   0.000138   0.000008
    27  H    0.000174  -0.022222   0.619300  -0.017288   0.004174  -0.000006
    28  H    0.000657  -0.017319  -0.017288   0.598612   0.000856   0.000002
    29  H   -0.000224   0.000138   0.004174   0.000856   0.669969  -0.012025
    30  H    0.000024   0.000008  -0.000006   0.000002  -0.012025   0.636059
 Mulliken charges:
               1
     1  O   -0.466185
     2  S    0.940231
     3  N   -0.327524
     4  C    0.129199
     5  C   -0.048556
     6  C   -0.005301
     7  C   -0.010527
     8  C   -0.005745
     9  C   -0.050682
    10  C   -0.086374
    11  C    0.036651
    12  C   -0.033370
    13  C   -0.073363
    14  C    0.029857
    15  C   -0.018932
    16  C    0.017105
    17  O   -0.486153
    18  H    0.170290
    19  H    0.032370
    20  H    0.017238
    21  H    0.011739
    22  H    0.015667
    23  H   -0.007030
    24  H    0.029245
    25  H    0.008574
    26  H    0.040912
    27  H    0.044031
    28  H    0.064048
    29  H    0.004509
    30  H    0.028080
 Sum of Mulliken charges =  -0.00000
 Mulliken charges with hydrogens summed into heavy atoms:
               1
     1  O   -0.466185
     2  S    0.940231
     3  N   -0.157235
     4  C    0.129199
     5  C   -0.016186
     6  C    0.011937
     7  C    0.001211
     8  C    0.009921
     9  C   -0.057712
    10  C   -0.086374
    11  C    0.065896
    12  C   -0.024795
    13  C   -0.073363
    14  C    0.178849
    15  C   -0.014424
    16  C    0.045184
    17  O   -0.486153
 Electronic spatial extent (au):  <R**2>=           5000.3240
 Charge=             -0.0000 electrons
 Dipole moment (field-independent basis, Debye):
    X=             -1.0925    Y=             -3.9605    Z=             -1.2285  Tot=              4.2882
 Quadrupole moment (field-independent basis, Debye-Ang):
   XX=            -88.9155   YY=           -113.3899   ZZ=           -103.0997
   XY=              1.9657   XZ=             -6.3974   YZ=              0.6503
 Traceless Quadrupole moment (field-independent basis, Debye-Ang):
   XX=             12.8862   YY=            -11.5882   ZZ=             -1.2980
   XY=              1.9657   XZ=             -6.3974   YZ=              0.6503
 Octapole moment (field-independent basis, Debye-Ang**2):
  XXX=            -37.7446  YYY=            -15.7367  ZZZ=             -6.4679  XYY=             -6.3983
  XXY=            -26.7596  XXZ=              7.6848  XZZ=             14.8711  YZZ=             -3.0347
  YYZ=              2.4006  XYZ=            -15.8420
 Hexadecapole moment (field-independent basis, Debye-Ang**3):
 XXXX=          -4541.9826 YYYY=          -1424.9538 ZZZZ=           -558.9119 XXXY=            -46.5379
 XXXZ=            -76.9191 YYYX=             46.9012 YYYZ=             30.2820 ZZZX=             -8.7894
 ZZZY=            -17.8481 XXYY=           -953.4180 XXZZ=           -857.8685 YYZZ=           -325.3403
 XXYZ=              5.0392 YYXZ=            -10.7455 ZZXY=             -8.4375
 N-N= 1.307204313153D+03 E-N=-5.203159745758D+03  KE= 1.097885480704D+03
   1 Symmetry operations used in ECPInt.
 ECPInt:  NShTT=   10296 NPrTT=   38220 LenC2=    9365 LenP2D=   24602.
 LDataN:  DoStor=T MaxTD1= 5 Len=  102
 Calling FoFJK, ICntrl=      2127 FMM=F ISym2X=0 I1Cent= 0 IOpClX= 0 NMat=1 NMatS=1 NMatT=0.
 ***** Axes restored to original set *****
 -------------------------------------------------------------------
 Center     Atomic                   Forces (Hartrees/Bohr)
 Number     Number              X              Y              Z
 -------------------------------------------------------------------
      1        8          -0.009489765    0.009457992   -0.053061500
      2       16          -0.029469089    0.026114706    0.014654718
      3        7          -0.013386711    0.020727880    0.024288511
      4        6           0.021626554   -0.015982071    0.008595041
      5        6          -0.012167592    0.005430702   -0.004079633
      6        6           0.005210904   -0.003699111   -0.003611015
      7        6           0.005495361   -0.004529845    0.002976938
      8        6           0.002960246   -0.001871553    0.001349382
      9        6          -0.012977362    0.008765205   -0.001222106
     10        6           0.015616924    0.006433343   -0.001748057
     11        6          -0.004484662    0.008611842    0.009669859
     12        6           0.002901295    0.001697288   -0.001640658
     13        6          -0.002641735   -0.004189852    0.000467377
     14        6          -0.004722371    0.000382469   -0.002475751
     15        6          -0.001760958    0.002832962    0.002422428
     16        6           0.005120356   -0.007110838   -0.008069055
     17        8           0.023081378   -0.042977252    0.025709780
     18        1           0.006624140    0.007676174   -0.016241697
     19        1          -0.003731434   -0.000612021    0.007368867
     20        1          -0.000381005   -0.001755819    0.010011148
     21        1           0.007992464   -0.006327028    0.002969968
     22        1           0.006504302   -0.003068223   -0.007545119
     23        1          -0.000047762    0.002598054   -0.012869929
     24        1          -0.001486287    0.007893589    0.007087792
     25        1          -0.008796452    0.003731593    0.006743476
     26        1          -0.005275815    0.001938367    0.002412616
     27        1          -0.000853494   -0.003781631   -0.004997487
     28        1           0.000484962   -0.006046007    0.004698404
     29        1           0.001220859   -0.008991302   -0.007467387
     30        1           0.006832752   -0.003349612   -0.006396911
 -------------------------------------------------------------------
 Cartesian Forces:  Max     0.053061500 RMS     0.011843754

 GradGradGradGradGradGradGradGradGradGradGradGradGradGradGradGradGradGrad
 Berny optimization.
 FormGI is forming the generalized inverse of G from B-inverse, IUseBI=4.
 Internal  Forces:  Max     0.054326544 RMS     0.010200314
 Search for a local minimum.
 Step number   1 out of a maximum of  162
 All quantities printed in internal units (Hartrees-Bohrs-Radians)
 Mixed Optimization -- RFO/linear search
 Second derivative matrix not updated -- first step.
 ITU=  0
     Eigenvalues ---    0.00414   0.00926   0.01179   0.01601   0.01744
     Eigenvalues ---    0.01766   0.02007   0.02140   0.02245   0.02270
     Eigenvalues ---    0.02275   0.02300   0.02311   0.02340   0.02346
     Eigenvalues ---    0.02349   0.02369   0.02384   0.02386   0.02393
     Eigenvalues ---    0.02395   0.02420   0.02619   0.07314   0.07339
     Eigenvalues ---    0.10021   0.11365   0.12086   0.13489   0.15990
     Eigenvalues ---    0.15999   0.15999   0.16000   0.16000   0.16000
     Eigenvalues ---    0.16000   0.16000   0.16000   0.16000   0.16000
     Eigenvalues ---    0.16000   0.17958   0.22000   0.22000   0.22000
     Eigenvalues ---    0.22916   0.22975   0.23458   0.23997   0.24986
     Eigenvalues ---    0.24989   0.25000   0.25000   0.26377   0.33685
     Eigenvalues ---    0.34769   0.34772   0.34777   0.34848   0.36236
     Eigenvalues ---    0.36280   0.36288   0.36298   0.36441   0.36442
     Eigenvalues ---    0.36491   0.36512   0.36692   0.42620   0.43491
     Eigenvalues ---    0.44023   0.44284   0.46565   0.47101   0.47669
     Eigenvalues ---    0.47813   0.48076   0.49092   0.49233   0.49277
     Eigenvalues ---    0.50027   0.50099   0.76379   0.76475
 RFO step:  Lambda=-4.07582152D-02 EMin= 4.13724302D-03
 Linear search not attempted -- first point.
 Maximum step size (   0.300) exceeded in Quadratic search.
    -- Step size scaled by   0.952
 Iteration  1 RMS(Cart)=  0.19539592 RMS(Int)=  0.00800571
 Iteration  2 RMS(Cart)=  0.03838097 RMS(Int)=  0.00082329
 Iteration  3 RMS(Cart)=  0.00059794 RMS(Int)=  0.00079700
 Iteration  4 RMS(Cart)=  0.00000086 RMS(Int)=  0.00079700
 Variable       Old X    -DE/DX   Delta X   Delta X   Delta X     New X
                                 (Linear)    (Quad)   (Total)
    R1        2.83629  -0.05330   0.00000  -0.06309  -0.06309   2.77320
    R2        3.22923  -0.00243   0.00000  -0.00594  -0.00594   3.22329
    R3        3.39530  -0.00174   0.00000  -0.00546  -0.00546   3.38985
    R4        2.83574  -0.05433   0.00000  -0.06424  -0.06424   2.77151
    R5        2.63499   0.02859   0.00000   0.05378   0.05378   2.68877
    R6        1.88993   0.01818   0.00000   0.03345   0.03345   1.92339
    R7        2.64425   0.00698   0.00000   0.01301   0.01302   2.65727
    R8        2.64455   0.00500   0.00000   0.00887   0.00887   2.65341
    R9        2.59674   0.01942   0.00000   0.03440   0.03441   2.63115
   R10        2.03013   0.00705   0.00000   0.01648   0.01648   2.04660
   R11        2.60854   0.01242   0.00000   0.02292   0.02292   2.63145
   R12        2.03647   0.01008   0.00000   0.02380   0.02380   2.06027
   R13        2.60916   0.01117   0.00000   0.02039   0.02038   2.62954
   R14        2.03618   0.01061   0.00000   0.02503   0.02503   2.06121
   R15        2.59867   0.01572   0.00000   0.02737   0.02736   2.62604
   R16        2.03633   0.01037   0.00000   0.02447   0.02447   2.06080
   R17        2.03289   0.01308   0.00000   0.03070   0.03070   2.06358
   R18        2.59623   0.02059   0.00000   0.03674   0.03675   2.63297
   R19        2.59706   0.01984   0.00000   0.03562   0.03564   2.63269
   R20        2.60859   0.00997   0.00000   0.01773   0.01772   2.62631
   R21        2.03714   0.01052   0.00000   0.02486   0.02486   2.06200
   R22        2.62217   0.01449   0.00000   0.02581   0.02580   2.64797
   R23        2.03398   0.01160   0.00000   0.02728   0.02728   2.06125
   R24        2.81166   0.01279   0.00000   0.03226   0.03226   2.84392
   R25        2.62153   0.01386   0.00000   0.02478   0.02478   2.64632
   R26        2.06047   0.00597   0.00000   0.01464   0.01464   2.07510
   R27        2.06051   0.00615   0.00000   0.01509   0.01509   2.07560
   R28        2.06039   0.00764   0.00000   0.01874   0.01874   2.07913
   R29        2.60728   0.01301   0.00000   0.02343   0.02344   2.63072
   R30        2.03397   0.01166   0.00000   0.02741   0.02741   2.06137
   R31        2.03321   0.00974   0.00000   0.02287   0.02287   2.05608
    A1        2.01285  -0.00315   0.00000  -0.01236  -0.01661   1.99624
    A2        1.83595   0.00105   0.00000   0.03347   0.03288   1.86883
    A3        2.11364  -0.00360   0.00000  -0.04343  -0.04683   2.06681
    A4        1.73431   0.02078   0.00000   0.09012   0.08921   1.82352
    A5        1.84971  -0.01298   0.00000  -0.06557  -0.06857   1.78115
    A6        1.87484   0.00469   0.00000   0.03571   0.03748   1.91232
    A7        2.13071   0.04386   0.00000   0.16205   0.16008   2.29080
    A8        1.81821  -0.01372   0.00000  -0.02826  -0.03034   1.78787
    A9        2.03968  -0.01558   0.00000  -0.04455  -0.04786   1.99182
   A10        2.15164   0.01993   0.00000   0.06595   0.06575   2.21739
   A11        2.07832  -0.02266   0.00000  -0.07361  -0.07367   2.00465
   A12        2.05288   0.00269   0.00000   0.00693   0.00683   2.05971
   A13        2.11478  -0.00460   0.00000  -0.01655  -0.01654   2.09824
   A14        2.07157   0.00636   0.00000   0.02771   0.02767   2.09924
   A15        2.09625  -0.00174   0.00000  -0.01077  -0.01081   2.08545
   A16        2.09650   0.00452   0.00000   0.01868   0.01870   2.11520
   A17        2.09279  -0.00361   0.00000  -0.01572  -0.01573   2.07706
   A18        2.09385  -0.00091   0.00000  -0.00294  -0.00295   2.09090
   A19        2.09198  -0.00490   0.00000  -0.01571  -0.01572   2.07626
   A20        2.09540   0.00283   0.00000   0.00969   0.00969   2.10509
   A21        2.09579   0.00207   0.00000   0.00605   0.00605   2.10184
   A22        2.09810   0.00032   0.00000   0.00135   0.00134   2.09944
   A23        2.09233   0.00091   0.00000   0.00441   0.00442   2.09675
   A24        2.09275  -0.00123   0.00000  -0.00577  -0.00576   2.08699
   A25        2.11212   0.00196   0.00000   0.00536   0.00534   2.11746
   A26        2.06994   0.00018   0.00000   0.00283   0.00283   2.07277
   A27        2.10109  -0.00213   0.00000  -0.00814  -0.00814   2.09296
   A28        2.07266  -0.01098   0.00000  -0.03732  -0.03733   2.03533
   A29        2.11380   0.00984   0.00000   0.03090   0.03089   2.14468
   A30        2.09672   0.00114   0.00000   0.00644   0.00644   2.10317
   A31        2.09361  -0.00213   0.00000  -0.00670  -0.00671   2.08690
   A32        2.08029   0.00308   0.00000   0.01293   0.01293   2.09322
   A33        2.10927  -0.00095   0.00000  -0.00622  -0.00622   2.10306
   A34        2.10534   0.00255   0.00000   0.00740   0.00738   2.11272
   A35        2.09505  -0.00264   0.00000  -0.01018  -0.01017   2.08489
   A36        2.08280   0.00009   0.00000   0.00277   0.00279   2.08558
   A37        2.10717   0.00042   0.00000   0.00275   0.00276   2.10993
   A38        2.07112  -0.00092   0.00000  -0.00567  -0.00569   2.06543
   A39        2.10444   0.00051   0.00000   0.00302   0.00303   2.10747
   A40        1.94054   0.00113   0.00000   0.00625   0.00623   1.94677
   A41        1.93867   0.00105   0.00000   0.00561   0.00559   1.94426
   A42        1.93331   0.00014   0.00000  -0.00086  -0.00085   1.93246
   A43        1.87868  -0.00013   0.00000   0.00228   0.00224   1.88092
   A44        1.88482  -0.00109   0.00000  -0.00635  -0.00634   1.87848
   A45        1.88552  -0.00123   0.00000  -0.00756  -0.00755   1.87797
   A46        2.10289   0.00352   0.00000   0.01183   0.01184   2.11473
   A47        2.08287  -0.00030   0.00000   0.00103   0.00102   2.08390
   A48        2.09742  -0.00322   0.00000  -0.01286  -0.01286   2.08455
   A49        2.09661  -0.00416   0.00000  -0.01323  -0.01321   2.08340
   A50        2.07997   0.00407   0.00000   0.01609   0.01607   2.09604
   A51        2.10660   0.00008   0.00000  -0.00284  -0.00286   2.10374
    D1        0.19362   0.01524   0.00000   0.14787   0.14722   0.34084
    D2       -2.16442   0.01157   0.00000   0.08874   0.08622  -2.07820
    D3       -1.75826   0.00321   0.00000   0.06148   0.06157  -1.69669
    D4        2.16688  -0.00046   0.00000   0.00235   0.00057   2.16745
    D5        2.58278  -0.00583   0.00000   0.00836   0.01173   2.59451
    D6        0.22474  -0.00950   0.00000  -0.05077  -0.04927   0.17547
    D7        0.99075  -0.00237   0.00000  -0.02190  -0.02311   0.96763
    D8       -2.14778  -0.00263   0.00000  -0.02622  -0.02742  -2.17520
    D9        3.07832   0.00299   0.00000   0.01272   0.01312   3.09144
   D10       -0.06020   0.00273   0.00000   0.00840   0.00882  -0.05139
   D11       -1.28266  -0.00157   0.00000  -0.01264  -0.01185  -1.29451
   D12        1.86200  -0.00182   0.00000  -0.01696  -0.01616   1.84584
   D13        0.20197   0.00006   0.00000   0.03510   0.03567   0.23763
   D14       -2.96849  -0.00184   0.00000   0.00470   0.00530  -2.96319
   D15        2.46925   0.00977   0.00000   0.12451   0.12392   2.59317
   D16       -0.70121   0.00786   0.00000   0.09412   0.09355  -0.60766
   D17        3.10859  -0.00143   0.00000  -0.01846  -0.01959   3.08900
   D18       -0.06964  -0.00064   0.00000  -0.00646  -0.00722  -0.07686
   D19       -0.00453   0.00085   0.00000   0.01279   0.01282   0.00829
   D20        3.10042   0.00164   0.00000   0.02479   0.02519   3.12561
   D21       -3.11078   0.00038   0.00000   0.01035   0.00918  -3.10160
   D22        0.02195   0.00084   0.00000   0.01653   0.01556   0.03751
   D23        0.00357  -0.00110   0.00000  -0.01725  -0.01713  -0.01356
   D24        3.13631  -0.00064   0.00000  -0.01106  -0.01075   3.12556
   D25        0.00157  -0.00011   0.00000  -0.00107  -0.00122   0.00035
   D26        3.13361   0.00013   0.00000   0.00164   0.00165   3.13526
   D27       -3.10287  -0.00107   0.00000  -0.01403  -0.01430  -3.11717
   D28        0.02917  -0.00083   0.00000  -0.01132  -0.01143   0.01774
   D29        0.00248  -0.00042   0.00000  -0.00669  -0.00652  -0.00404
   D30        3.13868  -0.00001   0.00000  -0.00048  -0.00036   3.13832
   D31       -3.12955  -0.00065   0.00000  -0.00933  -0.00935  -3.13890
   D32        0.00665  -0.00024   0.00000  -0.00311  -0.00319   0.00346
   D33       -0.00343   0.00017   0.00000   0.00221   0.00228  -0.00114
   D34        3.13893   0.00037   0.00000   0.00595   0.00579  -3.13847
   D35       -3.13962  -0.00025   0.00000  -0.00401  -0.00388   3.13969
   D36        0.00273  -0.00005   0.00000  -0.00028  -0.00037   0.00236
   D37        0.00033   0.00063   0.00000   0.01009   0.00980   0.01014
   D38       -3.13224   0.00015   0.00000   0.00374   0.00329  -3.12896
   D39        3.14117   0.00043   0.00000   0.00637   0.00632  -3.13570
   D40        0.00859  -0.00005   0.00000   0.00001  -0.00019   0.00840
   D41       -3.14099  -0.00041   0.00000  -0.00613  -0.00605   3.13614
   D42       -0.00375  -0.00028   0.00000  -0.00413  -0.00406  -0.00781
   D43       -0.00244  -0.00014   0.00000  -0.00181  -0.00181  -0.00425
   D44        3.13481  -0.00001   0.00000   0.00018   0.00019   3.13499
   D45       -3.14086   0.00017   0.00000   0.00300   0.00310  -3.13776
   D46        0.00386  -0.00001   0.00000   0.00027   0.00032   0.00418
   D47        0.00384  -0.00007   0.00000  -0.00130  -0.00130   0.00254
   D48       -3.13462  -0.00025   0.00000  -0.00403  -0.00407  -3.13869
   D49       -0.00639   0.00041   0.00000   0.00613   0.00615  -0.00024
   D50        3.13429   0.00031   0.00000   0.00460   0.00460   3.13890
   D51        3.13963   0.00026   0.00000   0.00404   0.00409  -3.13947
   D52       -0.00288   0.00017   0.00000   0.00252   0.00255  -0.00033
   D53        3.12288  -0.00023   0.00000  -0.00344  -0.00347   3.11941
   D54        0.01354  -0.00048   0.00000  -0.00728  -0.00729   0.00625
   D55       -0.01781  -0.00013   0.00000  -0.00192  -0.00191  -0.01972
   D56       -3.12715  -0.00038   0.00000  -0.00576  -0.00574  -3.13289
   D57        0.46947  -0.00071   0.00000  -0.00673  -0.00675   0.46272
   D58        2.56121   0.00059   0.00000   0.00407   0.00409   2.56530
   D59       -1.62643  -0.00018   0.00000  -0.00230  -0.00230  -1.62874
   D60       -2.70500  -0.00048   0.00000  -0.00298  -0.00300  -2.70799
   D61       -0.61326   0.00081   0.00000   0.00783   0.00785  -0.60541
   D62        1.48229   0.00004   0.00000   0.00145   0.00145   1.48374
   D63       -0.01212   0.00027   0.00000   0.00416   0.00413  -0.00799
   D64        3.12847   0.00039   0.00000   0.00591   0.00590   3.13437
   D65       -3.12151   0.00003   0.00000   0.00033   0.00032  -3.12119
   D66        0.01908   0.00015   0.00000   0.00208   0.00209   0.02116
   D67        0.00357   0.00001   0.00000   0.00012   0.00012   0.00369
   D68       -3.14121   0.00020   0.00000   0.00293   0.00294  -3.13826
   D69       -3.13701  -0.00011   0.00000  -0.00166  -0.00166  -3.13867
   D70        0.00140   0.00008   0.00000   0.00115   0.00116   0.00256
         Item               Value     Threshold  Converged?
 Maximum Force            0.054327     0.000450     NO 
 RMS     Force            0.010200     0.000300     NO 
 Maximum Displacement     0.612031     0.001800     NO 
 RMS     Displacement     0.226124     0.001200     NO 
 Predicted change in Energy=-2.343980D-02
 GradGradGradGradGradGradGradGradGradGradGradGradGradGradGradGradGradGrad

                          Input orientation:                          
 ---------------------------------------------------------------------
 Center     Atomic      Atomic             Coordinates (Angstroms)
 Number     Number       Type             X           Y           Z
 ---------------------------------------------------------------------
      1          8           0        0.212340    1.799292    1.464858
      2         16           0       -0.082768    1.544709    0.050045
      3          7           0        1.151343    0.718581   -0.788922
      4          6           0        2.233436   -0.077728   -0.320489
      5          6           0        2.402786   -0.599736    0.974165
      6          6           0        3.491636   -1.418044    1.262959
      7          6           0        4.432443   -1.737605    0.287340
      8          6           0        4.270021   -1.228881   -0.997599
      9          6           0        3.183389   -0.416242   -1.297509
     10          6           0       -1.485906    0.428357   -0.002773
     11          6           0       -2.633703    0.835977    0.673778
     12          6           0       -3.759436    0.021001    0.667414
     13          6           0       -3.759642   -1.205916   -0.009466
     14          6           0       -4.971052   -2.098642    0.009617
     15          6           0       -2.592043   -1.597580   -0.676059
     16          6           0       -1.458539   -0.789402   -0.678949
     17          8           0       -0.334709    2.692202   -0.827882
     18          1           0        1.408941    1.386011   -1.512885
     19          1           0        1.700127   -0.350423    1.759681
     20          1           0        3.606883   -1.807111    2.274879
     21          1           0        5.283551   -2.377112    0.524765
     22          1           0        4.993738   -1.469290   -1.777143
     23          1           0        3.055444   -0.029960   -2.310862
     24          1           0       -2.642854    1.788771    1.205507
     25          1           0       -4.656144    0.340786    1.199793
     26          1           0       -5.893739   -1.523032    0.161732
     27          1           0       -5.074124   -2.654448   -0.932108
     28          1           0       -4.899404   -2.834718    0.824207
     29          1           0       -2.570908   -2.552546   -1.202846
     30          1           0       -0.557776   -1.102413   -1.202838
 ---------------------------------------------------------------------
                    Distance matrix (angstroms):
                    1          2          3          4          5
     1  O    0.000000
     2  S    1.467514   0.000000
     3  N    2.670053   1.705691   0.000000
     4  C    3.285650   2.852086   1.422837   0.000000
     5  C    3.285448   3.410369   2.532300   1.406165   0.000000
     6  C    4.598456   4.798482   3.775230   2.426277   1.392346
     7  C    5.630760   5.587220   4.237548   2.821397   2.426105
     8  C    5.630125   5.266605   3.682704   2.435428   2.787516
     9  C    4.622380   4.040917   2.382373   1.404127   2.409049
    10  C    2.630103   1.793830   2.767190   3.767037   4.139239
    11  C    3.107047   2.720039   4.059537   5.050986   5.245734
    12  C    4.424165   4.027495   5.169456   6.074554   6.200998
    13  C    5.194377   4.592263   5.331887   6.106269   6.269809
    14  C    6.646741   6.096799   6.786614   7.489840   7.586208
    15  C    4.897635   4.086277   4.403439   5.071649   5.354180
    16  C    3.753542   2.805753   3.016221   3.776990   4.204591
    17  O    2.520557   1.466619   2.470839   3.811211   4.645224
    18  H    3.235678   2.166363   1.017812   2.060129   3.334117
    19  H    2.630913   3.113373   2.817678   2.164691   1.083015
    20  H    5.018486   5.458765   4.668584   3.407793   2.144636
    21  H    6.636513   6.663589   5.327686   3.912138   3.414650
    22  H    6.637467   6.180107   4.530714   3.417244   3.877996
    23  H    5.068083   4.231056   2.549944   2.153965   3.397353
    24  H    2.866968   2.819344   4.418029   5.439732   5.587214
    25  H    5.089168   4.866941   6.150172   7.067724   7.124884
    26  H    7.072494   6.571977   7.453975   8.268761   8.387183
    27  H    7.316280   6.596300   7.081968   7.772644   7.984980
    28  H    6.929242   6.555813   7.199975   7.732316   7.638036
    29  H    5.813915   4.954601   4.972601   5.475856   5.769790
    30  H    4.016163   2.966917   2.531488   3.101513   3.709037
                    6          7          8          9         10
     6  C    0.000000
     7  C    1.392505   0.000000
     8  C    2.398288   1.391491   0.000000
     9  C    2.766698   2.412028   1.389639   0.000000
    10  C    5.457765   6.308915   6.071805   4.918537   0.000000
    11  C    6.553436   7.530145   7.397198   6.268380   1.393310
    12  C    7.416439   8.387135   8.294977   7.228756   2.405000
    13  C    7.365128   8.214685   8.090267   7.105514   2.800138
    14  C    8.582026   9.414521   9.336402   8.428164   4.304895
    15  C    6.387737   7.091625   6.879480   5.927679   2.404428
    16  C    5.354478   6.044541   5.754223   4.697804   1.393162
    17  O    5.992216   6.602473   6.050391   4.718049   2.670404
    18  H    4.461575   4.705247   3.910110   2.538340   3.402599
    19  H    2.143841   3.399649   3.870225   3.398648   3.723378
    20  H    1.090246   2.153298   3.388689   3.856918   6.010118
    21  H    2.162336   1.090745   2.159460   3.402406   7.346733
    22  H    3.391335   2.156185   1.090528   2.148563   6.981063
    23  H    3.858657   3.400416   2.153432   1.092002   5.114800
    24  H    6.922350   7.958529   7.857973   6.713589   2.156200
    25  H    8.335694   9.367748   9.325707   8.262438   3.391791
    26  H    9.450344  10.329175  10.233894   9.260055   4.823274
    27  H    8.928565   9.628213   9.452491   8.563271   4.821065
    28  H    8.521093   9.411442   9.485570   8.699554   4.794113
    29  H    6.642420   7.206366   6.970834   6.138786   3.391635
    30  H    4.751581   5.246560   4.833813   3.804749   2.155188
                   11         12         13         14         15
    11  C    0.000000
    12  C    1.389784   0.000000
    13  C    2.429792   1.401247   0.000000
    14  C    3.810026   2.528557   1.504937   0.000000
    15  C    2.783162   2.405729   1.400370   2.526044   0.000000
    16  C    2.419243   2.786319   2.432441   3.811296   1.392117
    17  O    3.314503   4.593471   5.253123   6.719321   4.849828
    18  H    4.628931   5.773134   5.974329   7.427323   5.060629
    19  H    4.622641   5.580128   5.802657   7.115028   5.090280
    20  H    6.963789   7.758131   7.735979   8.876789   6.868670
    21  H    8.545704   9.356650   9.134355  10.271309   8.004662
    22  H    8.336614   9.209499   8.933964  10.143255   7.666349
    23  H    6.482616   7.437426   7.288669   8.607479   6.084744
    24  H    1.091163   2.159007   3.419288   4.686432   3.874306
    25  H    2.147597   1.090769   2.158313   2.732489   3.396557
    26  H    4.056470   2.682350   2.164311   1.098097   3.407147
    27  H    4.551658   3.383032   2.162724   1.098358   2.709845
    28  H    4.316251   3.078838   2.155704   1.100226   3.017486
    29  H    3.873984   3.396118   2.156538   2.727047   1.090831
    30  H    3.404190   3.874342   3.418595   4.683964   2.158918
                   16         17         18         19         20
    16  C    0.000000
    17  O    3.661521   0.000000
    18  H    3.694633   2.283786   0.000000
    19  H    4.014572   4.482589   3.716138   0.000000
    20  H    5.951415   6.738478   5.419791   2.454198   0.000000
    21  H    7.030329   7.687160   5.772843   4.298071   2.489782
    22  H    6.580286   6.827258   4.590572   4.960732   4.296087
    23  H    4.859622   4.593749   2.313593   4.302197   4.948875
    24  H    3.405988   3.205994   4.895806   4.872857   7.289248
    25  H    3.877070   5.321224   6.725799   6.418210   8.605050
    26  H    4.573397   7.046300   8.037164   7.848264   9.736936
    27  H    4.076143   7.145600   7.661119   7.644916   9.293150
    28  H    4.275786   7.356132   7.941773   7.113412   8.690071
    29  H    2.149538   5.713893   5.607812   5.645144   7.128489
[...]
     3  N    0.000973   0.013250  -0.039607  -0.061460   0.006358   0.000052
     4  C   -0.112011   0.009907   0.334050   0.045004  -0.002559   0.001884
     5  C    0.048674  -0.090378   0.057843   0.003469   0.000880  -0.002491
     6  C    0.413197   0.022541  -0.097996  -0.000068  -0.001272   0.000434
     7  C    4.963714   0.439113   0.035553  -0.000157  -0.000703  -0.000195
     8  C    0.439113   4.933707   0.408402  -0.001761   0.001195   0.002007
     9  C    0.035553   0.408402   5.115164  -0.000176  -0.014226  -0.000568
    10  C   -0.000157  -0.001761  -0.000176   5.293971   0.316372   0.049750
    11  C   -0.000703   0.001195  -0.014226   0.316372   5.141923   0.357464
    12  C   -0.000195   0.002007  -0.000568   0.049750   0.357464   5.100173
    13  C    0.000042   0.000056  -0.000460  -0.090512   0.033005   0.412535
    14  C   -0.000001  -0.000016   0.000008  -0.004307   0.013793  -0.073666
    15  C    0.000020  -0.000051   0.000794   0.015619  -0.050368  -0.014109
    16  C   -0.000059  -0.000681  -0.001914   0.368092  -0.069619  -0.046370
    17  O   -0.000003  -0.000001  -0.000525  -0.096274   0.008732  -0.000586
    18  H    0.000136   0.001087   0.008837  -0.000737   0.000706  -0.000043
    19  H    0.010215  -0.004442   0.011287   0.001828  -0.000442  -0.000158
    20  H   -0.058353   0.010553  -0.003503  -0.000016  -0.000004   0.000008
    21  H    0.443933  -0.056087   0.012197   0.000004  -0.000018  -0.000002
    22  H   -0.057143   0.438886  -0.053930   0.000005   0.000029   0.000022
    23  H    0.010390  -0.031463   0.439945   0.000786  -0.000269  -0.000259
    24  H    0.000105   0.000167  -0.001665  -0.046317   0.436232  -0.049465
    25  H    0.000008   0.000072  -0.000081   0.010713  -0.048563   0.444528
    26  H    0.000000   0.000000   0.000000   0.000161  -0.000731  -0.004874
    27  H    0.000000  -0.000001   0.000001   0.000064  -0.000709   0.007947
    28  H   -0.000000   0.000001  -0.000002   0.000056   0.001932  -0.006659
    29  H   -0.000000   0.000003  -0.000002   0.011283  -0.003857   0.012872
    30  H   -0.000003   0.000006  -0.000132  -0.045637   0.008278  -0.002424
              13         14         15         16         17         18
     1  O   -0.000112  -0.000000  -0.000266   0.006940  -0.043927   0.002676
     2  S   -0.000535   0.000005   0.005743  -0.039162   0.584233  -0.016599
     3  N    0.000226  -0.000004  -0.001189   0.000040  -0.048058   0.365622
     4  C   -0.000718   0.000007   0.000249   0.001026   0.001636  -0.051474
     5  C    0.000219   0.000006   0.000048   0.000326  -0.000743   0.004526
     6  C   -0.000039  -0.000001  -0.000008   0.000171  -0.000000  -0.000720
     7  C    0.000042  -0.000001   0.000020  -0.000059  -0.000003   0.000136
     8  C    0.000056  -0.000016  -0.000051  -0.000681  -0.000001   0.001087
     9  C   -0.000460   0.000008   0.000794  -0.001914  -0.000525   0.008837
    10  C   -0.090512  -0.004307   0.015619   0.368092  -0.096274  -0.000737
    11  C    0.033005   0.013793  -0.050368  -0.069619   0.008732   0.000706
    12  C    0.412535  -0.073666  -0.014109  -0.046370  -0.000586  -0.000043
    13  C    4.972667   0.297554   0.432366   0.016204   0.000166   0.000065
    14  C    0.297554   4.958418  -0.073388   0.013157   0.000001   0.000000
    15  C    0.432366  -0.073388   5.062885   0.404459   0.002761  -0.000166
    16  C    0.016204   0.013157   0.404459   5.106157   0.026776   0.000146
    17  O    0.000166   0.000001   0.002761   0.026776   8.022364   0.004368
    18  H    0.000065   0.000000  -0.000166   0.000146   0.004368   0.429416
    19  H    0.000015   0.000000   0.000007  -0.000173  -0.000133  -0.000050
    20  H   -0.000000  -0.000000  -0.000000   0.000001  -0.000000   0.000013
    21  H   -0.000001   0.000000   0.000000  -0.000000   0.000000  -0.000002
    22  H   -0.000005   0.000000  -0.000003  -0.000001  -0.000000  -0.000040
    23  H   -0.000009  -0.000000   0.000310   0.000381  -0.000176   0.003564
    24  H    0.008914  -0.000031  -0.002424   0.008174   0.000385  -0.000098
    25  H   -0.063187  -0.006635   0.012777  -0.003657   0.000003   0.000000
    26  H   -0.017375   0.390168  -0.004585  -0.000663  -0.000000  -0.000000
    27  H   -0.054914   0.427659  -0.006511   0.001948   0.000000   0.000000
    28  H   -0.053261   0.427600   0.006945  -0.000640   0.000000  -0.000000
    29  H   -0.062058  -0.006802   0.443186  -0.048863  -0.000028  -0.000009
    30  H    0.008424  -0.000057  -0.048527   0.432620   0.013552   0.000365
              19         20         21         22         23         24
     1  O    0.008970  -0.000038   0.000001  -0.000000  -0.000017   0.008190
     2  S   -0.002920  -0.000003   0.000003  -0.000007  -0.000121  -0.004121
     3  N   -0.001405  -0.000119   0.000008  -0.000360   0.002895   0.000355
     4  C   -0.044797   0.013944  -0.003964   0.015210  -0.080499   0.000125
     5  C    0.434636  -0.057682   0.011297  -0.003858   0.012038   0.000021
     6  C   -0.048924   0.446325  -0.056275   0.010719  -0.003893   0.000348
     7  C    0.010215  -0.058353   0.443933  -0.057143   0.010390   0.000105
     8  C   -0.004442   0.010553  -0.056087   0.438886  -0.031463   0.000167
     9  C    0.011287  -0.003503   0.012197  -0.053930   0.439945  -0.001665
    10  C    0.001828  -0.000016   0.000004   0.000005   0.000786  -0.046317
    11  C   -0.000442  -0.000004  -0.000018   0.000029  -0.000269   0.436232
    12  C   -0.000158   0.000008  -0.000002   0.000022  -0.000259  -0.049465
    13  C    0.000015  -0.000000  -0.000001  -0.000005  -0.000009   0.008914
    14  C    0.000000  -0.000000   0.000000   0.000000  -0.000000  -0.000031
    15  C    0.000007  -0.000000   0.000000  -0.000003   0.000310  -0.002424
    16  C   -0.000173   0.000001  -0.000000  -0.000001   0.000381   0.008174
    17  O   -0.000133  -0.000000   0.000000  -0.000000  -0.000176   0.000385
    18  H   -0.000050   0.000013  -0.000002  -0.000040   0.003564  -0.000098
    19  H    0.476175  -0.006493  -0.000017   0.000015   0.000012  -0.000091
    20  H   -0.006493   0.534760  -0.006847  -0.000125   0.000028  -0.000017
    21  H   -0.000017  -0.006847   0.538792  -0.006650  -0.000098  -0.000004
    22  H    0.000015  -0.000125  -0.006650   0.541629  -0.007507   0.000004
    23  H    0.000012   0.000028  -0.000098  -0.007507   0.538603  -0.000053
    24  H   -0.000091  -0.000017  -0.000004   0.000004  -0.000053   0.481714
    25  H   -0.000007   0.000001  -0.000000  -0.000000  -0.000002  -0.005596
    26  H    0.000000   0.000000  -0.000000  -0.000000   0.000000   0.000008
    27  H   -0.000000  -0.000000   0.000000  -0.000000   0.000000   0.000002
    28  H   -0.000000   0.000000  -0.000000   0.000000  -0.000000  -0.000022
    29  H   -0.000000   0.000000   0.000000   0.000000  -0.000003   0.000026
    30  H   -0.000005   0.000000  -0.000000   0.000000  -0.000067  -0.000066
              25         26         27         28         29         30
     1  O   -0.000011  -0.000000   0.000000   0.000000   0.000004   0.000543
     2  S   -0.000100  -0.000001   0.000001   0.000001  -0.000114  -0.004410
     3  N    0.000031   0.000000  -0.000000  -0.000000   0.000017   0.000275
     4  C    0.000037  -0.000000  -0.000001   0.000003  -0.000007  -0.000183
     5  C   -0.000101  -0.000000   0.000000   0.000000  -0.000002  -0.000018
     6  C    0.000057   0.000000  -0.000000   0.000000   0.000000   0.000007
     7  C    0.000008   0.000000   0.000000  -0.000000  -0.000000  -0.000003
     8  C    0.000072   0.000000  -0.000001   0.000001   0.000003   0.000006
     9  C   -0.000081   0.000000   0.000001  -0.000002  -0.000002  -0.000132
    10  C    0.010713   0.000161   0.000064   0.000056   0.011283  -0.045637
    11  C   -0.048563  -0.000731  -0.000709   0.001932  -0.003857   0.008278
    12  C    0.444528  -0.004874   0.007947  -0.006659   0.012872  -0.002424
    13  C   -0.063187  -0.017375  -0.054914  -0.053261  -0.062058   0.008424
    14  C   -0.006635   0.390168   0.427659   0.427600  -0.006802  -0.000057
    15  C    0.012777  -0.004585  -0.006511   0.006945   0.443186  -0.048527
    16  C   -0.003657  -0.000663   0.001948  -0.000640  -0.048863   0.432620
    17  O    0.000003  -0.000000   0.000000   0.000000  -0.000028   0.013552
    18  H    0.000000  -0.000000   0.000000  -0.000000  -0.000009   0.000365
    19  H   -0.000007   0.000000  -0.000000  -0.000000  -0.000000  -0.000005
    20  H    0.000001   0.000000  -0.000000   0.000000   0.000000   0.000000
    21  H   -0.000000  -0.000000   0.000000  -0.000000   0.000000  -0.000000
    22  H   -0.000000  -0.000000  -0.000000   0.000000   0.000000   0.000000
    23  H   -0.000002   0.000000   0.000000  -0.000000  -0.000003  -0.000067
    24  H   -0.005596   0.000008   0.000002  -0.000022   0.000026  -0.000066
    25  H    0.533618   0.000256   0.000074   0.000874  -0.000049   0.000031
    26  H    0.000256   0.544765  -0.023379  -0.024266   0.000224   0.000007
    27  H    0.000074  -0.023379   0.541997  -0.023655   0.001101  -0.000019
    28  H    0.000874  -0.024266  -0.023655   0.540742   0.000057   0.000003
    29  H   -0.000049   0.000224   0.001101   0.000057   0.533420  -0.005563
    30  H    0.000031   0.000007  -0.000019   0.000003  -0.005563   0.477706
 Mulliken charges:
               1
     1  O   -0.461039
     2  S    0.856456
     3  N   -0.316445
     4  C    0.199938
     5  C   -0.270603
     6  C   -0.072234
     7  C   -0.137599
     8  C   -0.096906
     9  C   -0.217399
    10  C    0.001008
    11  C   -0.135604
    12  C   -0.195639
    13  C    0.160727
    14  C   -0.363468
    15  C   -0.186575
    16  C   -0.174819
    17  O   -0.474523
    18  H    0.248412
    19  H    0.166896
    20  H    0.127569
    21  H    0.123729
    22  H    0.123108
    23  H    0.115483
    24  H    0.165199
    25  H    0.124908
    26  H    0.140285
    27  H    0.128391
    28  H    0.130292
    29  H    0.125163
    30  H    0.165292
 Sum of Mulliken charges =  -0.00000
 Mulliken charges with hydrogens summed into heavy atoms:
               1
     1  O   -0.461039
     2  S    0.856456
     3  N   -0.068033
     4  C    0.199938
     5  C   -0.103708
     6  C    0.055335
     7  C   -0.013870
     8  C    0.026201
     9  C   -0.101916
    10  C    0.001008
    11  C    0.029595
    12  C   -0.070731
    13  C    0.160727
    14  C    0.035501
    15  C   -0.061413
    16  C   -0.009527
    17  O   -0.474523
 Electronic spatial extent (au):  <R**2>=           4366.3924
 Charge=              0.0000 electrons
 Dipole moment (field-independent basis, Debye):
    X=             -1.8228    Y=             -5.3825    Z=             -1.7644  Tot=              5.9503
 Quadrupole moment (field-independent basis, Debye-Ang):
   XX=            -96.8208   YY=           -114.0131   ZZ=           -101.0953
   XY=              0.2826   XZ=              2.6669   YZ=             -4.5448
 Traceless Quadrupole moment (field-independent basis, Debye-Ang):
   XX=              7.1556   YY=            -10.0367   ZZ=              2.8811
   XY=              0.2826   XZ=              2.6669   YZ=             -4.5448
 Octapole moment (field-independent basis, Debye-Ang**2):
  XXX=            -41.9444  YYY=            -42.3762  ZZZ=            -11.7683  XYY=              3.5004
  XXY=            -16.3264  XXZ=              7.5867  XZZ=              2.8386  YZZ=             -0.4001
  YYZ=             -0.7590  XYZ=             -0.8850
 Hexadecapole moment (field-independent basis, Debye-Ang**3):
 XXXX=          -3343.0466 YYYY=          -1978.2414 ZZZZ=           -577.7585 XXXY=             53.3590
 XXXZ=            112.7690 YYYX=            -18.4196 YYYZ=             17.6682 ZZZX=             13.6190
 ZZZY=            -24.0191 XXYY=           -821.9056 XXZZ=           -639.4251 YYZZ=           -410.9057
 XXYZ=            -31.6105 YYXZ=            -12.7815 ZZXY=             -2.1723
 N-N= 1.331942000091D+03 E-N=-5.259255860224D+03  KE= 1.102023912059D+03
 Breneman (CHELPG) radii used.
 Read replacement radii for each type of atom:
 Atom Element Radius
    1     8    1.70
    2    16    2.00
    3     7    1.70
    4     6    1.50
    5     6    1.50
    6     6    1.50
    7     6    1.50
    8     6    1.50
    9     6    1.50
   10     6    1.50
   11     6    1.50
   12     6    1.50
   13     6    1.50
   14     6    1.50
   15     6    1.50
   16     6    1.50
   17     8    1.70
   18     1    1.45
   19     1    1.45
   20     1    1.45
   21     1    1.45
   22     1    1.45
   23     1    1.45
   24     1    1.45
   25     1    1.45
   26     1    1.45
   27     1    1.45
   28     1    1.45
   29     1    1.45
   30     1    1.45
 Generate Potential Derived Charges using the Breneman model, NDens= 1.
 Grid spacing= 0.300 Box extension= 2.800
 NStep X,Y,Z=   49     42     34   Total possible points=       69972
 Number of Points to Fit=   18716

 **********************************************************************

            Electrostatic Properties Using The SCF Density.

 **********************************************************************

       Atomic Center    1 is at   0.760168  2.053080  1.477358
       Atomic Center    2 is at   0.211417  1.955980  0.139102
       Atomic Center    3 is at   1.389835  1.267699 -0.841721
       Atomic Center    4 is at   1.950818  0.004314 -0.532402
       Atomic Center    5 is at   2.685155 -0.167218  0.646400
       Atomic Center    6 is at   3.218898 -1.416950  0.949192
       Atomic Center    7 is at   3.052238 -2.492244  0.076105
       Atomic Center    8 is at   2.334016 -2.314578 -1.105101
       Atomic Center    9 is at   1.772068 -1.075559 -1.403437
       Atomic Center   10 is at  -1.098846  0.752371  0.173477
       Atomic Center   11 is at  -1.043018 -0.301251  1.084807
       Atomic Center   12 is at  -2.036250 -1.274660  1.051566
       Atomic Center   13 is at  -3.088609 -1.207117  0.129530
       Atomic Center   14 is at  -4.177484 -2.246442  0.128527
       Atomic Center   15 is at  -3.121865 -0.132167 -0.768263
       Atomic Center   16 is at  -2.134058  0.847582 -0.754402
       Atomic Center   17 is at  -0.244568  3.115788 -0.602897
       Atomic Center   18 is at   1.147186  1.412175 -1.818010
       Atomic Center   19 is at   2.820864  0.683082  1.314699
       Atomic Center   20 is at   3.786902 -1.546202  1.873020
       Atomic Center   21 is at   3.484705 -3.465969  0.314554
       Atomic Center   22 is at   2.196551 -3.149148 -1.795896
       Atomic Center   23 is at   1.185272 -0.942198 -2.315843
       Atomic Center   24 is at  -0.230958 -0.350733  1.811889
       Atomic Center   25 is at  -1.993869 -2.104923  1.760819
       Atomic Center   26 is at  -4.981148 -1.962827  0.827182
       Atomic Center   27 is at  -4.629373 -2.356030 -0.867247
       Atomic Center   28 is at  -3.796818 -3.227602  0.445537
       Atomic Center   29 is at  -3.939026 -0.058508 -1.490266
       Atomic Center   30 is at  -2.164979  1.691870 -1.445693
   18716 points will be used for fitting atomic charges
 Fitting point charges to electrostatic potential
 Charges from ESP fit, RMS=   0.00359 RRMS=   0.21952:
 ESP charges:
               1
     1  O   -0.469694
     2  S    0.934947
     3  N   -0.647516
     4  C    0.411705
     5  C   -0.219354
     6  C   -0.057056
     7  C   -0.144653
     8  C   -0.053571
     9  C   -0.271300
    10  C   -0.065450
    11  C   -0.036062
    12  C   -0.231365
    13  C    0.240278
    14  C   -0.272184
    15  C   -0.212905
    16  C   -0.067213
    17  O   -0.485418
    18  H    0.354962
    19  H    0.160399
    20  H    0.097529
    21  H    0.103780
    22  H    0.103900
    23  H    0.111510
    24  H    0.099557
    25  H    0.129127
    26  H    0.090295
    27  H    0.077513
    28  H    0.078771
    29  H    0.126921
    30  H    0.112549
 Sum of ESP charges =   0.00000
 ESP charges with hydrogens summed into heavy atoms:
               1
     1  O   -0.469694
     2  S    0.934947
     3  N   -0.292554
     4  C    0.411705
     5  C   -0.058956
     6  C    0.040473
     7  C   -0.040873
     8  C    0.050329
     9  C   -0.159790
    10  C   -0.065450
    11  C    0.063494
    12  C   -0.102238
    13  C    0.240278
    14  C   -0.025605
    15  C   -0.085984
    16  C    0.045336
    17  O   -0.485418
 Charge=   0.00000 Dipole=    -1.7026    -5.2544    -1.7350 Tot=     5.7895
 -----------------------------------------------------------------

              Electrostatic Properties (Atomic Units)

 -----------------------------------------------------------------
    Center     Electric         -------- Electric Field --------
               Potential          X             Y             Z
 -----------------------------------------------------------------
    1 Atom    -22.373374
    2 Atom    -59.026799
    3 Atom    -18.345602
    4 Atom    -14.712678
    5 Atom    -14.763166
    6 Atom    -14.758981
    7 Atom    -14.761228
    8 Atom    -14.756712
    9 Atom    -14.755803
   10 Atom    -14.732021
   11 Atom    -14.745691
   12 Atom    -14.752980
   13 Atom    -14.736843
   14 Atom    -14.755042
   15 Atom    -14.752121
   16 Atom    -14.744870
   17 Atom    -22.373238
   18 Atom     -1.001976
   19 Atom     -1.101926
   20 Atom     -1.099706
   21 Atom     -1.099251
   22 Atom     -1.096083
   23 Atom     -1.087786
   24 Atom     -1.088677
   25 Atom     -1.091439
   26 Atom     -1.097639
   27 Atom     -1.100365
   28 Atom     -1.100250
   29 Atom     -1.090245
   30 Atom     -1.086163
 -----------------------------------------------------------------
 Unable to Open any file for archive entry.
 1\1\GINC-NOTCH070\SP\RwB97XD\def2TZVP\C13H13N1O2S1\U1366379\17-Feb-202
 6\0\\#N Guess=Read Geom=Check Integral(Ultrafine) Density Pop=(ChelpG,
 ReadRadii) NMR wB97XD def2TZVP\\prod_5l_34\\0,1\O,0,0.1587246173,2.505
 7839566,0.9169631279\S,0,-0.0827246883,2.0241669764,-0.4288579906\N,0,
 1.3410002039,1.3186561001,-0.9762842518\C,0,1.9528529171,0.2595213289,
 -0.2618661787\C,0,2.4362760386,0.4747876109,1.0335911733\C,0,3.0216028
 037,-0.5768547288,1.7334756878\C,0,3.1555711174,-1.8351281692,1.146011
 9455\C,0,2.6876780977,-2.042584575,-0.1504039534\C,0,2.0751143452,-1.0
 045315015,-0.8483811483\C,0,-1.238058118,0.674656893,-0.3255559993\C,0
 ,-1.2658582819,-0.1227456944,0.817743385\C,0,-2.1227987959,-1.21791566
 64,0.8551323921\C,0,-2.9585690101,-1.5232425853,-0.2267334094\C,0,-3.9
 083908021,-2.6890512125,-0.159099236\C,0,-2.9139022671,-0.6988048401,-
 1.3585310951\C,0,-2.0588162594,0.3972244527,-1.4169206633\O,0,-0.49060
 51093,2.9012224532,-1.5096191846\H,0,1.2956728294,1.1984219901,-1.9844
 412749\H,0,2.3388049098,1.4653472928,1.4778217541\H,0,3.3926356903,-0.
 4043143189,2.7460746096\H,0,3.6272316027,-2.6514053208,1.6966969124\H,
 0,2.7865394065,-3.0234040145,-0.6203204118\H,0,1.6829817537,-1.1733862
 911,-1.8545213415\H,0,-0.624488202,0.118945988,1.6667233307\H,0,-2.144
 4017594,-1.8485426107,1.7473291993\H,0,-4.8662459011,-2.3798093993,0.2
 895820664\H,0,-4.1265083561,-3.0899664768,-1.1588339844\H,0,-3.5028494
 404,-3.5024965022,0.4588971921\H,0,-3.5638217035,-0.91686618,-2.209718
 2594\H,0,-2.0313176388,1.0471750449,-2.2935443937\\Version=ES64L-G16Re
 vC.01\State=1-A\HF=-1106.6304773\RMSD=3.939e-09\Dipole=-0.3300974,-2.3
 039402,-0.2517555\Quadrupole=4.0374887,-7.9474207,3.9099319,2.7664763,
 2.1552711,-0.0721356\PG=C01 [X(C13H13N1O2S1)]\\@
 The archive entry for this job was punched.


 UNDER MOST GREENE GRASSE LY MOST GREATE SNAKES.
 -- PROVERBS AND REASONS OF THE YEAR 1585
           AS REPRINTED IN PAISLEY MAGAZINE 1828.
 Job cpu time:       0 days  1 hours 43 minutes 45.7 seconds.
 Elapsed time:       0 days  0 hours 13 minutes 24.0 seconds.
 File lengths (MBytes):  RWF=    226 Int=      0 D2E=      0 Chk=     34 Scr=      2
 Normal termination of Gaussian 16 at Tue Feb 17 18:11:35 2026.
