 Entering Gaussian System, Link 0=g16
 Input=prod_5h_1.com
 Output=prod_5h_1.log
 Initial command:
 /uufs/chpc.utah.edu/sys/installdir/gaussian16/C01/AVX/g16/l1.exe "/scratch/general/vast/u1366379/GAUSSSCRDIR/11028671-notchpeak.peaks/Gau-2594808.inp" -scrdir="/scratch/general/vast/u1366379/GAUSSSCRDIR/11028671-notchpeak.peaks/"
 Entering Link 1 = /uufs/chpc.utah.edu/sys/installdir/gaussian16/C01/AVX/g16/l1.exe PID=   2594817.
  
 Copyright (c) 1988-2019, Gaussian, Inc.  All Rights Reserved.
  
 This is part of the Gaussian(R) 16 program.  It is based on
 the Gaussian(R) 09 system (copyright 2009, Gaussian, Inc.),
 the Gaussian(R) 03 system (copyright 2003, Gaussian, Inc.),
 the Gaussian(R) 98 system (copyright 1998, Gaussian, Inc.),
 the Gaussian(R) 94 system (copyright 1995, Gaussian, Inc.),
 the Gaussian 92(TM) system (copyright 1992, Gaussian, Inc.),
 the Gaussian 90(TM) system (copyright 1990, Gaussian, Inc.),
 the Gaussian 88(TM) system (copyright 1988, Gaussian, Inc.),
 the Gaussian 86(TM) system (copyright 1986, Carnegie Mellon
 University), and the Gaussian 82(TM) system (copyright 1983,
 Carnegie Mellon University). Gaussian is a federally registered
 trademark of Gaussian, Inc.
  
 This software contains proprietary and confidential information,
 including trade secrets, belonging to Gaussian, Inc.
  
 This software is provided under written license and may be
 used, copied, transmitted, or stored only in accord with that
 written license.
  
 The following legend is applicable only to US Government
 contracts under FAR:
  
                    RESTRICTED RIGHTS LEGEND
  
 Use, reproduction and disclosure by the US Government is
 subject to restrictions as set forth in subparagraphs (a)
 and (c) of the Commercial Computer Software - Restricted
 Rights clause in FAR 52.227-19.
  
 Gaussian, Inc.
 340 Quinnipiac St., Bldg. 40, Wallingford CT 06492
  
  
 ---------------------------------------------------------------
 Warning -- This program may not be used in any manner that
 competes with the business of Gaussian, Inc. or will provide
 assistance to any competitor of Gaussian, Inc.  The licensee
 of this program is prohibited from giving any competitor of
 Gaussian, Inc. access to this program.  By using this program,
 the user acknowledges that Gaussian, Inc. is engaged in the
 business of creating and licensing software in the field of
 computational chemistry and represents and warrants to the
 licensee that it is not a competitor of Gaussian, Inc. and that
 it will not use this program in any manner prohibited above.
 ---------------------------------------------------------------
  

 Cite this work as:
 Gaussian 16, Revision C.01,
 M. J. Frisch, G. W. Trucks, H. B. Schlegel, G. E. Scuseria, 
 M. A. Robb, J. R. Cheeseman, G. Scalmani, V. Barone, 
 G. A. Petersson, H. Nakatsuji, X. Li, M. Caricato, A. V. Marenich, 
 J. Bloino, B. G. Janesko, R. Gomperts, B. Mennucci, H. P. Hratchian, 
 J. V. Ortiz, A. F. Izmaylov, J. L. Sonnenberg, D. Williams-Young, 
 F. Ding, F. Lipparini, F. Egidi, J. Goings, B. Peng, A. Petrone, 
 T. Henderson, D. Ranasinghe, V. G. Zakrzewski, J. Gao, N. Rega, 
 G. Zheng, W. Liang, M. Hada, M. Ehara, K. Toyota, R. Fukuda, 
 J. Hasegawa, M. Ishida, T. Nakajima, Y. Honda, O. Kitao, H. Nakai, 
 T. Vreven, K. Throssell, J. A. Montgomery, Jr., J. E. Peralta, 
 F. Ogliaro, M. J. Bearpark, J. J. Heyd, E. N. Brothers, K. N. Kudin, 
 V. N. Staroverov, T. A. Keith, R. Kobayashi, J. Normand, 
 K. Raghavachari, A. P. Rendell, J. C. Burant, S. S. Iyengar, 
 J. Tomasi, M. Cossi, J. M. Millam, M. Klene, C. Adamo, R. Cammi, 
 J. W. Ochterski, R. L. Martin, K. Morokuma, O. Farkas, 
 J. B. Foresman, and D. J. Fox, Gaussian, Inc., Wallingford CT, 2019.
 
 ******************************************
 Gaussian 16:  ES64L-G16RevC.01  3-Jul-2019
                17-Feb-2026 
 ******************************************
 %NProcShared=8
 Will use up to    8 processors via shared memory.
 %Mem=8GB
 %chk=prod_5h_1.chk
 ------------------------------------------------------
 #N OPT FREQ=NORAMAN Integral(Ultrafine) wB97XD def2SVP
 ------------------------------------------------------
 1/18=20,19=15,26=4,38=1/1,3;
 2/9=110,12=2,17=6,18=5,40=1/2;
 3/5=43,7=101,11=2,25=1,30=1,71=1,74=-58,75=-5/1,2,3;
 4//1;
 5/5=2,38=5/2;
 6/7=2,8=2,9=2,10=2,28=1/1;
 7//1,2,3,16;
 1/18=20,19=15,26=4/3(2);
 2/9=110/2;
 99//99;
 2/9=110/2;
 3/5=43,7=101,11=2,25=1,30=1,71=1,74=-58,75=-5/1,2,3;
 4/5=5,16=3,69=1/1;
 5/5=2,38=5/2;
 7//1,2,3,16;
 1/18=20,19=15,26=4/3(-5);
 2/9=110/2;
 6/7=2,8=2,9=2,10=2,19=2,28=1/1;
 99/9=1/99;
 ---------
 prod_5h_1
 ---------
 Symbolic Z-matrix:
 Charge =  0 Multiplicity = 1
 Cl                    4.5796   -0.72      0.01662 
 C                     2.93567  -0.16979  -0.02112 
 C                     2.50406   0.78544   0.88361 
 C                     1.19843   1.22131   0.85639 
 C                     2.05383  -0.68634  -0.95521 
 C                     0.74808  -0.25174  -0.98385 
 C                     0.29918   0.70705  -0.07661 
 N                    -1.06683   1.15774  -0.10602 
 C                    -1.31306   2.5905   -0.24812 
 C                    -2.16073   0.25613  -0.00695 
 C                    -1.95078  -1.06551   0.3872 
 C                    -3.00125  -1.94792   0.49699 
 C                    -4.28754  -1.53073   0.21729 
 C                    -4.51721  -0.22507  -0.17005 
 C                    -3.46821   0.66013  -0.27975 
 H                     3.20237   1.17536   1.60436 
 H                     0.85287   1.95297   1.5654 
 H                     2.40611  -1.42638  -1.65334 
 H                     0.0578   -0.64122  -1.7115 
 H                    -1.95638   2.94334   0.55571 
 H                    -1.78715   2.79616  -1.20583 
 H                    -0.37599   3.14246  -0.20886 
 H                    -0.95114  -1.38718   0.61936 
 H                    -2.82007  -2.96512   0.80351 
 H                    -5.11019  -2.22164   0.30282 
 H                    -5.52112   0.10151  -0.38704 
 H                    -3.65629   1.6738   -0.58524 
 

 GradGradGradGradGradGradGradGradGradGradGradGradGradGradGradGradGradGrad
 Berny optimization.
 Initialization pass.
                           ----------------------------
                           !    Initial Parameters    !
                           ! (Angstroms and Degrees)  !
 --------------------------                            --------------------------
 ! Name  Definition              Value          Derivative Info.                !
 --------------------------------------------------------------------------------
 ! R1    R(1,2)                  1.734          estimate D2E/DX2                !
 ! R2    R(2,3)                  1.3847         estimate D2E/DX2                !
 ! R3    R(2,5)                  1.3846         estimate D2E/DX2                !
 ! R4    R(3,4)                  1.3767         estimate D2E/DX2                !
 ! R5    R(3,16)                 1.0766         estimate D2E/DX2                !
 ! R6    R(4,7)                  1.3941         estimate D2E/DX2                !
 ! R7    R(4,17)                 1.0758         estimate D2E/DX2                !
 ! R8    R(5,6)                  1.3765         estimate D2E/DX2                !
 ! R9    R(5,18)                 1.0766         estimate D2E/DX2                !
 ! R10   R(6,7)                  1.3942         estimate D2E/DX2                !
 ! R11   R(6,19)                 1.0759         estimate D2E/DX2                !
 ! R12   R(7,8)                  1.4387         estimate D2E/DX2                !
 ! R13   R(8,9)                  1.4607         estimate D2E/DX2                !
 ! R14   R(8,10)                 1.421          estimate D2E/DX2                !
 ! R15   R(9,20)                 1.0883         estimate D2E/DX2                !
 ! R16   R(9,21)                 1.0882         estimate D2E/DX2                !
 ! R17   R(9,22)                 1.0883         estimate D2E/DX2                !
 ! R18   R(10,11)                1.3951         estimate D2E/DX2                !
 ! R19   R(10,15)                1.3954         estimate D2E/DX2                !
 ! R20   R(11,12)                1.3763         estimate D2E/DX2                !
 ! R21   R(11,23)                1.0755         estimate D2E/DX2                !
 ! R22   R(12,13)                1.3809         estimate D2E/DX2                !
 ! R23   R(12,24)                1.0777         estimate D2E/DX2                !
 ! R24   R(13,14)                1.3811         estimate D2E/DX2                !
 ! R25   R(13,25)                1.0777         estimate D2E/DX2                !
 ! R26   R(14,15)                1.377          estimate D2E/DX2                !
 ! R27   R(14,26)                1.0778         estimate D2E/DX2                !
 ! R28   R(15,27)                1.0753         estimate D2E/DX2                !
 ! A1    A(1,2,3)              120.0134         estimate D2E/DX2                !
 ! A2    A(1,2,5)              120.0092         estimate D2E/DX2                !
 ! A3    A(3,2,5)              119.9773         estimate D2E/DX2                !
 ! A4    A(2,3,4)              120.0728         estimate D2E/DX2                !
 ! A5    A(2,3,16)             119.0178         estimate D2E/DX2                !
 ! A6    A(4,3,16)             120.9092         estimate D2E/DX2                !
 ! A7    A(3,4,7)              120.5413         estimate D2E/DX2                !
 ! A8    A(3,4,17)             120.4571         estimate D2E/DX2                !
 ! A9    A(7,4,17)             118.9946         estimate D2E/DX2                !
 ! A10   A(2,5,6)              120.0285         estimate D2E/DX2                !
 ! A11   A(2,5,18)             119.0458         estimate D2E/DX2                !
 ! A12   A(6,5,18)             120.9256         estimate D2E/DX2                !
 ! A13   A(5,6,7)              120.5981         estimate D2E/DX2                !
 ! A14   A(5,6,19)             120.5555         estimate D2E/DX2                !
 ! A15   A(7,6,19)             118.845          estimate D2E/DX2                !
 ! A16   A(4,7,6)              118.7814         estimate D2E/DX2                !
 ! A17   A(4,7,8)              120.7003         estimate D2E/DX2                !
 ! A18   A(6,7,8)              120.5182         estimate D2E/DX2                !
 ! A19   A(7,8,9)              117.9889         estimate D2E/DX2                !
 ! A20   A(7,8,10)             122.0529         estimate D2E/DX2                !
 ! A21   A(9,8,10)             119.9577         estimate D2E/DX2                !
 ! A22   A(8,9,20)             110.23           estimate D2E/DX2                !
 ! A23   A(8,9,21)             110.1465         estimate D2E/DX2                !
 ! A24   A(8,9,22)             110.4161         estimate D2E/DX2                !
 ! A25   A(20,9,21)            109.3422         estimate D2E/DX2                !
 ! A26   A(20,9,22)            108.5361         estimate D2E/DX2                !
 ! A27   A(21,9,22)            108.1209         estimate D2E/DX2                !
 ! A28   A(8,10,11)            120.327          estimate D2E/DX2                !
 ! A29   A(8,10,15)            121.5986         estimate D2E/DX2                !
 ! A30   A(11,10,15)           118.0692         estimate D2E/DX2                !
 ! A31   A(10,11,12)           121.0029         estimate D2E/DX2                !
 ! A32   A(10,11,23)           118.9621         estimate D2E/DX2                !
 ! A33   A(12,11,23)           120.03           estimate D2E/DX2                !
 ! A34   A(11,12,13)           120.0739         estimate D2E/DX2                !
 ! A35   A(11,12,24)           119.9682         estimate D2E/DX2                !
 ! A36   A(13,12,24)           119.9578         estimate D2E/DX2                !
 ! A37   A(12,13,14)           119.8226         estimate D2E/DX2                !
 ! A38   A(12,13,25)           120.0855         estimate D2E/DX2                !
 ! A39   A(14,13,25)           120.0918         estimate D2E/DX2                !
 ! A40   A(13,14,15)           120.2249         estimate D2E/DX2                !
 ! A41   A(13,14,26)           119.8557         estimate D2E/DX2                !
 ! A42   A(15,14,26)           119.9194         estimate D2E/DX2                !
 ! A43   A(10,15,14)           120.8054         estimate D2E/DX2                !
 ! A44   A(10,15,27)           119.4964         estimate D2E/DX2                !
 ! A45   A(14,15,27)           119.697          estimate D2E/DX2                !
 ! D1    D(1,2,3,4)           -179.8764         estimate D2E/DX2                !
 ! D2    D(1,2,3,16)            -0.0464         estimate D2E/DX2                !
 ! D3    D(5,2,3,4)              0.0675         estimate D2E/DX2                !
 ! D4    D(5,2,3,16)           179.8975         estimate D2E/DX2                !
 ! D5    D(1,2,5,6)            179.8745         estimate D2E/DX2                !
 ! D6    D(1,2,5,18)            -0.2261         estimate D2E/DX2                !
 ! D7    D(3,2,5,6)             -0.0693         estimate D2E/DX2                !
 ! D8    D(3,2,5,18)           179.83           estimate D2E/DX2                !
 ! D9    D(2,3,4,7)              0.0986         estimate D2E/DX2                !
 ! D10   D(2,3,4,17)           179.1285         estimate D2E/DX2                !
 ! D11   D(16,3,4,7)          -179.7281         estimate D2E/DX2                !
 ! D12   D(16,3,4,17)           -0.6982         estimate D2E/DX2                !
 ! D13   D(3,4,7,6)             -0.2582         estimate D2E/DX2                !
 ! D14   D(3,4,7,8)            179.8492         estimate D2E/DX2                !
 ! D15   D(17,4,7,6)          -179.3021         estimate D2E/DX2                !
 ! D16   D(17,4,7,8)             0.8053         estimate D2E/DX2                !
 ! D17   D(2,5,6,7)             -0.095          estimate D2E/DX2                !
 ! D18   D(2,5,6,19)           179.4747         estimate D2E/DX2                !
 ! D19   D(18,5,6,7)          -179.9924         estimate D2E/DX2                !
 ! D20   D(18,5,6,19)           -0.4227         estimate D2E/DX2                !
 ! D21   D(5,6,7,4)              0.2565         estimate D2E/DX2                !
 ! D22   D(5,6,7,8)           -179.8508         estimate D2E/DX2                !
 ! D23   D(19,6,7,4)          -179.3205         estimate D2E/DX2                !
 ! D24   D(19,6,7,8)             0.5723         estimate D2E/DX2                !
 ! D25   D(4,7,8,9)             55.7265         estimate D2E/DX2                !
 ! D26   D(4,7,8,10)          -124.5182         estimate D2E/DX2                !
 ! D27   D(6,7,8,9)           -124.1643         estimate D2E/DX2                !
 ! D28   D(6,7,8,10)            55.5911         estimate D2E/DX2                !
 ! D29   D(7,8,9,20)          -125.8615         estimate D2E/DX2                !
 ! D30   D(7,8,9,21)           113.3954         estimate D2E/DX2                !
 ! D31   D(7,8,9,22)            -5.9487         estimate D2E/DX2                !
 ! D32   D(10,8,9,20)           54.3778         estimate D2E/DX2                !
 ! D33   D(10,8,9,21)          -66.3653         estimate D2E/DX2                !
 ! D34   D(10,8,9,22)          174.2906         estimate D2E/DX2                !
 ! D35   D(7,8,10,11)           12.7974         estimate D2E/DX2                !
 ! D36   D(7,8,10,15)         -168.0477         estimate D2E/DX2                !
 ! D37   D(9,8,10,11)         -167.4519         estimate D2E/DX2                !
 ! D38   D(9,8,10,15)           11.7029         estimate D2E/DX2                !
 ! D39   D(8,10,11,12)         179.5328         estimate D2E/DX2                !
 ! D40   D(8,10,11,23)           0.3506         estimate D2E/DX2                !
 ! D41   D(15,10,11,12)          0.3487         estimate D2E/DX2                !
 ! D42   D(15,10,11,23)       -178.8335         estimate D2E/DX2                !
 ! D43   D(8,10,15,14)        -179.5696         estimate D2E/DX2                !
 ! D44   D(8,10,15,27)           0.8192         estimate D2E/DX2                !
 ! D45   D(11,10,15,14)         -0.3964         estimate D2E/DX2                !
 ! D46   D(11,10,15,27)        179.9924         estimate D2E/DX2                !
 ! D47   D(10,11,12,13)         -0.0858         estimate D2E/DX2                !
 ! D48   D(10,11,12,24)       -179.9625         estimate D2E/DX2                !
 ! D49   D(23,11,12,13)        179.0878         estimate D2E/DX2                !
 ! D50   D(23,11,12,24)         -0.789          estimate D2E/DX2                !
 ! D51   D(11,12,13,14)         -0.1391         estimate D2E/DX2                !
 ! D52   D(11,12,13,25)        179.9757         estimate D2E/DX2                !
 ! D53   D(24,12,13,14)        179.7377         estimate D2E/DX2                !
 ! D54   D(24,12,13,25)         -0.1476         estimate D2E/DX2                !
 ! D55   D(12,13,14,15)          0.0911         estimate D2E/DX2                !
 ! D56   D(12,13,14,26)       -179.9076         estimate D2E/DX2                !
 ! D57   D(25,13,14,15)        179.9764         estimate D2E/DX2                !
 ! D58   D(25,13,14,26)         -0.0223         estimate D2E/DX2                !
 ! D59   D(13,14,15,10)          0.1822         estimate D2E/DX2                !
 ! D60   D(13,14,15,27)        179.7926         estimate D2E/DX2                !
 ! D61   D(26,14,15,10)       -179.8191         estimate D2E/DX2                !
 ! D62   D(26,14,15,27)         -0.2087         estimate D2E/DX2                !
 --------------------------------------------------------------------------------
 Trust Radius=3.00D-01 FncErr=1.00D-07 GrdErr=1.00D-06 EigMax=2.50D+02 EigMin=1.00D-04
 Number of steps in this run=    145 maximum allowed number of steps=    162.
 GradGradGradGradGradGradGradGradGradGradGradGradGradGradGradGradGradGrad

                          Input orientation:                          
 ---------------------------------------------------------------------
 Center     Atomic      Atomic             Coordinates (Angstroms)
 Number     Number       Type             X           Y           Z
 ---------------------------------------------------------------------
      1         17           0        4.579600   -0.720000    0.016620
      2          6           0        2.935670   -0.169790   -0.021120
      3          6           0        2.504060    0.785440    0.883610
      4          6           0        1.198430    1.221310    0.856390
      5          6           0        2.053830   -0.686340   -0.955210
      6          6           0        0.748080   -0.251740   -0.983850
      7          6           0        0.299180    0.707050   -0.076610
      8          7           0       -1.066830    1.157740   -0.106020
      9          6           0       -1.313060    2.590500   -0.248120
     10          6           0       -2.160730    0.256130   -0.006950
     11          6           0       -1.950780   -1.065510    0.387200
     12          6           0       -3.001250   -1.947920    0.496990
     13          6           0       -4.287540   -1.530730    0.217290
     14          6           0       -4.517210   -0.225070   -0.170050
     15          6           0       -3.468210    0.660130   -0.279750
     16          1           0        3.202370    1.175360    1.604360
     17          1           0        0.852870    1.952970    1.565400
     18          1           0        2.406110   -1.426380   -1.653340
     19          1           0        0.057800   -0.641220   -1.711500
     20          1           0       -1.956380    2.943340    0.555710
     21          1           0       -1.787150    2.796160   -1.205830
     22          1           0       -0.375990    3.142460   -0.208860
     23          1           0       -0.951140   -1.387180    0.619360
     24          1           0       -2.820070   -2.965120    0.803510
     25          1           0       -5.110190   -2.221640    0.302820
     26          1           0       -5.521120    0.101510   -0.387040
     27          1           0       -3.656290    1.673800   -0.585240
 ---------------------------------------------------------------------
                    Distance matrix (angstroms):
                    1          2          3          4          5
     1  Cl   0.000000
     2  C    1.733973   0.000000
     3  C    2.706638   1.384662   0.000000
     4  C    3.988259   2.392318   1.376733   0.000000
     5  C    2.706492   1.384554   2.397937   2.766357   0.000000
     6  C    3.987575   2.391467   2.765251   2.399828   1.376474
     7  C    4.512999   2.779030   2.406172   1.394132   2.406714
     8  N    5.951733   4.217766   3.724142   2.462047   3.722939
     9  C    6.764092   5.071729   4.371437   3.066302   4.751169
    10  C    6.810685   5.114186   4.778445   3.600123   4.421534
    11  C    6.550005   4.984620   4.849540   3.920103   4.240606
    12  C    7.694662   6.219100   6.158666   5.273566   5.408725
    13  C    8.906387   7.354166   7.206556   6.170741   6.503901
    14  C    9.112176   7.454573   7.171441   5.984491   6.633838
    15  C    8.170669   6.462611   6.085813   4.835625   5.723823
    16  H    2.830207   2.126674   1.076641   2.139473   3.366967
    17  H    4.840662   3.370640   2.134102   1.075841   3.842101
    18  H    2.830512   2.126874   3.367173   3.842850   1.076636
    19  H    4.841413   3.370722   3.841112   3.371070   2.134982
    20  H    7.511971   5.827218   4.965841   3.606747   5.615981
    21  H    7.375179   5.701353   5.179116   3.955577   5.190736
    22  H    6.287075   4.687573   3.878624   2.702660   4.595734
    23  H    5.603348   4.123050   4.090050   3.388370   3.464144
    24  H    7.772701   6.451545   6.513024   5.803218   5.660462
    25  H    9.809631   8.309686   8.207110   7.208261   7.433907
    26  H   10.142108   8.469049   8.153884   6.924769   7.636975
    27  H    8.597814   6.868114   6.395046   5.084422   6.189718
                    6          7          8          9         10
     6  C    0.000000
     7  C    1.394229   0.000000
     8  N    2.459902   1.438739   0.000000
     9  C    3.587189   2.485180   1.460693   0.000000
    10  C    3.110216   2.501867   1.421032   2.495194   0.000000
    11  C    3.134620   2.901622   2.442841   3.765200   1.395050
    12  C    4.373487   4.274426   3.708197   4.899228   2.412108
    13  C    5.332544   5.111950   4.207775   5.103790   2.786839
    14  C    5.327876   4.906648   3.717712   4.266158   2.410633
    15  C    4.370854   3.773154   2.458541   2.893441   1.395400
    16  H    3.841742   3.387254   4.599106   5.081674   5.674870
    17  H    3.372003   2.134265   2.666699   2.895954   3.799123
    18  H    2.139406   3.387736   4.597085   5.651743   5.137847
    19  H    1.075944   2.132829   2.660567   3.803255   2.938129
    20  H    4.460144   3.238576   2.101798   1.088347   2.753079
    21  H    3.970688   3.161059   2.100682   1.088240   2.833483
    22  H    3.658516   2.530724   2.104032   1.088256   3.399554
    23  H    2.597471   2.536429   2.648807   4.087230   2.134441
    24  H    4.825845   4.897873   4.571550   5.851659   3.386447
    25  H    6.313110   6.162992   5.285463   6.154545   3.864533
    26  H    6.307443   5.859943   4.586425   4.891026   3.385350
    27  H    4.823388   4.103542   2.683519   2.538644   2.140305
                   11         12         13         14         15
    11  C    0.000000
    12  C    1.376295   0.000000
    13  C    2.388670   1.380877   0.000000
    14  C    2.757432   2.389830   1.381133   0.000000
    15  C    2.392749   2.761033   2.391280   1.376958   0.000000
    16  H    5.749603   7.033210   8.083665   8.043734   6.950681
    17  H    4.284837   5.586831   6.354320   6.049248   4.873166
    18  H    4.824575   5.842556   6.950906   7.181619   6.383409
    19  H    2.935806   3.992829   4.836676   4.845613   4.021961
    20  H    4.012394   5.001962   5.056297   4.138043   2.862983
    21  H    4.180552   5.184586   5.196075   4.201654   2.871622
    22  H    4.532357   5.770804   6.109053   5.337740   3.965957
    23  H    1.075477   2.128933   3.363604   3.832822   3.366826
    24  H    2.130140   1.077718   2.134150   3.366894   3.838747
    25  H    3.365357   2.135475   1.077694   2.135772   3.367504
    26  H    3.835194   3.366217   2.133341   1.077764   2.130260
    27  H    3.370196   3.836294   3.363264   2.125858   1.075279
                   16         17         18         19         20
    16  H    0.000000
    17  H    2.475146   0.000000
    18  H    4.244489   4.918623   0.000000
    19  H    4.917643   4.254413   2.476776   0.000000
    20  H    5.553208   3.145186   6.557871   4.695342   0.000000
    21  H    5.951426   3.919233   5.967708   3.933843   1.775760
    22  H    4.467875   2.464342   5.540839   4.094183   1.766875
    23  H    4.978803   3.912294   4.054359   2.647135   4.446118
    24  H    7.352191   6.185352   5.976353   4.473022   5.976392
    25  H    9.073713   7.387798   7.807289   5.767437   6.057020
    26  H    9.012109   6.918647   8.171838   5.781885   4.655335
    27  H    7.216925   5.003570   6.892362   4.519098   2.408982
                   21         22         23         24         25
    21  H    0.000000
    22  H    1.762171   0.000000
    23  H    4.640104   4.640516   0.000000
    24  H    6.188434   6.655896   2.452897   0.000000
    25  H    6.204590   7.172729   4.253730   2.459289   0.000000
    26  H    4.676974   5.979255   4.910576   4.256442   2.458007
    27  H    2.266828   3.613723   4.258931   4.914007   4.251697
                   26         27
    26  H    0.000000
    27  H    2.447237   0.000000
 Stoichiometry    C13H12ClN
 Framework group  C1[X(C13H12ClN)]
 Deg. of freedom    75
 Full point group                 C1      NOp   1
 Largest Abelian subgroup         C1      NOp   1
 Largest concise Abelian subgroup C1      NOp   1
                         Standard orientation:                         
 ---------------------------------------------------------------------
 Center     Atomic      Atomic             Coordinates (Angstroms)
 Number     Number       Type             X           Y           Z
 ---------------------------------------------------------------------
      1         17           0       -4.672016   -0.773744   -0.013218
      2          6           0       -3.031215   -0.214233    0.023944
      3          6           0       -2.606616    0.746957   -0.877786
      4          6           0       -1.303469    1.190225   -0.851030
      5          6           0       -2.144860   -0.729309    0.954568
      6          6           0       -0.841584   -0.287316    0.982739
      7          6           0       -0.399720    0.677543    0.078485
      8          7           0        0.963724    1.135969    0.107389
      9          6           0        1.201952    2.569562    0.254638
     10          6           0        2.062622    0.241059    0.003019
     11          6           0        1.859614   -1.080232   -0.395906
     12          6           0        2.914954   -1.956151   -0.510849
     13          6           0        4.199290   -1.532651   -0.231656
     14          6           0        4.422098   -0.227199    0.160365
     15          6           0        3.368212    0.651518    0.275227
     16          1           0       -3.308360    1.135638   -1.595866
     17          1           0       -0.963306    1.926599   -1.557766
     18          1           0       -2.491713   -1.474059    1.650403
     19          1           0       -0.147861   -0.675629    1.707734
     20          1           0        1.841888    2.929205   -0.548878
     21          1           0        1.676452    2.774241    1.212355
     22          1           0        0.261660    3.116268    0.219064
     23          1           0        0.861453   -1.406749   -0.627662
     24          1           0        2.739112   -2.973184   -0.821012
     25          1           0        5.025754   -2.218480   -0.321221
     26          1           0        5.424476    0.104311    0.376964
     27          1           0        3.550973    1.665065    0.584335
 ---------------------------------------------------------------------
 Rotational constants (GHZ):           1.3853416           0.2514322           0.2246422
 Standard basis: def2SVP (5D, 7F)
 There are   289 symmetry adapted cartesian basis functions of A   symmetry.
 There are   274 symmetry adapted basis functions of A   symmetry.
   274 basis functions,   471 primitive gaussians,   289 cartesian basis functions
    57 alpha electrons       57 beta electrons
       nuclear repulsion energy       992.1368441902 Hartrees.
 NAtoms=   27 NActive=   27 NUniq=   27 SFac= 1.00D+00 NAtFMM=   60 NAOKFM=F Big=F
 Integral buffers will be    131072 words long.
 Raffenetti 2 integral format.
 Two-electron integral symmetry is turned on.
 Nuclear repulsion after empirical dispersion term =      992.1189136021 Hartrees.
 One-electron integrals computed using PRISM.
   1 Symmetry operations used in ECPInt.
 ECPInt:  NShTT=    8256 NPrTT=   30622 LenC2=    7747 LenP2D=   20897.
 LDataN:  DoStor=T MaxTD1= 4 Len=   56
 NBasis=   274 RedAO= T EigKep=  2.27D-04  NBF=   274
 NBsUse=   274 1.00D-06 EigRej= -1.00D+00 NBFU=   274
 ExpMin= 1.22D-01 ExpMax= 1.04D+04 ExpMxC= 1.57D+03 IAcc=3 IRadAn=         5 AccDes= 0.00D+00
 Harris functional with IExCor= 4639 and IRadAn=       5 diagonalized for initial guess.
 HarFok:  IExCor= 4639 AccDes= 0.00D+00 IRadAn=         5 IDoV= 1 UseB2=F ITyADJ=14
 ICtDFT=  3500011 ScaDFX=  1.000000  1.000000  1.000000  1.000000
 FoFCou: FMM=F IPFlag=           0 FMFlag=      100000 FMFlg1=           0
         NFxFlg=           0 DoJE=T BraDBF=F KetDBF=T FulRan=T
         wScrn=  0.000000 ICntrl=       500 IOpCl=  0 I1Cent=   200000004 NGrid=           0
         NMat0=    1 NMatS0=      1 NMatT0=    0 NMatD0=    1 NMtDS0=    0 NMtDT0=    0
 Petite list used in FoFCou.
 Requested convergence on RMS density matrix=1.00D-08 within 128 cycles.
 Requested convergence on MAX density matrix=1.00D-06.
 Requested convergence on             energy=1.00D-06.
 No special actions if energy rises.
 Integral accuracy reduced to 1.0D-05 until final iterations.
 Initial convergence to 1.0D-05 achieved.  Increase integral accuracy.
 SCF Done:  E(RwB97XD) =  -1016.82315393     A.U. after   16 cycles
            NFock= 16  Conv=0.49D-08     -V/T= 2.0067

 **********************************************************************

            Population analysis using the SCF Density.

 **********************************************************************

 Orbital symmetries:
       Occupied  (A) (A) (A) (A) (A) (A) (A) (A) (A) (A) (A) (A)
                 (A) (A) (A) (A) (A) (A) (A) (A) (A) (A) (A) (A)
                 (A) (A) (A) (A) (A) (A) (A) (A) (A) (A) (A) (A)
                 (A) (A) (A) (A) (A) (A) (A) (A) (A) (A) (A) (A)
                 (A) (A) (A) (A) (A) (A) (A) (A) (A)
       Virtual   (A) (A) (A) (A) (A) (A) (A) (A) (A) (A) (A) (A)
                 (A) (A) (A) (A) (A) (A) (A) (A) (A) (A) (A) (A)
                 (A) (A) (A) (A) (A) (A) (A) (A) (A) (A) (A) (A)
                 (A) (A) (A) (A) (A) (A) (A) (A) (A) (A) (A) (A)
                 (A) (A) (A) (A) (A) (A) (A) (A) (A) (A) (A) (A)
                 (A) (A) (A) (A) (A) (A) (A) (A) (A) (A) (A) (A)
                 (A) (A) (A) (A) (A) (A) (A) (A) (A) (A) (A) (A)
                 (A) (A) (A) (A) (A) (A) (A) (A) (A) (A) (A) (A)
                 (A) (A) (A) (A) (A) (A) (A) (A) (A) (A) (A) (A)
                 (A) (A) (A) (A) (A) (A) (A) (A) (A) (A) (A) (A)
                 (A) (A) (A) (A) (A) (A) (A) (A) (A) (A) (A) (A)
                 (A) (A) (A) (A) (A) (A) (A) (A) (A) (A) (A) (A)
                 (A) (A) (A) (A) (A) (A) (A) (A) (A) (A) (A) (A)
                 (A) (A) (A) (A) (A) (A) (A) (A) (A) (A) (A) (A)
                 (A) (A) (A) (A) (A) (A) (A) (A) (A) (A) (A) (A)
                 (A) (A) (A) (A) (A) (A) (A) (A) (A) (A) (A) (A)
                 (A) (A) (A) (A) (A) (A) (A) (A) (A) (A) (A) (A)
                 (A) (A) (A) (A) (A) (A) (A) (A) (A) (A) (A) (A)
                 (A)
 The electronic state is 1-A.
 Alpha  occ. eigenvalues -- -101.67738 -14.46932 -10.35892 -10.35022 -10.34239
 Alpha  occ. eigenvalues --  -10.33447 -10.31595 -10.31521 -10.31325 -10.31156
 Alpha  occ. eigenvalues --  -10.29585 -10.29490 -10.29176 -10.28895 -10.28518
 Alpha  occ. eigenvalues --   -9.58548  -7.33932  -7.32955  -7.32932  -1.04761
 Alpha  occ. eigenvalues --   -0.99436  -0.95037  -0.93155  -0.86301  -0.84644
 Alpha  occ. eigenvalues --   -0.84237  -0.82770  -0.77163  -0.72242  -0.71022
 Alpha  occ. eigenvalues --   -0.69281  -0.67022  -0.63549  -0.60542  -0.58208
 Alpha  occ. eigenvalues --   -0.56895  -0.55928  -0.54551  -0.53496  -0.53056
 Alpha  occ. eigenvalues --   -0.52417  -0.51678  -0.50877  -0.49336  -0.48428
 Alpha  occ. eigenvalues --   -0.46866  -0.46485  -0.45170  -0.43799  -0.42760
 Alpha  occ. eigenvalues --   -0.41793  -0.39371  -0.37969  -0.35193  -0.33192
 Alpha  occ. eigenvalues --   -0.32875  -0.26717
 Alpha virt. eigenvalues --    0.04333   0.04576   0.06927   0.08526   0.11647
 Alpha virt. eigenvalues --    0.14256   0.15930   0.17714   0.18353   0.18705
 Alpha virt. eigenvalues --    0.19812   0.20539   0.21371   0.21919   0.22292
 Alpha virt. eigenvalues --    0.23155   0.23401   0.24706   0.25543   0.25603
 Alpha virt. eigenvalues --    0.30602   0.33064   0.35456   0.35613   0.36183
 Alpha virt. eigenvalues --    0.37616   0.38931   0.39639   0.40469   0.41935
 Alpha virt. eigenvalues --    0.43033   0.44530   0.44864   0.48229   0.48498
 Alpha virt. eigenvalues --    0.49388   0.50070   0.51007   0.52695   0.53412
 Alpha virt. eigenvalues --    0.54270   0.55314   0.56170   0.57066   0.57494
 Alpha virt. eigenvalues --    0.57779   0.58729   0.59605   0.60130   0.61816
 Alpha virt. eigenvalues --    0.63328   0.63690   0.64077   0.65081   0.66872
 Alpha virt. eigenvalues --    0.67797   0.68699   0.71072   0.71391   0.72124
 Alpha virt. eigenvalues --    0.72717   0.73299   0.73573   0.74808   0.74985
 Alpha virt. eigenvalues --    0.75219   0.75898   0.76690   0.77041   0.78316
 Alpha virt. eigenvalues --    0.78661   0.79995   0.80747   0.81412   0.81970
 Alpha virt. eigenvalues --    0.83272   0.83386   0.85090   0.85878   0.86761
 Alpha virt. eigenvalues --    0.88138   0.88782   0.89060   0.90277   0.91376
 Alpha virt. eigenvalues --    0.91792   0.92958   0.94354   0.95041   0.96680
 Alpha virt. eigenvalues --    0.99395   1.02223   1.03873   1.04956   1.06905
 Alpha virt. eigenvalues --    1.08993   1.12038   1.15478   1.17935   1.18711
 Alpha virt. eigenvalues --    1.20296   1.26351   1.26937   1.31098   1.31369
 Alpha virt. eigenvalues --    1.31613   1.32255   1.33495   1.33768   1.34567
 Alpha virt. eigenvalues --    1.35899   1.37259   1.38611   1.39036   1.40000
 Alpha virt. eigenvalues --    1.40358   1.41396   1.44414   1.49220   1.54894
 Alpha virt. eigenvalues --    1.58523   1.60722   1.61848   1.64029   1.66538
 Alpha virt. eigenvalues --    1.71744   1.76155   1.77187   1.77626   1.78663
 Alpha virt. eigenvalues --    1.79575   1.80991   1.81921   1.83102   1.83676
 Alpha virt. eigenvalues --    1.84543   1.85172   1.85814   1.86580   1.88110
 Alpha virt. eigenvalues --    1.88882   1.89619   1.90042   1.90727   1.91965
 Alpha virt. eigenvalues --    1.92305   1.94156   1.96033   1.97779   1.98929
 Alpha virt. eigenvalues --    1.99911   2.00622   2.03398   2.04986   2.06551
 Alpha virt. eigenvalues --    2.08902   2.09175   2.10832   2.13951   2.15743
 Alpha virt. eigenvalues --    2.16072   2.18053   2.21102   2.22230   2.23977
 Alpha virt. eigenvalues --    2.25168   2.25835   2.26864   2.28397   2.29359
 Alpha virt. eigenvalues --    2.32513   2.34022   2.35961   2.37015   2.38605
 Alpha virt. eigenvalues --    2.39890   2.41304   2.43278   2.44096   2.45275
 Alpha virt. eigenvalues --    2.46449   2.46650   2.49830   2.54550   2.57399
 Alpha virt. eigenvalues --    2.60069   2.65537   2.69515   2.70330   2.71414
 Alpha virt. eigenvalues --    2.72411   2.73362   2.74838   2.75528   2.78366
 Alpha virt. eigenvalues --    2.83426   2.85117   2.85601   2.88040   2.90923
 Alpha virt. eigenvalues --    2.93085   2.96134   2.99429   2.99800   3.02054
 Alpha virt. eigenvalues --    3.03269   3.05350   3.06700   3.07712   3.20181
 Alpha virt. eigenvalues --    3.22011   3.28194   3.28881   3.36082   3.46187
 Alpha virt. eigenvalues --    3.71046   3.80024
          Condensed to atoms (all electrons):
               1          2          3          4          5          6
     1  Cl  16.970090   0.228594  -0.053486   0.002994  -0.053261   0.002911
     2  C    0.228594   5.274363   0.277357   0.105017   0.268522   0.106907
     3  C   -0.053486   0.277357   5.039167   0.263991   0.092624  -0.136348
     4  C    0.002994   0.105017   0.263991   5.119430  -0.136852   0.056995
     5  C   -0.053261   0.268522   0.092624  -0.136852   5.054526   0.258057
     6  C    0.002911   0.106907  -0.136348   0.056995   0.258057   5.130397
     7  C    0.000938  -0.188499   0.116370   0.272346   0.121898   0.259097
     8  N    0.000001   0.000006   0.008428  -0.073698   0.008830  -0.073762
     9  C   -0.000000   0.000056  -0.000021  -0.006555  -0.000124   0.002765
    10  C   -0.000000   0.000009  -0.000119   0.002814   0.000098  -0.006404
    11  C    0.000000   0.000088  -0.000057   0.000725  -0.001957  -0.003254
    12  C    0.000000  -0.000001   0.000001  -0.000048   0.000016  -0.000079
    13  C   -0.000000   0.000000   0.000000  -0.000003  -0.000002  -0.000024
    14  C   -0.000000  -0.000000  -0.000000   0.000006   0.000001  -0.000021
    15  C    0.000000   0.000001   0.000004  -0.000410  -0.000025   0.000086
    16  H    0.001249  -0.073378   0.444482  -0.054794   0.014718  -0.002274
    17  H   -0.000118   0.016031  -0.068142   0.456300  -0.002945   0.016677
    18  H    0.001207  -0.074941   0.014961  -0.002413   0.447129  -0.056106
    19  H   -0.000113   0.015903  -0.002827   0.016154  -0.069971   0.463645
    20  H    0.000000   0.000001  -0.000090   0.001552   0.000037  -0.000644
    21  H    0.000000  -0.000006   0.000065  -0.000176  -0.000091   0.001159
    22  H    0.000000  -0.000070   0.000036   0.003090  -0.000044  -0.000338
    23  H    0.000001   0.000131  -0.000012  -0.001273  -0.000877   0.001486
    24  H    0.000000  -0.000000  -0.000000   0.000003   0.000000   0.000029
    25  H    0.000000  -0.000000   0.000000   0.000000   0.000000   0.000000
    26  H    0.000000  -0.000000   0.000000  -0.000000  -0.000000  -0.000000
    27  H    0.000000   0.000000   0.000000   0.000009  -0.000000  -0.000021
               7          8          9         10         11         12
     1  Cl   0.000938   0.000001  -0.000000  -0.000000   0.000000   0.000000
     2  C   -0.188499   0.000006   0.000056   0.000009   0.000088  -0.000001
     3  C    0.116370   0.008428  -0.000021  -0.000119  -0.000057   0.000001
     4  C    0.272346  -0.073698  -0.006555   0.002814   0.000725  -0.000048
     5  C    0.121898   0.008830  -0.000124   0.000098  -0.001957   0.000016
     6  C    0.259097  -0.073762   0.002765  -0.006404  -0.003254  -0.000079
     7  C    5.193205   0.299710  -0.050349  -0.044261  -0.005061  -0.000692
     8  N    0.299710   6.817954   0.337667   0.342709  -0.089018   0.008496
     9  C   -0.050349   0.337667   4.433943  -0.050630   0.006486  -0.000252
    10  C   -0.044261   0.342709  -0.050630   5.049136   0.270726   0.121479
    11  C   -0.005061  -0.089018   0.006486   0.270726   5.191668   0.284350
    12  C   -0.000692   0.008496  -0.000252   0.121479   0.284350   5.042194
    13  C    0.000043  -0.000669   0.000085  -0.165398   0.088015   0.273525
    14  C   -0.000116   0.008079   0.000391   0.121719  -0.155781   0.103195
    15  C    0.007413  -0.091121   0.003799   0.258991   0.073730  -0.154506
    16  H    0.014785  -0.000148  -0.000008   0.000006  -0.000002  -0.000000
    17  H   -0.071058  -0.008967   0.002039  -0.000229  -0.000076   0.000003
    18  H    0.014900  -0.000139   0.000004  -0.000007   0.000021  -0.000000
    19  H   -0.070802  -0.009859  -0.000148   0.003179   0.001275  -0.000081
    20  H    0.001780  -0.029224   0.401274  -0.006954   0.000132  -0.000032
    21  H    0.004111  -0.031077   0.400499  -0.010613  -0.000489   0.000057
    22  H   -0.005216  -0.019379   0.399966   0.006027  -0.000134   0.000004
    23  H    0.007764  -0.016467  -0.000115  -0.069102   0.458919  -0.070723
    24  H   -0.000014  -0.000106   0.000006   0.015293  -0.068761   0.454108
    25  H    0.000000   0.000011  -0.000000  -0.001432   0.014928  -0.070504
    26  H    0.000007  -0.000091  -0.000038   0.015367  -0.001934   0.014243
    27  H   -0.000144  -0.016545   0.011894  -0.078450   0.016792  -0.002549
              13         14         15         16         17         18
     1  Cl  -0.000000  -0.000000   0.000000   0.001249  -0.000118   0.001207
     2  C    0.000000  -0.000000   0.000001  -0.073378   0.016031  -0.074941
     3  C    0.000000  -0.000000   0.000004   0.444482  -0.068142   0.014961
     4  C   -0.000003   0.000006  -0.000410  -0.054794   0.456300  -0.002413
     5  C   -0.000002   0.000001  -0.000025   0.014718  -0.002945   0.447129
     6  C   -0.000024  -0.000021   0.000086  -0.002274   0.016677  -0.056106
     7  C    0.000043  -0.000116   0.007413   0.014785  -0.071058   0.014900
     8  N   -0.000669   0.008079  -0.091121  -0.000148  -0.008967  -0.000139
     9  C    0.000085   0.000391   0.003799  -0.000008   0.002039   0.000004
    10  C   -0.165398   0.121719   0.258991   0.000006  -0.000229  -0.000007
    11  C    0.088015  -0.155781   0.073730  -0.000002  -0.000076   0.000021
    12  C    0.273525   0.103195  -0.154506  -0.000000   0.000003  -0.000000
    13  C    5.113633   0.281622   0.088295   0.000000   0.000000  -0.000000
    14  C    0.281622   5.045556   0.269944   0.000000   0.000000   0.000000
    15  C    0.088295   0.269944   5.212596  -0.000000  -0.000053  -0.000000
    16  H    0.000000   0.000000  -0.000000   0.654642  -0.012727  -0.000290
    17  H    0.000000   0.000000  -0.000053  -0.012727   0.664927   0.000029
    18  H   -0.000000   0.000000  -0.000000  -0.000290   0.000029   0.653401
    19  H   -0.000003   0.000006  -0.000530   0.000025  -0.000211  -0.012391
    20  H   -0.000079   0.000868   0.005075   0.000002  -0.000852  -0.000000
    21  H   -0.000064   0.000850   0.003776  -0.000001   0.000253   0.000001
    22  H    0.000004  -0.000051   0.000515   0.000030   0.000501   0.000001
    23  H    0.015074  -0.002449   0.016110  -0.000005  -0.000085   0.000000
    24  H   -0.071943   0.014254  -0.001930   0.000000  -0.000000  -0.000000
    25  H    0.452675  -0.070404   0.014854   0.000000   0.000000   0.000000
    26  H   -0.070505   0.453427  -0.069455  -0.000000  -0.000000   0.000000
    27  H    0.015745  -0.071356   0.459638  -0.000000  -0.000005  -0.000000
              19         20         21         22         23         24
     1  Cl  -0.000113   0.000000   0.000000   0.000000   0.000001   0.000000
     2  C    0.015903   0.000001  -0.000006  -0.000070   0.000131  -0.000000
     3  C   -0.002827  -0.000090   0.000065   0.000036  -0.000012  -0.000000
     4  C    0.016154   0.001552  -0.000176   0.003090  -0.001273   0.000003
     5  C   -0.069971   0.000037  -0.000091  -0.000044  -0.000877   0.000000
     6  C    0.463645  -0.000644   0.001159  -0.000338   0.001486   0.000029
     7  C   -0.070802   0.001780   0.004111  -0.005216   0.007764  -0.000014
     8  N   -0.009859  -0.029224  -0.031077  -0.019379  -0.016467  -0.000106
     9  C   -0.000148   0.401274   0.400499   0.399966  -0.000115   0.000006
    10  C    0.003179  -0.006954  -0.010613   0.006027  -0.069102   0.015293
    11  C    0.001275   0.000132  -0.000489  -0.000134   0.458919  -0.068761
    12  C   -0.000081  -0.000032   0.000057   0.000004  -0.070723   0.454108
    13  C   -0.000003  -0.000079  -0.000064   0.000004   0.015074  -0.071943
    14  C    0.000006   0.000868   0.000850  -0.000051  -0.002449   0.014254
    15  C   -0.000530   0.005075   0.003776   0.000515   0.016110  -0.001930
    16  H    0.000025   0.000002  -0.000001   0.000030  -0.000005   0.000000
    17  H   -0.000211  -0.000852   0.000253   0.000501  -0.000085  -0.000000
    18  H   -0.012391  -0.000000   0.000001   0.000001   0.000000  -0.000000
    19  H    0.648089   0.000011  -0.000034  -0.000019  -0.001745   0.000013
    20  H    0.000011   0.645791  -0.039520  -0.019726   0.000031   0.000000
    21  H   -0.000034  -0.039520   0.650240  -0.020198  -0.000031  -0.000000
    22  H   -0.000019  -0.019726  -0.020198   0.603316  -0.000008  -0.000000
    23  H   -0.001745   0.000031  -0.000031  -0.000008   0.664073  -0.013151
    24  H    0.000013   0.000000  -0.000000  -0.000000  -0.013151   0.674913
    25  H   -0.000000  -0.000000   0.000000  -0.000000  -0.000249  -0.012418
    26  H   -0.000001   0.000005   0.000019  -0.000001   0.000020  -0.000267
    27  H   -0.000006  -0.001488  -0.001563   0.000043  -0.000176   0.000023
              25         26         27
     1  Cl   0.000000   0.000000   0.000000
     2  C   -0.000000  -0.000000   0.000000
     3  C    0.000000   0.000000   0.000000
     4  C    0.000000  -0.000000   0.000009
     5  C    0.000000  -0.000000  -0.000000
     6  C    0.000000  -0.000000  -0.000021
     7  C    0.000000   0.000007  -0.000144
     8  N    0.000011  -0.000091  -0.016545
     9  C   -0.000000  -0.000038   0.011894
    10  C   -0.001432   0.015367  -0.078450
    11  C    0.014928  -0.001934   0.016792
    12  C   -0.070504   0.014243  -0.002549
    13  C    0.452675  -0.070505   0.015745
    14  C   -0.070404   0.453427  -0.071356
    15  C    0.014854  -0.069455   0.459638
    16  H    0.000000  -0.000000  -0.000000
    17  H    0.000000  -0.000000  -0.000005
    18  H    0.000000   0.000000  -0.000000
    19  H   -0.000000  -0.000001  -0.000006
    20  H   -0.000000   0.000005  -0.001488
    21  H    0.000000   0.000019  -0.001563
    22  H   -0.000000  -0.000001   0.000043
    23  H   -0.000249   0.000020  -0.000176
    24  H   -0.012418  -0.000267   0.000023
    25  H    0.680615  -0.012461  -0.000260
    26  H   -0.012461   0.676167  -0.013736
    27  H   -0.000260  -0.013736   0.696455
 Mulliken charges:
               1
     1  Cl  -0.101007
     2  C    0.043908
     3  C    0.003612
     4  C   -0.025203
     5  C   -0.000308
     6  C   -0.020935
     7  C    0.121848
     8  N   -0.371622
     9  C    0.107367
    10  C    0.226048
    11  C   -0.081330
    12  C   -0.002204
    13  C   -0.020027
    14  C    0.000259
    15  C   -0.096798
    16  H    0.013687
    17  H    0.008706
    18  H    0.014635
    19  H    0.020440
    20  H    0.042051
    21  H    0.042833
    22  H    0.051650
    23  H    0.012860
    24  H    0.009949
    25  H    0.004644
    26  H    0.009234
    27  H   -0.014297
 Sum of Mulliken charges =  -0.00000
 Mulliken charges with hydrogens summed into heavy atoms:
               1
     1  Cl  -0.101007
     2  C    0.043908
     3  C    0.017299
     4  C   -0.016497
     5  C    0.014327
     6  C   -0.000495
     7  C    0.121848
     8  N   -0.371622
     9  C    0.243900
    10  C    0.226048
    11  C   -0.068470
    12  C    0.007745
    13  C   -0.015383
    14  C    0.009493
    15  C   -0.111095
 Electronic spatial extent (au):  <R**2>=           4596.0428
 Charge=             -0.0000 electrons
 Dipole moment (field-independent basis, Debye):
    X=              0.8794    Y=              1.4987    Z=              0.1545  Tot=              1.7445
 Quadrupole moment (field-independent basis, Debye-Ang):
   XX=            -99.1956   YY=            -86.7646   ZZ=            -94.7749
   XY=              0.2552   XZ=              2.1191   YZ=             -1.6729
 Traceless Quadrupole moment (field-independent basis, Debye-Ang):
   XX=             -5.6172   YY=              6.8138   ZZ=             -1.1966
   XY=              0.2552   XZ=              2.1191   YZ=             -1.6729
 Octapole moment (field-independent basis, Debye-Ang**2):
  XXX=             29.0207  YYY=              6.2702  ZZZ=              2.0979  XYY=              3.7582
  XXY=              6.4467  XXZ=              0.8232  XZZ=            -20.5879  YZZ=              2.0101
  YYZ=             -3.4927  XYZ=             12.5009
 Hexadecapole moment (field-independent basis, Debye-Ang**3):
 XXXX=          -4894.8808 YYYY=           -890.2956 ZZZZ=           -283.7388 XXXY=              0.1533
 XXXZ=             48.1950 YYYX=             17.2776 YYYZ=              7.0391 ZZZX=              9.1945
 ZZZY=            -13.8034 XXYY=           -945.6463 XXZZ=           -900.5380 YYZZ=           -197.1993
 XXYZ=             -0.1929 YYXZ=             -5.7615 ZZXY=             15.1015
 N-N= 9.921189136021D+02 E-N=-4.366572141199D+03  KE= 1.010066282085D+03
   1 Symmetry operations used in ECPInt.
 ECPInt:  NShTT=    8256 NPrTT=   30622 LenC2=    7747 LenP2D=   20897.
 LDataN:  DoStor=T MaxTD1= 5 Len=  102
 Calling FoFJK, ICntrl=      2127 FMM=F ISym2X=0 I1Cent= 0 IOpClX= 0 NMat=1 NMatS=1 NMatT=0.
 ***** Axes restored to original set *****
 -------------------------------------------------------------------
 Center     Atomic                   Forces (Hartrees/Bohr)
 Number     Number              X              Y              Z
 -------------------------------------------------------------------
      1       17           0.003832372   -0.001244793    0.000105220
      2        6           0.001809650   -0.000214331    0.000843201
      3        6           0.008220398   -0.000275975   -0.000161856
      4        6          -0.009080560   -0.001928172   -0.004852146
      5        6           0.005474933   -0.003936495   -0.000423002
      6        6          -0.004203716    0.006466590    0.002955636
      7        6          -0.023630142    0.004171902   -0.000228772
      8        7           0.005262020   -0.005293528    0.002020465
      9        6           0.001143766   -0.019502112    0.002803574
     10        6           0.024039972    0.015329377   -0.003296524
     11        6           0.005248197    0.000297958    0.001682842
     12        6          -0.000431704    0.000887213   -0.000926914
     13        6          -0.008375285   -0.004302854   -0.000153736
     14        6          -0.000949405   -0.004276197    0.001670857
     15        6           0.006921867    0.009039275   -0.001489511
     16        1           0.005999554    0.004471246    0.007698945
     17        1          -0.002653224    0.007538447    0.008442621
     18        1           0.002415854   -0.007180167   -0.007624368
     19        1          -0.006608263   -0.004829335   -0.007810365
     20        1          -0.006292868    0.005427312    0.005698852
     21        1          -0.004878733    0.005144699   -0.008431303
     22        1           0.005472853    0.000902423   -0.000040922
     23        1           0.009407261   -0.004690290    0.003016944
     24        1           0.002656709   -0.009567137    0.003282590
     25        1          -0.008039230   -0.006604416    0.000766023
     26        1          -0.009337845    0.004027661   -0.002289025
     27        1          -0.003424432    0.010141701   -0.003259326
 -------------------------------------------------------------------
 Cartesian Forces:  Max     0.024039972 RMS     0.006808214

 GradGradGradGradGradGradGradGradGradGradGradGradGradGradGradGradGradGrad
 Berny optimization.
 FormGI is forming the generalized inverse of G from B-inverse, IUseBI=4.
 Internal  Forces:  Max     0.020230490 RMS     0.005590634
 Search for a local minimum.
 Step number   1 out of a maximum of  145
 All quantities printed in internal units (Hartrees-Bohrs-Radians)
 Mixed Optimization -- RFO/linear search
 Second derivative matrix not updated -- first step.
 ITU=  0
     Eigenvalues ---    0.00889   0.01129   0.01179   0.01414   0.01867
     Eigenvalues ---    0.01930   0.02181   0.02189   0.02261   0.02268
     Eigenvalues ---    0.02284   0.02286   0.02292   0.02324   0.02326
     Eigenvalues ---    0.02335   0.02340   0.02351   0.02357   0.02357
     Eigenvalues ---    0.02369   0.02376   0.07432   0.07469   0.15998
     Eigenvalues ---    0.15998   0.16000   0.16000   0.16000   0.16000
     Eigenvalues ---    0.16000   0.16000   0.16000   0.16000   0.16000
     Eigenvalues ---    0.16000   0.22000   0.22000   0.22000   0.22970
     Eigenvalues ---    0.23465   0.24000   0.24997   0.25000   0.25000
     Eigenvalues ---    0.25000   0.25000   0.32093   0.35004   0.35015
     Eigenvalues ---    0.35017   0.36266   0.36271   0.36274   0.36403
     Eigenvalues ---    0.36404   0.36489   0.36502   0.36546   0.36571
     Eigenvalues ---    0.36878   0.39759   0.42305   0.43041   0.43138
     Eigenvalues ---    0.43725   0.43765   0.47270   0.47304   0.47563
     Eigenvalues ---    0.47936   0.48695   0.49112   0.49727   0.49729
 RFO step:  Lambda=-1.06643511D-02 EMin= 8.88933786D-03
 Linear search not attempted -- first point.
 Iteration  1 RMS(Cart)=  0.04525219 RMS(Int)=  0.00044970
 Iteration  2 RMS(Cart)=  0.00104823 RMS(Int)=  0.00008781
 Iteration  3 RMS(Cart)=  0.00000060 RMS(Int)=  0.00008781
 Variable       Old X    -DE/DX   Delta X   Delta X   Delta X     New X
                                 (Linear)    (Quad)   (Total)
    R1        3.27673   0.00403   0.00000   0.01216   0.01216   3.28889
    R2        2.61663   0.00940   0.00000   0.01949   0.01949   2.63612
    R3        2.61643   0.01051   0.00000   0.02176   0.02176   2.63819
    R4        2.60165   0.01489   0.00000   0.02931   0.02931   2.63096
    R5        2.03456   0.01067   0.00000   0.02846   0.02846   2.06302
    R6        2.63453   0.00592   0.00000   0.01194   0.01194   2.64647
    R7        2.03304   0.01154   0.00000   0.03073   0.03073   2.06377
    R8        2.60116   0.01409   0.00000   0.02774   0.02774   2.62890
    R9        2.03455   0.01067   0.00000   0.02847   0.02847   2.06302
   R10        2.63471   0.00681   0.00000   0.01382   0.01382   2.64854
   R11        2.03324   0.01127   0.00000   0.03001   0.03001   2.06325
   R12        2.71882  -0.01847   0.00000  -0.04523  -0.04523   2.67359
   R13        2.76031  -0.00711   0.00000  -0.01874  -0.01874   2.74157
   R14        2.68536  -0.02023   0.00000  -0.04664  -0.04664   2.63872
   R15        2.05668   0.00969   0.00000   0.02686   0.02686   2.08354
   R16        2.05648   0.01052   0.00000   0.02915   0.02915   2.08562
   R17        2.05651   0.00517   0.00000   0.01432   0.01432   2.07083
   R18        2.63626   0.01311   0.00000   0.02741   0.02740   2.66366
   R19        2.63692   0.01020   0.00000   0.02126   0.02125   2.65817
   R20        2.60082   0.01472   0.00000   0.02900   0.02900   2.62982
   R21        2.03236   0.01080   0.00000   0.02871   0.02871   2.06106
   R22        2.60948   0.01474   0.00000   0.02970   0.02970   2.63918
   R23        2.03659   0.01041   0.00000   0.02788   0.02788   2.06447
   R24        2.60996   0.01180   0.00000   0.02378   0.02379   2.63375
   R25        2.03655   0.01043   0.00000   0.02794   0.02794   2.06448
   R26        2.60207   0.01687   0.00000   0.03320   0.03320   2.63528
   R27        2.03668   0.01038   0.00000   0.02780   0.02780   2.06448
   R28        2.03198   0.01109   0.00000   0.02945   0.02945   2.06144
    A1        2.09463  -0.00075   0.00000  -0.00381  -0.00381   2.09082
    A2        2.09456  -0.00062   0.00000  -0.00334  -0.00334   2.09122
    A3        2.09400   0.00137   0.00000   0.00715   0.00715   2.10115
    A4        2.09567  -0.00204   0.00000  -0.00772  -0.00776   2.08791
    A5        2.07725   0.00227   0.00000   0.01115   0.01113   2.08838
    A6        2.11026  -0.00023   0.00000  -0.00347  -0.00349   2.10678
    A7        2.10384   0.00083   0.00000   0.00285   0.00283   2.10667
    A8        2.10237  -0.00172   0.00000  -0.00903  -0.00903   2.09334
    A9        2.07685   0.00089   0.00000   0.00630   0.00630   2.08314
   A10        2.09489  -0.00185   0.00000  -0.00678  -0.00681   2.08808
   A11        2.07774   0.00221   0.00000   0.01090   0.01087   2.08861
   A12        2.11055  -0.00036   0.00000  -0.00414  -0.00417   2.10638
   A13        2.10483   0.00054   0.00000   0.00166   0.00165   2.10648
   A14        2.10409  -0.00124   0.00000  -0.00652  -0.00652   2.09757
   A15        2.07424   0.00070   0.00000   0.00490   0.00490   2.07913
   A16        2.07313   0.00115   0.00000   0.00284   0.00276   2.07589
   A17        2.10662  -0.00170   0.00000  -0.00575  -0.00582   2.10080
   A18        2.10344   0.00055   0.00000   0.00287   0.00279   2.10623
   A19        2.05930   0.00331   0.00000   0.01268   0.01264   2.07194
   A20        2.13023   0.00021   0.00000   0.00080   0.00076   2.13099
   A21        2.09366  -0.00352   0.00000  -0.01354  -0.01358   2.08008
   A22        1.92388   0.00374   0.00000   0.02355   0.02338   1.94725
   A23        1.92242   0.00460   0.00000   0.02775   0.02759   1.95001
   A24        1.92713  -0.00443   0.00000  -0.02841  -0.02823   1.89889
   A25        1.90838  -0.00330   0.00000  -0.01454  -0.01500   1.89338
   A26        1.89431   0.00002   0.00000  -0.00148  -0.00132   1.89299
   A27        1.88707  -0.00080   0.00000  -0.00794  -0.00775   1.87931
   A28        2.10010   0.00569   0.00000   0.02210   0.02205   2.12215
   A29        2.12230  -0.00700   0.00000  -0.02656  -0.02659   2.09570
   A30        2.06070   0.00130   0.00000   0.00423   0.00417   2.06487
   A31        2.11190  -0.00183   0.00000  -0.00810  -0.00811   2.10379
   A32        2.07628   0.00264   0.00000   0.01415   0.01416   2.09044
   A33        2.09492  -0.00081   0.00000  -0.00606  -0.00606   2.08886
   A34        2.09568   0.00305   0.00000   0.01394   0.01394   2.10962
   A35        2.09384  -0.00250   0.00000  -0.01270  -0.01271   2.08113
   A36        2.09366  -0.00055   0.00000  -0.00125  -0.00126   2.09240
   A37        2.09130  -0.00411   0.00000  -0.01685  -0.01684   2.07446
   A38        2.09589   0.00218   0.00000   0.00917   0.00916   2.10505
   A39        2.09600   0.00193   0.00000   0.00767   0.00766   2.10366
   A40        2.09832   0.00264   0.00000   0.01181   0.01181   2.11013
   A41        2.09188  -0.00034   0.00000  -0.00016  -0.00016   2.09172
   A42        2.09299  -0.00230   0.00000  -0.01165  -0.01165   2.08134
   A43        2.10845  -0.00106   0.00000  -0.00509  -0.00510   2.10335
   A44        2.08561   0.00207   0.00000   0.01160   0.01161   2.09721
   A45        2.08911  -0.00102   0.00000  -0.00651  -0.00651   2.08260
    D1       -3.13943   0.00027   0.00000   0.00782   0.00777  -3.13166
    D2       -0.00081  -0.00018   0.00000  -0.00523  -0.00531  -0.00612
    D3        0.00118   0.00034   0.00000   0.01026   0.01022   0.01139
    D4        3.13980  -0.00011   0.00000  -0.00279  -0.00287   3.13694
    D5        3.13940   0.00030   0.00000   0.00876   0.00872  -3.13506
    D6       -0.00395  -0.00016   0.00000  -0.00482  -0.00490  -0.00885
    D7       -0.00121   0.00022   0.00000   0.00632   0.00628   0.00507
    D8        3.13863  -0.00023   0.00000  -0.00726  -0.00734   3.13128
    D9        0.00172  -0.00061   0.00000  -0.01765  -0.01764  -0.01592
   D10        3.12638  -0.00030   0.00000  -0.00879  -0.00880   3.11758
   D11       -3.13685  -0.00016   0.00000  -0.00438  -0.00444  -3.14129
   D12       -0.01219   0.00015   0.00000   0.00448   0.00440  -0.00779
   D13       -0.00451   0.00032   0.00000   0.00842   0.00846   0.00395
   D14        3.13896   0.00098   0.00000   0.03112   0.03111  -3.11311
   D15       -3.12941   0.00003   0.00000  -0.00016  -0.00018  -3.12960
   D16        0.01405   0.00069   0.00000   0.02253   0.02247   0.03652
   D17       -0.00166  -0.00052   0.00000  -0.01558  -0.01559  -0.01724
   D18        3.13242  -0.00029   0.00000  -0.00897  -0.00898   3.12345
   D19       -3.14146  -0.00005   0.00000  -0.00176  -0.00184   3.13989
   D20       -0.00738   0.00017   0.00000   0.00485   0.00477  -0.00261
   D21        0.00448   0.00025   0.00000   0.00823   0.00827   0.01274
   D22       -3.13899  -0.00042   0.00000  -0.01443  -0.01446   3.12973
   D23       -3.12973   0.00003   0.00000   0.00178   0.00178  -3.12796
   D24        0.00999  -0.00063   0.00000  -0.02088  -0.02096  -0.01097
   D25        0.97261   0.00018   0.00000   0.01145   0.01153   0.98414
   D26       -2.17325  -0.00019   0.00000  -0.00482  -0.00486  -2.17811
   D27       -2.16708   0.00085   0.00000   0.03454   0.03458  -2.13249
   D28        0.97025   0.00049   0.00000   0.01827   0.01819   0.98844
   D29       -2.19670   0.00036   0.00000  -0.00311  -0.00286  -2.19956
   D30        1.97912  -0.00093   0.00000  -0.01816  -0.01841   1.96071
   D31       -0.10382  -0.00006   0.00000  -0.00799  -0.00798  -0.11180
   D32        0.94907   0.00070   0.00000   0.01278   0.01301   0.96208
   D33       -1.15829  -0.00058   0.00000  -0.00228  -0.00254  -1.16083
   D34        3.04195   0.00029   0.00000   0.00789   0.00790   3.04984
   D35        0.22336   0.00108   0.00000   0.04265   0.04258   0.26593
   D36       -2.93299   0.00053   0.00000   0.02418   0.02414  -2.90884
   D37       -2.92259   0.00072   0.00000   0.02613   0.02617  -2.89641
   D38        0.20425   0.00017   0.00000   0.00767   0.00774   0.21199
   D39        3.13344  -0.00020   0.00000  -0.00554  -0.00582   3.12762
   D40        0.00612  -0.00014   0.00000  -0.00446  -0.00467   0.00145
   D41        0.00609   0.00040   0.00000   0.01255   0.01256   0.01865
   D42       -3.12123   0.00046   0.00000   0.01363   0.01372  -3.10752
   D43       -3.13408   0.00027   0.00000   0.01013   0.00987  -3.12421
   D44        0.01430   0.00025   0.00000   0.00949   0.00927   0.02357
   D45       -0.00692  -0.00023   0.00000  -0.00778  -0.00781  -0.01473
   D46        3.14146  -0.00025   0.00000  -0.00842  -0.00840   3.13306
   D47       -0.00150  -0.00025   0.00000  -0.00754  -0.00755  -0.00905
   D48       -3.14094   0.00001   0.00000   0.00005   0.00006  -3.14088
   D49        3.12567  -0.00028   0.00000  -0.00847  -0.00854   3.11713
   D50       -0.01377  -0.00002   0.00000  -0.00087  -0.00093  -0.01470
   D51       -0.00243  -0.00007   0.00000  -0.00247  -0.00241  -0.00484
   D52        3.14117   0.00011   0.00000   0.00317   0.00320  -3.13881
   D53        3.13702  -0.00033   0.00000  -0.01008  -0.01009   3.12693
   D54       -0.00258  -0.00015   0.00000  -0.00444  -0.00447  -0.00705
   D55        0.00159   0.00024   0.00000   0.00719   0.00721   0.00880
   D56       -3.13998   0.00012   0.00000   0.00421   0.00415  -3.13583
   D57        3.14118   0.00006   0.00000   0.00156   0.00160  -3.14041
   D58       -0.00039  -0.00005   0.00000  -0.00143  -0.00147  -0.00186
   D59        0.00318  -0.00009   0.00000  -0.00197  -0.00205   0.00113
   D60        3.13797  -0.00006   0.00000  -0.00126  -0.00139   3.13658
   D61       -3.13844   0.00002   0.00000   0.00101   0.00099  -3.13745
   D62       -0.00364   0.00005   0.00000   0.00172   0.00165  -0.00199
         Item               Value     Threshold  Converged?
 Maximum Force            0.020230     0.000450     NO 
 RMS     Force            0.005591     0.000300     NO 
 Maximum Displacement     0.163567     0.001800     NO 
 RMS     Displacement     0.045852     0.001200     NO 
 Predicted change in Energy=-5.533699D-03
 GradGradGradGradGradGradGradGradGradGradGradGradGradGradGradGradGradGrad

                          Input orientation:                          
 ---------------------------------------------------------------------
 Center     Atomic      Atomic             Coordinates (Angstroms)
 Number     Number       Type             X           Y           Z
 ---------------------------------------------------------------------
      1         17           0        4.622067   -0.654285   -0.030484
      2          6           0        2.960186   -0.137625   -0.045468
      3          6           0        2.519597    0.807040    0.881598
      4          6           0        1.186676    1.209048    0.874170
      5          6           0        2.076305   -0.669549   -0.986117
      6          6           0        0.750590   -0.248120   -0.999760
      7          6           0        0.288287    0.689346   -0.066079
      8          7           0       -1.056454    1.128442   -0.089213
      9          6           0       -1.324140    2.546635   -0.236963
     10          6           0       -2.129050    0.238963    0.001096
     11          6           0       -1.951014   -1.091076    0.432528
     12          6           0       -3.038194   -1.954307    0.530198
     13          6           0       -4.327819   -1.521143    0.214420
     14          6           0       -4.512611   -0.202373   -0.196867
     15          6           0       -3.431981    0.672552   -0.303896
     16          1           0        3.219944    1.211892    1.614689
     17          1           0        0.831125    1.931440    1.612016
     18          1           0        2.435921   -1.400961   -1.712430
     19          1           0        0.055864   -0.645625   -1.742340
     20          1           0       -1.976759    2.922013    0.568530
     21          1           0       -1.799376    2.773842   -1.206810
     22          1           0       -0.374197    3.091429   -0.196160
     23          1           0       -0.955582   -1.443116    0.705916
     24          1           0       -2.876039   -2.980643    0.867593
     25          1           0       -5.178594   -2.201716    0.295100
     26          1           0       -5.515267    0.155078   -0.442659
     27          1           0       -3.605428    1.698077   -0.632838
 ---------------------------------------------------------------------
                    Distance matrix (angstroms):
                    1          2          3          4          5
     1  Cl   0.000000
     2  C    1.740405   0.000000
     3  C    2.718040   1.394977   0.000000
     4  C    4.011523   2.409274   1.392244   0.000000
     5  C    2.719259   1.396069   2.421813   2.789486   0.000000
     6  C    4.011583   2.409398   2.789669   2.413529   1.391153
     7  C    4.537428   2.797025   2.427074   1.400450   2.426947
     8  N    5.952072   4.211679   3.719397   2.442588   3.721745
     9  C    6.756174   5.059384   4.364823   3.054169   4.740052
    10  C    6.810026   5.103362   4.765281   3.563335   4.414181
    11  C    6.603829   5.025677   4.877588   3.915446   4.290633
    12  C    7.789994   6.293829   6.215911   5.289107   5.487067
    13  C    8.995103   7.422714   7.263103   6.188608   6.571096
    14  C    9.147363   7.474611   7.185676   5.968341   6.652442
    15  C    8.167186   6.448486   6.069988   4.796630   5.710330
    16  H    2.855723   2.155178   1.091703   2.163922   3.407627
    17  H    4.873912   3.400174   2.156090   1.092100   3.881483
    18  H    2.857569   2.156301   3.407528   3.881142   1.091704
    19  H    4.876549   3.401841   3.881399   3.400687   2.157458
    20  H    7.529490   5.840531   4.978788   3.610399   5.634143
    21  H    7.373651   5.699016   5.184909   3.961763   5.189080
    22  H    6.246636   4.644093   3.841098   2.669323   4.557844
    23  H    5.681083   4.195489   4.143782   3.413437   3.557207
    24  H    7.901903   6.555758   6.592391   5.836027   5.770885
    25  H    9.927412   8.403345   8.286056   7.244674   7.524800
    26  H   10.177941   8.489802   8.169317   6.910928   7.655542
    27  H    8.578351   6.842667   6.372079   5.047225   6.165431
                    6          7          8          9         10
     6  C    0.000000
     7  C    1.401544   0.000000
     8  N    2.447331   1.414804   0.000000
     9  C    3.563288   2.465491   1.450778   0.000000
    10  C    3.087279   2.459852   1.396349   2.455586   0.000000
    11  C    3.171859   2.903959   2.449227   3.751550   1.409551
    12  C    4.427949   4.290678   3.716760   4.876986   2.432473
    13  C    5.374483   5.125756   4.220702   5.076677   2.824547
    14  C    5.324286   4.884761   3.705088   4.210107   2.432145
    15  C    4.338867   3.727899   2.428385   2.821287   1.406645
    16  H    3.881326   3.419452   4.604110   5.085160   5.671156
    17  H    3.402696   2.157191   2.664946   2.905573   3.771230
    18  H    2.162702   3.419384   4.607537   5.647882   5.144364
    19  H    1.091823   2.155462   2.667844   3.789604   2.931879
    20  H    4.466286   3.243141   2.120491   1.102560   2.746622
    21  H    3.959476   3.163025   2.123275   1.103665   2.827248
    22  H    3.614347   2.495157   2.080920   1.095836   3.354844
    23  H    2.692280   2.586616   2.693570   4.116184   2.168683
    24  H    4.909800   4.934929   4.594665   5.846301   3.416822
    25  H    6.375612   6.194794   5.313162   6.138953   3.917023
    26  H    6.303483   5.840248   4.577486   4.829845   3.416200
    27  H    4.785103   4.061991   2.667823   2.465977   2.170387
                   11         12         13         14         15
    11  C    0.000000
    12  C    1.391642   0.000000
    13  C    2.425228   1.396596   0.000000
    14  C    2.783471   2.402457   1.393721   0.000000
    15  C    2.417844   2.784092   2.425588   1.394529   0.000000
    16  H    5.782730   7.096846   8.148556   8.066863   6.944060
    17  H    4.274001   5.589364   6.363042   6.031644   4.840412
    18  H    4.893063   5.941506   7.033873   7.212187   6.380885
    19  H    2.992664   4.055893   4.879767   4.843132   3.996470
    20  H    4.015475   4.990652   5.039297   4.096116   2.817600
    21  H    4.200954   5.187220   5.182645   4.152046   2.809995
    22  H    4.513861   5.751862   6.088967   5.289197   3.900335
    23  H    1.090668   2.151619   3.408759   3.873876   3.410033
    24  H    2.148352   1.092472   2.159732   3.395618   3.876506
    25  H    3.416092   2.167440   1.092478   2.164009   3.416266
    26  H    3.875919   3.395857   2.156733   1.092476   2.151073
    27  H    3.413424   3.874831   3.406328   2.150526   1.090865
                   16         17         18         19         20
    16  H    0.000000
    17  H    2.494838   0.000000
    18  H    4.302489   4.973149   0.000000
    19  H    4.973069   4.300464   2.497218   0.000000
    20  H    5.569980   3.155045   6.585030   4.711657   0.000000
    21  H    5.966081   3.946512   5.968448   3.927017   1.790322
    22  H    4.441810   2.463305   5.511570   4.067087   1.783720
    23  H    5.030900   3.924407   4.165629   2.766400   4.485089
    24  H    7.436163   6.198854   6.113005   4.567287   5.978252
    25  H    9.161303   7.411745   7.915316   5.828562   6.048067
    26  H    9.036230   6.903176   8.200912   5.776487   4.604289
    27  H    7.202323   4.977633   6.875132   4.486534   2.365136
                   21         22         23         24         25
    21  H    0.000000
    22  H    1.775785   0.000000
    23  H    4.706723   4.659812   0.000000
    24  H    6.210994   6.652882   2.465418   0.000000
    25  H    6.199276   7.165260   4.310229   2.497245   0.000000
    26  H    4.609739   5.925666   4.966304   4.302909   2.492411
    27  H    2.179114   3.545839   4.322157   4.967265   4.306310
                   26         27
    26  H    0.000000
    27  H    2.462621   0.000000
 Stoichiometry    C13H12ClN
 Framework group  C1[X(C13H12ClN)]
 Deg. of freedom    75
 Full point group                 C1      NOp   1
 Largest Abelian subgroup         C1      NOp   1
 Largest concise Abelian subgroup C1      NOp   1
                         Standard orientation:                         
 ---------------------------------------------------------------------
 Center     Atomic      Atomic             Coordinates (Angstroms)
 Number     Number       Type             X           Y           Z
 ---------------------------------------------------------------------
      1         17           0       -4.701534   -0.752017    0.002476
      2          6           0       -3.046811   -0.213199    0.026496
      3          6           0       -2.615781    0.743043   -0.893165
      4          6           0       -1.288419    1.162853   -0.878567
      5          6           0       -2.159094   -0.739052    0.966946
      6          6           0       -0.839220   -0.299958    0.987854
      7          6           0       -0.386358    0.649418    0.061610
      8          7           0        0.952270    1.106373    0.092184
      9          6           0        1.200356    2.527085    0.249627
     10          6           0        2.037031    0.231951    0.000158
     11          6           0        1.878376   -1.097649   -0.440100
     12          6           0        2.977393   -1.945584   -0.539273
     13          6           0        4.259986   -1.497121   -0.216293
     14          6           0        4.425617   -0.178573    0.203775
     15          6           0        3.332960    0.681085    0.312403
     16          1           0       -3.318987    1.143010   -1.626202
     17          1           0       -0.940081    1.894529   -1.610684
     18          1           0       -2.511336   -1.479729    1.687460
     19          1           0       -0.141767   -0.692714    1.730404
     20          1           0        1.850631    2.916192   -0.551232
     21          1           0        1.669161    2.754613    1.222524
     22          1           0        0.243319    3.059322    0.208847
     23          1           0        0.888712   -1.461311   -0.719156
     24          1           0        2.830211   -2.971886   -0.883566
     25          1           0        5.120106   -2.165698   -0.298179
     26          1           0        5.422526    0.190768    0.455295
     27          1           0        3.491473    1.706779    0.648278
 ---------------------------------------------------------------------
 Rotational constants (GHZ):           1.4013285           0.2485602           0.2233901
 Standard basis: def2SVP (5D, 7F)
 There are   289 symmetry adapted cartesian basis functions of A   symmetry.
 There are   274 symmetry adapted basis functions of A   symmetry.
   274 basis functions,   471 primitive gaussians,   289 cartesian basis functions
    57 alpha electrons       57 beta electrons
       nuclear repulsion energy       988.7057195080 Hartrees.
 NAtoms=   27 NActive=   27 NUniq=   27 SFac= 1.00D+00 NAtFMM=   60 NAOKFM=F Big=F
 Integral buffers will be    131072 words long.
 Raffenetti 2 integral format.
 Two-electron integral symmetry is turned on.
 Nuclear repulsion after empirical dispersion term =      988.6878469162 Hartrees.
 One-electron integrals computed using PRISM.
   1 Symmetry operations used in ECPInt.
 ECPInt:  NShTT=    8256 NPrTT=   30622 LenC2=    7740 LenP2D=   20862.
 LDataN:  DoStor=T MaxTD1= 4 Len=   56
 NBasis=   274 RedAO= T EigKep=  2.45D-04  NBF=   274
 NBsUse=   274 1.00D-06 EigRej= -1.00D+00 NBFU=   274
 Initial guess from the checkpoint file:  "prod_5h_1.chk"
 B after Tr=    -0.000000    0.000000    0.000000
         Rot=    0.999999    0.000249    0.000669   -0.001452 Ang=   0.19 deg.
 ExpMin= 1.22D-01 ExpMax= 1.04D+04 ExpMxC= 1.57D+03 IAcc=3 IRadAn=         5 AccDes= 0.00D+00
 Harris functional with IExCor= 4639 and IRadAn=       5 diagonalized for initial guess.
 HarFok:  IExCor= 4639 AccDes= 0.00D+00 IRadAn=         5 IDoV= 1 UseB2=F ITyADJ=14
 ICtDFT=  3500011 ScaDFX=  1.000000  1.000000  1.000000  1.000000
 FoFCou: FMM=F IPFlag=           0 FMFlag=      100000 FMFlg1=           0
         NFxFlg=           0 DoJE=T BraDBF=F KetDBF=T FulRan=T
         wScrn=  0.000000 ICntrl=       500 IOpCl=  0 I1Cent=   200000004 NGrid=           0
         NMat0=    1 NMatS0=      1 NMatT0=    0 NMatD0=    1 NMtDS0=    0 NMtDT0=    0
 Petite list used in FoFCou.
 Requested convergence on RMS density matrix=1.00D-08 within 128 cycles.
 Requested convergence on MAX density matrix=1.00D-06.
 Requested convergence on             energy=1.00D-06.
 No special actions if energy rises.
 Integral accuracy reduced to 1.0D-05 until final iterations.
 Initial convergence to 1.0D-05 achieved.  Increase integral accuracy.
 SCF Done:  E(RwB97XD) =  -1016.82827654     A.U. after   14 cycles
            NFock= 14  Conv=0.42D-08     -V/T= 2.0072
   1 Symmetry operations used in ECPInt.
 ECPInt:  NShTT=    8256 NPrTT=   30622 LenC2=    7740 LenP2D=   20862.
 LDataN:  DoStor=T MaxTD1= 5 Len=  102
 Calling FoFJK, ICntrl=      2127 FMM=F ISym2X=0 I1Cent= 0 IOpClX= 0 NMat=1 NMatS=1 NMatT=0.
 ***** Axes restored to original set *****
 -------------------------------------------------------------------
 Center     Atomic                   Forces (Hartrees/Bohr)
 Number     Number              X              Y              Z
 -------------------------------------------------------------------
      1       17           0.000570719   -0.000189256   -0.000037610
      2        6          -0.003082470    0.001247501    0.000211279
      3        6           0.001674444   -0.000495798   -0.000321445
      4        6           0.000178314   -0.001223807   -0.001098638
      5        6           0.000886908   -0.000431045    0.000340184
      6        6           0.000912271    0.000506271    0.000800148
      7        6          -0.002090203    0.000566661   -0.000281884
      8        7          -0.001073250    0.001308406    0.001261302
      9        6           0.002693474   -0.002987738    0.000664258
     10        6           0.002553691    0.001790583   -0.000836195
     11        6          -0.001402484   -0.000776392    0.000182791
     12        6           0.000109809    0.002243782   -0.000840634
     13        6          -0.000540415    0.000381377   -0.000122786
     14        6           0.001379775   -0.001318030    0.000610437
     15        6          -0.001919531   -0.001074755   -0.000055687
     16        1          -0.000516698   -0.000043296   -0.000226694
     17        1           0.000388679   -0.000323307    0.000177852
     18        1          -0.000388991    0.000357294    0.000180190
     19        1           0.000233617   -0.000308663    0.000177589
     20        1          -0.000416381    0.000273745   -0.000256100
     21        1           0.000018853    0.000779799   -0.000258101
     22        1          -0.000052005    0.000801989   -0.000338759
     23        1          -0.000171340   -0.000296663   -0.000119885
     24        1           0.000405568    0.000071644    0.000124706
     25        1           0.000610215    0.000364391   -0.000067870
     26        1           0.000094377    0.000406864   -0.000087125
     27        1          -0.001056945   -0.001631556    0.000218677
 -------------------------------------------------------------------
 Cartesian Forces:  Max     0.003082470 RMS     0.001004903

 GradGradGradGradGradGradGradGradGradGradGradGradGradGradGradGradGradGrad
 Berny optimization.
 Using GEDIIS/GDIIS optimizer.
 FormGI is forming the generalized inverse of G from B-inverse, IUseBI=4.
 Internal  Forces:  Max     0.005009388 RMS     0.000902332
 Search for a local minimum.
 Step number   2 out of a maximum of  145
 All quantities printed in internal units (Hartrees-Bohrs-Radians)
 Mixed Optimization -- En-DIIS/RFO-DIIS
 Update second derivatives using D2CorX and points    1    2
 DE= -5.12D-03 DEPred=-5.53D-03 R= 9.26D-01
 TightC=F SS=  1.41D+00  RLast= 1.94D-01 DXNew= 5.0454D-01 5.8162D-01
 Trust test= 9.26D-01 RLast= 1.94D-01 DXMaxT set to 5.05D-01
 ITU=  1  0
 Use linear search instead of GDIIS.
[...]
 Alpha virt. eigenvalues --   22.88518  22.93717  23.28247  23.33878  26.00204
 Alpha virt. eigenvalues --   33.13901
          Condensed to atoms (all electrons):
               1          2          3          4          5          6
     1  Cl  16.869127   0.286617  -0.046857   0.017807  -0.046797   0.017527
     2  C    0.286617   5.018793   0.327482   0.085928   0.303917   0.109018
     3  C   -0.046857   0.327482   5.053156   0.370725   0.075506  -0.113107
     4  C    0.017807   0.085928   0.370725   5.106710  -0.110085   0.058658
     5  C   -0.046797   0.303917   0.075506  -0.110085   5.114269   0.316560
     6  C    0.017527   0.109018  -0.113107   0.058658   0.316560   5.190527
     7  C   -0.004710  -0.139445   0.024497   0.425660   0.043913   0.350765
     8  N   -0.000023  -0.000446   0.006422  -0.041761   0.009889  -0.059007
     9  C   -0.000003  -0.000191   0.001296  -0.008360   0.000328  -0.002580
    10  C   -0.000012   0.000504   0.000736  -0.011872  -0.002726   0.028114
    11  C    0.000004   0.000504  -0.000506   0.005912  -0.002548  -0.002649
    12  C    0.000000   0.000001  -0.000080   0.000090   0.000055   0.002431
    13  C    0.000000   0.000003   0.000001   0.000050  -0.000021   0.000140
    14  C    0.000000  -0.000005  -0.000006  -0.000013   0.000087   0.000042
    15  C   -0.000000   0.000083   0.000123   0.000057  -0.000933   0.003375
    16  H    0.001678  -0.069842   0.447656  -0.056067   0.016870  -0.006683
    17  H   -0.000189   0.009001  -0.033406   0.426027  -0.002417   0.008353
    18  H    0.001703  -0.070362   0.015964  -0.005802   0.446805  -0.054119
    19  H   -0.000200   0.009227  -0.001965   0.008163  -0.041727   0.433229
    20  H    0.000000  -0.000025  -0.000250  -0.000336   0.000159  -0.001586
    21  H    0.000000   0.000069   0.000182   0.003055  -0.000910   0.004678
    22  H   -0.000001  -0.000202  -0.000107  -0.004687   0.000500  -0.000180
    23  H   -0.000001   0.000296   0.000030   0.000481  -0.000901  -0.002952
    24  H   -0.000000  -0.000005   0.000004  -0.000015   0.000017  -0.000071
    25  H   -0.000000   0.000000  -0.000000   0.000000  -0.000000   0.000002
    26  H    0.000000   0.000000   0.000000   0.000000  -0.000000  -0.000004
    27  H    0.000000  -0.000001   0.000011  -0.000088  -0.000003   0.000316
               7          8          9         10         11         12
     1  Cl  -0.004710  -0.000023  -0.000003  -0.000012   0.000004   0.000000
     2  C   -0.139445  -0.000446  -0.000191   0.000504   0.000504   0.000001
     3  C    0.024497   0.006422   0.001296   0.000736  -0.000506  -0.000080
     4  C    0.425660  -0.041761  -0.008360  -0.011872   0.005912   0.000090
     5  C    0.043913   0.009889   0.000328  -0.002726  -0.002548   0.000055
     6  C    0.350765  -0.059007  -0.002580   0.028114  -0.002649   0.002431
     7  C    5.109069   0.271067  -0.076855  -0.151692   0.010039  -0.002040
     8  N    0.271067   6.420807   0.312169   0.423069  -0.062853   0.002564
     9  C   -0.076855   0.312169   4.931446  -0.076992   0.012487  -0.000845
    10  C   -0.151692   0.423069  -0.076992   4.956081   0.392333  -0.016700
    11  C    0.010039  -0.062853   0.012487   0.392333   5.080908   0.472446
    12  C   -0.002040   0.002564  -0.000845  -0.016700   0.472446   4.893021
    13  C    0.000225   0.000298   0.000538  -0.069180  -0.001000   0.459783
    14  C    0.000027   0.002886  -0.002211  -0.000094  -0.056872  -0.002734
    15  C   -0.001027  -0.090607  -0.006892   0.382731   0.021760  -0.068127
    16  H    0.016353  -0.000136   0.000035  -0.000005   0.000002   0.000000
    17  H   -0.052688   0.005950  -0.002939   0.000782  -0.000126   0.000009
    18  H    0.015342  -0.000132   0.000001   0.000124  -0.000139  -0.000015
    19  H   -0.043706  -0.003863   0.000119   0.000636  -0.000335  -0.000044
    20  H    0.014206  -0.044337   0.413625  -0.005387   0.000969   0.000017
    21  H   -0.007111  -0.052331   0.408295  -0.005588  -0.000447  -0.000154
    22  H   -0.007320  -0.026333   0.406575   0.007198  -0.000517   0.000065
    23  H    0.001922  -0.003409  -0.000179  -0.048958   0.432466  -0.037486
    24  H    0.000084  -0.000156   0.000015   0.013233  -0.055423   0.439781
    25  H   -0.000000   0.000019  -0.000000  -0.003602   0.012169  -0.059109
    26  H    0.000027  -0.000111  -0.000024   0.012933  -0.002690   0.009906
    27  H   -0.001399  -0.004805   0.005227  -0.058116   0.002969  -0.000404
              13         14         15         16         17         18
     1  Cl   0.000000   0.000000  -0.000000   0.001678  -0.000189   0.001703
     2  C    0.000003  -0.000005   0.000083  -0.069842   0.009001  -0.070362
     3  C    0.000001  -0.000006   0.000123   0.447656  -0.033406   0.015964
     4  C    0.000050  -0.000013   0.000057  -0.056067   0.426027  -0.005802
     5  C   -0.000021   0.000087  -0.000933   0.016870  -0.002417   0.446805
     6  C    0.000140   0.000042   0.003375  -0.006683   0.008353  -0.054119
     7  C    0.000225   0.000027  -0.001027   0.016353  -0.052688   0.015342
     8  N    0.000298   0.002886  -0.090607  -0.000136   0.005950  -0.000132
     9  C    0.000538  -0.002211  -0.006892   0.000035  -0.002939   0.000001
    10  C   -0.069180  -0.000094   0.382731  -0.000005   0.000782   0.000124
    11  C   -0.001000  -0.056872   0.021760   0.000002  -0.000126  -0.000139
    12  C    0.459783  -0.002734  -0.068127   0.000000   0.000009  -0.000015
    13  C    4.938761   0.474841   0.013024  -0.000000   0.000000  -0.000001
    14  C    0.474841   4.871113   0.446281   0.000000  -0.000003   0.000001
    15  C    0.013024   0.446281   5.199853  -0.000002  -0.000015   0.000002
    16  H   -0.000000   0.000000  -0.000002   0.521327  -0.007103   0.000020
    17  H    0.000000  -0.000003  -0.000015  -0.007103   0.505668   0.000029
    18  H   -0.000001   0.000001   0.000002   0.000020   0.000029   0.519212
    19  H    0.000016  -0.000061   0.001301   0.000015  -0.000157  -0.006609
    20  H   -0.000290   0.001579  -0.004489   0.000005  -0.000602  -0.000000
    21  H    0.000149  -0.001115   0.007863  -0.000008   0.000616   0.000001
    22  H   -0.000021   0.000118   0.000602   0.000033  -0.003080   0.000002
    23  H    0.006998  -0.001780   0.006874  -0.000010  -0.000024  -0.000008
    24  H   -0.056349   0.010714  -0.003371   0.000000  -0.000000   0.000001
    25  H    0.446067  -0.058463   0.012762   0.000000   0.000000   0.000000
    26  H   -0.054014   0.436312  -0.054456  -0.000000   0.000000   0.000000
    27  H    0.005509  -0.022413   0.430713  -0.000000   0.000001   0.000000
              19         20         21         22         23         24
     1  Cl  -0.000200   0.000000   0.000000  -0.000001  -0.000001  -0.000000
     2  C    0.009227  -0.000025   0.000069  -0.000202   0.000296  -0.000005
     3  C   -0.001965  -0.000250   0.000182  -0.000107   0.000030   0.000004
     4  C    0.008163  -0.000336   0.003055  -0.004687   0.000481  -0.000015
     5  C   -0.041727   0.000159  -0.000910   0.000500  -0.000901   0.000017
     6  C    0.433229  -0.001586   0.004678  -0.000180  -0.002952  -0.000071
     7  C   -0.043706   0.014206  -0.007111  -0.007320   0.001922   0.000084
     8  N   -0.003863  -0.044337  -0.052331  -0.026333  -0.003409  -0.000156
     9  C    0.000119   0.413625   0.408295   0.406575  -0.000179   0.000015
    10  C    0.000636  -0.005387  -0.005588   0.007198  -0.048958   0.013233
    11  C   -0.000335   0.000969  -0.000447  -0.000517   0.432466  -0.055423
    12  C   -0.000044   0.000017  -0.000154   0.000065  -0.037486   0.439781
    13  C    0.000016  -0.000290   0.000149  -0.000021   0.006998  -0.056349
    14  C   -0.000061   0.001579  -0.001115   0.000118  -0.001780   0.010714
    15  C    0.001301  -0.004489   0.007863   0.000602   0.006874  -0.003371
    16  H    0.000015   0.000005  -0.000008   0.000033  -0.000010   0.000000
    17  H   -0.000157  -0.000602   0.000616  -0.003080  -0.000024  -0.000000
    18  H   -0.006609  -0.000000   0.000001   0.000002  -0.000008   0.000001
    19  H    0.493398  -0.000037   0.000487  -0.000175  -0.000648  -0.000006
    20  H   -0.000037   0.550843  -0.047333  -0.011763  -0.000007   0.000000
    21  H    0.000487  -0.047333   0.585137  -0.026656   0.000025  -0.000000
    22  H   -0.000175  -0.011763  -0.026656   0.519695  -0.000022  -0.000000
    23  H   -0.000648  -0.000007   0.000025  -0.000022   0.506111  -0.006968
    24  H   -0.000006   0.000000  -0.000000  -0.000000  -0.006968   0.546925
    25  H    0.000002  -0.000000   0.000001  -0.000000  -0.000102  -0.006837
    26  H   -0.000001  -0.000014  -0.000003  -0.000000   0.000031  -0.000171
    27  H    0.000001  -0.007313   0.003240   0.000406  -0.000149   0.000037
              25         26         27
     1  Cl  -0.000000   0.000000   0.000000
     2  C    0.000000   0.000000  -0.000001
     3  C   -0.000000   0.000000   0.000011
     4  C    0.000000   0.000000  -0.000088
     5  C   -0.000000  -0.000000  -0.000003
     6  C    0.000002  -0.000004   0.000316
     7  C   -0.000000   0.000027  -0.001399
     8  N    0.000019  -0.000111  -0.004805
     9  C   -0.000000  -0.000024   0.005227
    10  C   -0.003602   0.012933  -0.058116
    11  C    0.012169  -0.002690   0.002969
    12  C   -0.059109   0.009906  -0.000404
    13  C    0.446067  -0.054014   0.005509
    14  C   -0.058463   0.436312  -0.022413
    15  C    0.012762  -0.054456   0.430713
    16  H    0.000000  -0.000000  -0.000000
    17  H    0.000000   0.000000   0.000001
    18  H    0.000000   0.000000   0.000000
    19  H    0.000002  -0.000001   0.000001
    20  H   -0.000000  -0.000014  -0.007313
    21  H    0.000001  -0.000003   0.003240
    22  H   -0.000000  -0.000000   0.000406
    23  H   -0.000102   0.000031  -0.000149
    24  H   -0.006837  -0.000171   0.000037
    25  H    0.548653  -0.006892  -0.000144
    26  H   -0.006892   0.549587  -0.006614
    27  H   -0.000144  -0.006614   0.521691
 Mulliken charges:
               1
     1  Cl  -0.095672
     2  C    0.129082
     3  C   -0.127507
     4  C   -0.270235
     5  C   -0.119804
     6  C   -0.280798
     7  C    0.204795
     8  N   -0.064830
     9  C   -0.314082
    10  C    0.232450
    11  C   -0.258861
    12  C   -0.092430
    13  C   -0.165527
    14  C   -0.098230
    15  C   -0.297482
    16  H    0.135862
    17  H    0.146316
    18  H    0.137982
    19  H    0.152943
    20  H    0.142366
    21  H    0.127859
    22  H    0.145871
    23  H    0.148368
    24  H    0.118563
    25  H    0.115476
    26  H    0.116200
    27  H    0.131327
 Sum of Mulliken charges =  -0.00000
 Mulliken charges with hydrogens summed into heavy atoms:
               1
     1  Cl  -0.095672
     2  C    0.129082
     3  C    0.008355
     4  C   -0.123919
     5  C    0.018177
     6  C   -0.127855
     7  C    0.204795
     8  N   -0.064830
     9  C    0.102014
    10  C    0.232450
    11  C   -0.110493
    12  C    0.026133
    13  C   -0.050051
    14  C    0.017971
    15  C   -0.166156
 Electronic spatial extent (au):  <R**2>=           4597.5934
 Charge=              0.0000 electrons
 Dipole moment (field-independent basis, Debye):
    X=              1.0269    Y=              1.4555    Z=              0.1835  Tot=              1.7907
 Quadrupole moment (field-independent basis, Debye-Ang):
   XX=           -100.6109   YY=            -87.7333   ZZ=            -95.0848
   XY=             -0.5256   XZ=              3.4565   YZ=             -1.1874
 Traceless Quadrupole moment (field-independent basis, Debye-Ang):
   XX=             -6.1346   YY=              6.7431   ZZ=             -0.6085
   XY=             -0.5256   XZ=              3.4565   YZ=             -1.1874
 Octapole moment (field-independent basis, Debye-Ang**2):
  XXX=             30.4745  YYY=              6.2991  ZZZ=              1.8916  XYY=              4.1768
  XXY=              5.1749  XXZ=              4.9985  XZZ=            -18.9601  YZZ=              1.6123
  YYZ=             -4.7664  XYZ=             14.8756
 Hexadecapole moment (field-independent basis, Debye-Ang**3):
 XXXX=          -4959.7865 YYYY=           -898.0859 ZZZZ=           -317.9371 XXXY=            -22.1685
 XXXZ=             84.3483 YYYX=             13.8643 YYYZ=              6.4413 ZZZX=              6.7386
 ZZZY=            -13.6255 XXYY=           -949.0512 XXZZ=           -910.8061 YYZZ=           -198.2326
 XXYZ=              1.5440 YYXZ=             -8.5108 ZZXY=             13.6468
 N-N= 9.899533706411D+02 E-N=-4.367484250329D+03  KE= 1.013776719940D+03
 Breneman (CHELPG) radii used.
 Read replacement radii for each type of atom:
 Atom Element Radius
    1    17    2.00
    2     6    1.50
    3     6    1.50
    4     6    1.50
    5     6    1.50
    6     6    1.50
    7     6    1.50
    8     7    1.70
    9     6    1.50
   10     6    1.50
   11     6    1.50
   12     6    1.50
   13     6    1.50
   14     6    1.50
   15     6    1.50
   16     1    1.45
   17     1    1.45
   18     1    1.45
   19     1    1.45
   20     1    1.45
   21     1    1.45
   22     1    1.45
   23     1    1.45
   24     1    1.45
   25     1    1.45
   26     1    1.45
   27     1    1.45
 Generate Potential Derived Charges using the Breneman model, NDens= 1.
 Grid spacing= 0.300 Box extension= 2.800
 NStep X,Y,Z=   54     40     31   Total possible points=       66960
 Number of Points to Fit=   16894

 **********************************************************************

            Electrostatic Properties Using The SCF Density.

 **********************************************************************

       Atomic Center    1 is at  -4.676808 -0.789479  0.099477
       Atomic Center    2 is at  -3.027197 -0.229803  0.051775
       Atomic Center    3 is at  -2.657775  0.755160 -0.861322
       Atomic Center    4 is at  -1.335828  1.189221 -0.902482
       Atomic Center    5 is at  -2.087290 -0.772917  0.926650
       Atomic Center    6 is at  -0.774132 -0.316301  0.892438
       Atomic Center    7 is at  -0.378705  0.666841 -0.024679
       Atomic Center    8 is at   0.952000  1.149053 -0.053663
       Atomic Center    9 is at   1.172052  2.542141  0.271942
       Atomic Center   10 is at   2.033633  0.265457 -0.061805
       Atomic Center   11 is at   1.904008 -1.024526 -0.615630
       Atomic Center   12 is at   2.985714 -1.894519 -0.649433
       Atomic Center   13 is at   4.231852 -1.511389 -0.149022
       Atomic Center   14 is at   4.371697 -0.235593  0.387343
       Atomic Center   15 is at   3.291785  0.645581  0.437332
       Atomic Center   16 is at  -3.399124  1.166167 -1.547873
       Atomic Center   17 is at  -1.035477  1.940829 -1.635507
       Atomic Center   18 is at  -2.389490 -1.539699  1.641324
       Atomic Center   19 is at  -0.037156 -0.731646  1.582528
       Atomic Center   20 is at   1.980809  2.964759 -0.344050
       Atomic Center   21 is at   1.432003  2.693364  1.336937
       Atomic Center   22 is at   0.257127  3.112166  0.070549
       Atomic Center   23 is at   0.945516 -1.339063 -1.031189
       Atomic Center   24 is at   2.853948 -2.887015 -1.086866
       Atomic Center   25 is at   5.079627 -2.197901 -0.182126
       Atomic Center   26 is at   5.336747  0.088113  0.784469
       Atomic Center   27 is at   3.438320  1.631579  0.877692
   16894 points will be used for fitting atomic charges
 Fitting point charges to electrostatic potential
 Charges from ESP fit, RMS=   0.00399 RRMS=   0.40630:
 ESP charges:
               1
     1  Cl  -0.134132
     2  C    0.055120
     3  C   -0.051313
     4  C   -0.243049
     5  C   -0.092925
     6  C   -0.145149
     7  C    0.335202
     8  N   -0.432653
     9  C    0.056959
    10  C    0.394266
    11  C   -0.242612
    12  C   -0.031327
    13  C   -0.190000
    14  C   -0.046940
    15  C   -0.269210
    16  H    0.100119
    17  H    0.145598
    18  H    0.113219
    19  H    0.090403
    20  H    0.036562
    21  H    0.020219
    22  H    0.032724
    23  H    0.084634
    24  H    0.092243
    25  H    0.104957
    26  H    0.091550
    27  H    0.125537
 Sum of ESP charges =  -0.00000
 ESP charges with hydrogens summed into heavy atoms:
               1
     1  Cl  -0.134132
     2  C    0.055120
     3  C    0.048806
     4  C   -0.097451
     5  C    0.020294
     6  C   -0.054746
     7  C    0.335202
     8  N   -0.432653
     9  C    0.146464
    10  C    0.394266
    11  C   -0.157979
    12  C    0.060916
    13  C   -0.085044
    14  C    0.044610
    15  C   -0.143673
 Charge=  -0.00000 Dipole=     1.1916     1.5250     0.1609 Tot=     1.9420
 -----------------------------------------------------------------

              Electrostatic Properties (Atomic Units)

 -----------------------------------------------------------------
    Center     Electric         -------- Electric Field --------
               Potential          X             Y             Z
 -----------------------------------------------------------------
    1 Atom    -64.432116
    2 Atom    -14.702329
    3 Atom    -14.750782
    4 Atom    -14.754355
    5 Atom    -14.751470
    6 Atom    -14.755671
    7 Atom    -14.716258
    8 Atom    -18.353219
    9 Atom    -14.729748
   10 Atom    -14.723077
   11 Atom    -14.774647
   12 Atom    -14.770548
   13 Atom    -14.778917
   14 Atom    -14.770051
   15 Atom    -14.773144
   16 Atom     -1.088202
   17 Atom     -1.089113
   18 Atom     -1.089257
   19 Atom     -1.092327
   20 Atom     -1.104800
   21 Atom     -1.109244
   22 Atom     -1.098133
   23 Atom     -1.108081
   24 Atom     -1.110300
   25 Atom     -1.113161
   26 Atom     -1.109634
   27 Atom     -1.104954
 -----------------------------------------------------------------
 Unable to Open any file for archive entry.
 1\1\GINC-NOTCH480\SP\RwB97XD\def2TZVP\C13H12Cl1N1\U1366379\17-Feb-2026
 \0\\#N Guess=Read Geom=Check Integral(Ultrafine) Density Pop=(ChelpG,R
 eadRadii) NMR wB97XD def2TZVP\\prod_5h_1\\0,1\Cl,0,4.5918528255,-0.669
 9908153,-0.2414290234\C,0,2.9344894816,-0.1410852487,-0.1407485994\C,0
 ,2.5662217488,0.7990653492,0.8188700677\C,0,1.238354699,1.2083610961,0
 .9018842725\C,0,1.9873219154,-0.6638229436,-1.0201928747\C,0,0.6677405
 354,-0.2315583791,-0.9433439248\C,0,0.2735809199,0.7061625762,0.020685
 2682\N,0,-1.0640585032,1.163912253,0.0936881576\C,0,-1.3129642641,2.56
 52260155,-0.1699446267\C,0,-2.1307401627,0.2623294584,0.0848330612\C,0
 ,-1.9696315603,-1.0469052786,0.5823565967\C,0,-3.0361257823,-1.9359534
 822,0.5997010213\C,0,-4.2975530945,-1.5539922808,0.1382172031\C,0,-4.4
 683183139,-0.2598231472,-0.3422662656\C,0,-3.4041036462,0.6410290744,-
 0.3752852883\H,0,3.3135165115,1.1941612144,1.5083088615\H,0,0.93957141
 75,1.9239682417,1.6707056235\H,0,2.2885461231,-1.3953102822,-1.7713426
 616\H,0,-0.0751782408,-0.6307677455,-1.6365782787\H,0,-2.1168107612,2.
 9482677779,0.4775510642\H,0,-1.5953257726,2.7555942347,-1.2228877652\H
 ,0,-0.4038687495,3.1420847581,0.0382716748\H,0,-0.9984784441,-1.361782
 8039,0.9671211219\H,0,-2.8799336989,-2.9431781058,0.9932252648\H,0,-5.
 1332056572,-2.2557056704,0.1582227067\H,0,-5.4458303887,0.0633443385,-
 0.7081181703\H,0,-3.5750091375,1.6416297953,-0.771734487\\Version=ES64
 L-G16RevC.01\State=1-A\HF=-1017.5704499\RMSD=1.417e-09\Dipole=-0.41461
 34,0.5681295,-0.0411091\Quadrupole=-4.4736671,4.9385921,-0.464925,0.14
 28745,2.6387209,1.1458568\PG=C01 [X(C13H12Cl1N1)]\\@
 The archive entry for this job was punched.


 DEFINE YOUR TERMS, YOU WILL PERMIT ME AGAIN TO SAY, 
 OR WE SHALL NEVER UNDERSTAND ONE ANOTHER.

                                    -- VOLTAIRE
 Job cpu time:       0 days  0 hours 34 minutes 17.4 seconds.
 Elapsed time:       0 days  0 hours  4 minutes 25.3 seconds.
 File lengths (MBytes):  RWF=    183 Int=      0 D2E=      0 Chk=     28 Scr=      2
 Normal termination of Gaussian 16 at Tue Feb 17 16:04:54 2026.
